1728
Time=18999.99999999 pbc="T T T" Lattice="22.14719324 0.00000000 0.00000000 0.00000000 28.99759616 0.00000000 0.00000000 0.00000000 27.12484573" energy=-10386.79787153 virial="18.30532821 0.27029150 -2.89412402 0.27029150 7.45436640 -2.09627294 -2.89412402 -2.09627294 23.99168040" stress="0.00326946 -0.00000490 -0.00010994 -0.00000490 0.00296338 -0.00009890 -0.00010994 -0.00009890 0.00431082" Properties=species:S:1:pos:R:3:vel:R:3
N 22.01095793 5.62578586 1.87399719 -0.00231464 0.00493269 -0.00309289
N 1.53195679 4.21822019 5.94958051 -0.00214455 0.00276592 -0.00155390
N 1.74651333 9.38419348 8.25056862 0.00004932 -0.00358687 0.00282731
N 3.68160758 0.71295229 3.28111053 -0.00816009 0.00037222 -0.00110238
N 1.05505911 3.72622976 2.04450328 0.00213439 0.00564050 0.00324310
N 0.81923073 6.36423648 6.23069123 0.00478814 0.00844571 -0.00014102
N 3.30003820 0.91743913 7.79957088 0.00258666 -0.00265758 0.00543971
N 2.18646134 8.39331743 3.14760774 0.00453431 0.00268340 -0.00433360
N 0.13457375 5.53102337 10.12321053 0.00100275 -0.00154692 0.00539160
N 1.41577327 4.05928532 14.52331647 0.00436201 -0.00325568 -0.00678745
N 2.28315518 8.99741826 16.92182881 0.00183029 0.00643727 -0.00031159
N 3.34809425 0.55031174 12.24144364 0.00065205 -0.00068025 0.00087622
N 1.28143728 3.65489724 10.58337094 0.00330096 0.00215908 -0.00402675
N 0.25436529 6.04310469 15.05078913 -0.00604973 0.00564211 -0.00175616
N 3.40986652 1.42731368 16.46123632 -0.00385835 0.00084577 -0.00077819
N 2.06241712 8.48817118 12.09936802 -0.00002339 -0.00056144 0.00209829
N 0.70155369 5.30747390 19.39368261 -0.00171777 -0.00147321 -0.00624032
N 1.88817753 4.09577845 24.07220300 0.00162658 -0.00146738 -0.00224776
N 1.82212192 9.17087912 25.75158286 0.00029883 0.00466432 0.00279153
N 3.52768559 1.05394775 21.26509828 -0.00155637 0.00373769 -0.00169877
N 1.70953547 3.23927679 19.67445280 0.00333425 -0.00297219 0.00284631
N 0.49232037 5.89077993 24.43472094 -0.00446443 0.00487893 -0.01089979
N 3.54055984 1.04453499 25.70860109 0.00393793 0.00181594 -0.00098943
N 2.19663821 8.53972144 21.29445434 0.00206355 -0.00221717 0.00604170
N 0.11453870 15.34534521 0.69575551 -0.00673633 0.00126802 0.00041401
N 1.65220876 13.79574874 5.52907632 -0.00504252 0.00579635 -0.00666194
N 2.13851525 18.80446260 7.61662455 -0.00208469 0.00002117 0.00093162
N 3.45783243 10.31621637 3.33414489 -0.00431433 -0.00017537 -0.00439748
N 1.33227553 13.43784632 1.10630882 -0.00110900 -0.00078985 -0.00102192
N 0.58764047 15.70807118 5.84451429 -0.00132077 0.00051574 0.00434938
N 3.11982348 11.25742415 7.78014752 -0.00310751 0.00022353 0.00827113
N 2.64905118 18.02077337 3.28200934 0.00215072 -0.00650230 0.00243493
N 0.31367414 15.29269138 10.01915121 0.00285579 0.00299281 0.00073254
N 1.61501746 13.70696141 14.71763729 0.00238666 0.00038657 -0.00600337
N 2.53849412 18.56599038 17.03406671 -0.00207276 0.00347196 -0.00143003
N 3.36467714 10.35556751 12.55151464 -0.00056081 0.00263489 -0.00226087
N 1.63010307 13.35376221 10.37238030 0.00120705 0.00123217 0.00094083
N 0.31643653 15.59854353 14.81731407 -0.00280154 -0.00381357 -0.00609228
N 3.53825683 10.87557176 16.69366544 0.00227352 -0.00098735 0.00293148
N 2.58123135 18.19085775 11.95319529 0.00114474 -0.00280059 0.00420951
N 0.04533911 15.18130346 19.47402871 0.00200178 -0.00464564 -0.00070367
N 1.55310895 13.89629237 23.86939110 -0.00084200 0.00126437 0.00018887
N 2.22642007 18.76344113 26.04372297 0.00875548 -0.00746631 -0.00331421
N 3.69631704 10.33619238 21.45741018 0.00216058 0.00174337 0.00100211
N 1.52451764 13.31869550 19.62047336 -0.00295347 -0.00349540 -0.00706158
N 0.37756540 15.87520065 24.13275563 -0.00330625 0.00313271 -0.00218474
N 3.26361505 10.94057513 25.70773917 0.00949409 0.00075723 0.00235668
N 2.21356975 18.33229273 21.14023291 0.00293896 0.00348289 0.00259005
N 0.13945445 24.72189673 1.21946826 0.00609764 0.00213252 -0.00473749
N 1.18802596 23.40286566 5.93305631 0.00624659 -0.00151374 -0.00002095
N 1.83686579 28.11501442 8.06447711 -0.00153587 -0.00421368 -0.00651572
N 3.79020768 19.99560016 3.71282564 0.00176427 0.00704517 0.00475412
N 1.61795051 22.86964089 1.53382995 -0.00001359 -0.00321154 0.00226624
N 0.21397488 25.49894078 5.95148146 -0.00612069 0.00249756 -0.00321603
N 3.36705098 20.74470382 7.63619861 0.00110206 0.00272677 -0.00592894
N 2.34995975 27.86718288 2.96536967 0.00208247 0.00156867 -0.00256905
N 0.09637904 24.93061081 10.31898090 -0.00251288 -0.00275305 0.00489601
N 1.50061137 23.26691268 14.87425120 -0.00151550 0.00702076 0.00988893
N 2.40890533 28.33296015 16.71229971 0.00291954 -0.00131594 -0.00308074
N 3.65237652 20.15168511 12.23236191 0.00504562 -0.00524034 0.00447917
N 1.36174609 22.91853924 10.65093855 -0.00725497 -0.00316294 -0.00731479
N 0.42827864 25.27470995 15.05819009 0.00467519 -0.00222498 -0.00294157
N 3.20146840 20.73287963 16.54885193 -0.00174027 0.00250763 -0.00245147
N 2.26818849 27.63364102 12.05052834 0.00689157 -0.00526832 0.00009618
N 0.24133914 24.86014010 19.18987790 0.00474442 -0.00410260 0.00165264
N 1.80765845 23.58938590 23.61912815 -0.00184564 0.00439865 -0.00082342
N 2.02371051 28.26235728 25.90629087 -0.00530121 0.00082493 0.00626320
N 3.57395236 20.11379156 21.44534122 0.00164581 -0.00102059 -0.00083768
N 1.51639915 22.92090396 19.59808622 -0.00057909 -0.00137131 0.00059061
N 0.33761915 25.36087477 23.78791088 -0.00133260 -0.00337368 0.00577354
N 3.45797056 20.66888186 25.63027749 0.00125360 -0.00023301 0.00098731
N 2.21299713 28.15272857 21.17531220 -0.00352491 -0.00908103 -0.00128615
N 3.47877309 5.71243224 0.95084484 -0.00233625 -0.00247351 0.00979065
N 5.48401627 3.96793558 4.97566220 -0.00694804 0.00419264 -0.00241582
N 5.68562852 8.97396548 7.65942393 0.00559666 -0.00625294 -0.00184702
N 7.50726348 0.80549821 3.47882662 0.00425381 0.00527786 0.00535999
N 4.73032096 3.89076006 1.36192105 0.00229053 -0.00166232 0.00839511
N 4.19967773 5.73158810 5.65869247 0.00051214 -0.00143749 0.00368338
N 6.93237956 1.29234773 7.32151271 0.00323198 -0.00220332 0.00259573
N 5.85413838 8.61921502 2.68026629 -0.00227005 0.00440825 0.00408278
N 3.91109491 5.39232169 9.96411703 -0.00209875 -0.00506629 0.00684963
N 5.32860514 4.44660644 14.73438245 -0.00306638 0.00017544 -0.00339603
N 5.49023413 8.84872260 16.64753871 0.00023369 -0.00132324 -0.00021519
N 7.39505902 0.77448507 12.26017881 0.00749941 -0.00443532 0.00212535
N 5.29809217 3.57518823 10.24068090 0.00185239 0.00402727 0.00202531
N 3.68016768 6.05004461 15.06296401 -0.00477649 -0.00260248 0.00115452
N 7.17652728 1.05003608 16.57470090 -0.00701760 -0.00329775 0.00349976
N 6.14127479 8.37629047 11.99626793 0.00630203 0.00342609 0.00229892
N 4.00034703 5.58483130 19.32646914 -0.00035510 -0.00286186 0.00132260
N 5.33671680 4.12115006 23.96905808 -0.00026766 -0.00423835 -0.00337327
N 5.96160092 8.98875904 26.19981948 0.00136195 0.00445186 0.00427491
N 7.19108215 0.68281467 21.47904957 -0.00032987 -0.00210854 0.00467711
N 5.42737854 3.76620704 19.50366496 0.00100595 0.00298258 0.00452190
N 4.36201627 6.07824922 24.68894187 0.00152957 0.00637653 0.00087974
N 7.07248107 1.15866483 25.44878845 -0.00313196 -0.00173171 0.00111312
N 6.16063876 8.07135020 21.19950064 0.00727311 -0.00574232 0.00294231
N 3.65897210 15.08290521 1.13123966 0.00098896 -0.00676434 -0.00238198
N 5.37091814 13.36778123 5.34981048 -0.00183450 -0.00448347 -0.00115697
N 5.78422600 18.55534622 7.94771019 -0.00369725 0.00129313 0.00185524
N 7.20063132 10.42292362 3.31358399 -0.00069283 0.00088827 0.00585076
N 5.17062015 13.43255316 1.65455426 -0.00579992 -0.00328611 -0.00269657
N 4.18656691 15.18344468 6.02779350 -0.00274240 -0.00244740 -0.00239899
N 6.75130296 11.02055936 7.36647057 0.00429926 -0.00432568 -0.00578752
N 6.22064931 17.87573137 2.88690706 -0.00134633 0.00380243 0.00031944
N 4.06680352 15.20749216 10.46551015 -0.00247653 0.00199226 -0.00535206
N 5.39832032 13.75543581 14.95196318 -0.00188485 0.00168471 0.00401109
N 5.92150448 18.64034575 17.00378203 -0.00263506 -0.00283479 -0.00135586
N 7.09521390 10.48747997 12.24669334 0.00090349 -0.00541922 -0.00527827
N 5.06463316 13.25020323 10.92234699 -0.00266117 0.00167048 -0.00910405
N 4.29649746 15.80387193 15.32690556 0.00209635 -0.00111556 -0.00189071
N 7.04160721 10.60335171 16.58537262 0.00348962 -0.00043448 -0.00310712
N 5.97198719 18.24977897 12.07309711 0.00006767 0.00678763 -0.00501774
N 4.02544188 15.07753874 19.41132015 0.00057599 -0.00170642 0.00288846
N 5.20390256 13.48278609 23.61527197 -0.00559043 0.00001536 -0.00720965
N 5.76774388 19.03321510 25.75379186 0.00633531 0.00563963 0.00410117
N 6.84708528 10.21107074 21.43773722 -0.00104884 0.00469702 0.00090869
N 5.25857635 13.14620818 19.47137744 -0.00461078 -0.00139608 -0.00615646
N 4.02535941 15.54783271 24.03549746 -0.00125921 -0.00128958 0.00185057
N 6.76749694 11.07391325 25.84077291 -0.00007846 -0.00471594 -0.00128959
N 5.86966326 17.95093649 21.10183890 0.00629478 0.00329620 0.00039318
N 4.09483633 24.64246666 1.67646945 0.00051209 -0.00241638 -0.00015180
N 5.37933760 23.66848913 5.73007967 0.00367112 0.00403509 0.00175585
N 5.69476295 28.39043910 7.88209205 0.00270615 0.00174490 0.00855448
N 7.31957175 19.94612426 3.25179001 -0.00218567 0.00142243 0.00594131
N 5.58615016 22.90280912 1.52598733 0.00359281 0.00112707 0.00374822
N 4.19527990 25.70347421 5.78838619 -0.00569262 0.00397255 -0.00156341
N 6.79038266 20.60413303 7.64728426 -0.00723175 0.00340740 0.00066872
N 6.10649643 28.08483980 2.87548160 -0.00101145 -0.00120900 0.00217145
N 3.97854265 24.87181073 10.09283479 -0.00415147 -0.00368765 0.00154399
N 5.67606793 23.32723295 14.34808108 0.00122132 -0.00432029 0.00016734
N 5.87839377 28.12482559 16.85451188 0.00157657 0.01004819 -0.00156477
N 7.27484323 20.03636209 12.37203396 0.00160155 -0.00043418 -0.00094002
N 5.22072983 22.93422161 9.97555052 -0.00506728 -0.00321708 -0.00034073
N 4.58109198 25.29740212 14.81418131 -0.00203841 0.00125494 0.00231766
N 6.96383690 20.64375978 16.76843209 -0.00102126 -0.00122132 -0.00743137
N 6.13347379 27.88034426 12.03065501 0.00164146 -0.00556640 0.00139053
N 3.65000357 25.08262233 19.22687204 0.00513318 -0.00107938 -0.00439104
N 5.44466305 23.84864397 24.19031321 -0.00483038 0.00448597 0.00171658
N 5.91674773 28.25314894 26.12688681 -0.00322808 -0.00289693 0.00218739
N 6.97318507 19.99917712 21.20341874 0.00822743 0.00057753 0.00262923
N 4.97166838 23.22712581 19.70198520 -0.00384280 0.00868591 -0.00466494
N 4.40986914 25.86533716 24.42426497 -0.00129554 0.00500540 -0.00200412
N 6.91701017 20.92067539 25.52605748 -0.00092206 0.00125955 -0.00431840
N 5.99734747 27.78778418 21.17712589 -0.00098672 0.00282204 0.00395008
N 7.52339257 5.84796993 0.91899264 0.00337902 -0.00331603 0.00748653
N 8.93763012 4.22268761 5.12508546 -0.00197980 0.01186629 0.00524157
N 9.85762674 8.50912775 8.09583561 -0.00075864 -0.00315694 -0.00306218
N 10.82769693 0.86392114 3.32753137 -0.00216907 0.00391187 0.00666922
N 8.50534449 3.86773459 1.41518108 -0.00369504 0.00552157 -0.00125319
N 7.90187772 6.21362073 5.85822653 -0.00056060 -0.00705288 0.00139150
N 10.27775862 1.46777630 7.31168415 0.00253177 0.00536729 -0.00320715
N 9.80522052 8.71454625 3.33272149 -0.00071874 -0.00552030 0.00528937
N 7.87864184 5.63988266 9.62702501 -0.00238847 0.00717740 -0.00096196
N 8.83818275 4.27715975 14.66281373 -0.01198501 0.00354520 -0.00407241
N 9.43887985 8.63476277 17.31542839 -0.00863026 -0.00524944 -0.00425542
N 10.79714524 0.87237231 12.08259265 0.00165934 0.00574618 -0.00705228
N 9.04976138 3.72821481 10.01635899 -0.00208624 0.00698649 -0.00020677
N 7.68250360 6.28118717 14.86447790 -0.00140046 -0.00497104 -0.00116427
N 10.77138635 1.17627554 16.36374222 -0.00150591 0.00213161 -0.00065722
N 9.85575815 8.30035660 12.23543187 -0.00469610 0.00030892 -0.00660020
N 7.68029966 5.33557567 19.22940572 -0.00123291 -0.00374878 0.00629176
N 8.86599993 4.12921661 23.32220016 -0.00141358 0.00176216 0.00131856
N 9.09656609 9.66170520 26.91687666 0.00028911 -0.00073722 -0.00272411
N 10.99598824 0.54999721 21.19364043 0.00416387 -0.00508219 -0.00341744
N 8.91552195 3.40405720 19.61855692 0.00012125 0.00076542 -0.00033554
N 7.79303949 6.00152146 24.22305571 -0.00181656 -0.00012033 -0.00147912
N 10.83813163 1.59262171 25.51650489 -0.00095514 -0.00045216 -0.00270727
N 9.58023400 8.45296403 21.15285636 -0.00330666 -0.00565372 -0.00732040
N 7.47839587 14.98053205 1.46279891 0.00424392 -0.00017370 -0.00119208
N 9.09470149 13.84693566 6.20916626 -0.00196534 0.00115011 -0.00062580
N 9.44019911 18.75234213 7.97135369 0.00585988 -0.00307494 0.00164937
N 10.81284027 10.66997673 3.88743389 0.00912685 0.00223328 -0.00148944
N 8.90239989 13.15708499 1.59009556 0.00086951 0.00230195 -0.00465141
N 7.75425094 15.79340022 6.10326129 0.00021417 0.00338356 -0.00228903
N 10.71891220 10.61028604 7.60756450 -0.00984788 -0.00303623 0.00197334
N 9.75224721 18.09060070 3.08116834 -0.00302783 -0.00060359 0.00212820
N 7.74406850 15.10584460 10.55901276 0.00454645 -0.00035367 0.00640991
N 8.91795264 13.48374895 15.20707767 -0.00093117 0.00166215 0.00206372
N 9.32773622 18.52116983 16.86858725 -0.00566052 -0.00140510 -0.00078890
N 10.89506662 10.29535776 12.49882838 -0.00292176 0.00281590 -0.00374230
N 8.92037604 13.15374003 10.31138083 0.00433998 0.00121581 -0.00286741
N 7.87701209 15.55364880 15.40009004 0.00390446 -0.00528946 -0.00563510
N 10.59163158 10.55139555 16.72895624 -0.00195070 -0.00116193 -0.00055637
N 9.74379258 17.80831924 12.15806971 -0.00101213 -0.00845832 -0.00066066
N 8.14487220 15.21932206 19.36286861 0.00378155 -0.00125297 0.00857680
N 8.90629767 13.95144605 23.82784561 -0.00744244 0.00856412 0.00650842
N 9.80247516 18.56615618 26.11772779 -0.00227548 0.00321082 -0.00283867
N 10.90999143 10.28343053 21.60799855 -0.00901971 -0.00173559 0.00309336
N 8.94246653 13.05704091 19.57641500 -0.00678171 -0.00038477 -0.00095046
N 7.75943115 15.95407835 24.25555734 0.00383473 -0.00619444 -0.00224940
N 10.37592734 11.12504119 25.66703625 0.00071016 -0.00195579 -0.00294681
N 9.57263367 18.23674714 21.18905147 0.00419321 -0.00384500 0.00590524
N 7.58672289 24.92953353 1.23820797 -0.00029519 -0.00387721 0.00390547
N 9.14009905 23.42269572 5.60964560 0.00205148 -0.00354342 -0.00239067
N 9.47801357 28.33825100 7.61347491 -0.00687890 -0.00096236 -0.00075027
N 11.19875132 19.97563899 2.89741286 -0.00312528 -0.00523896 0.00209324
N 9.24496008 23.34061487 1.48493861 -0.00228399 -0.00046851 0.00346619
N 7.83302711 25.23992495 6.30897785 -0.00320648 -0.00025419 0.00005503
N 10.61523177 20.68145844 7.53389404 -0.00396701 0.00269549 0.00121044
N 9.83916744 27.79800430 2.83778935 0.00523963 0.00517822 -0.00093856
N 7.63038074 24.70596833 9.92897587 -0.00498212 0.00243061 -0.00503137
N 9.12589316 23.22050493 14.48900976 0.00537486 0.00308025 -0.00097308
N 9.57537029 28.19033916 16.51046038 -0.00049294 0.00429551 0.00084044
N 10.71008087 19.86725465 12.45828109 -0.00374430 0.00334118 -0.00173393
N 8.86095451 22.84631040 10.53730811 -0.00182922 0.00237944 -0.00245561
N 8.11076407 25.30593364 14.79826901 0.00351647 -0.00128888 -0.00744843
N 10.33401843 20.58046937 16.61147686 0.00227238 -0.00043798 0.00362367
N 9.73399735 27.78671051 11.81061731 0.00492147 0.00051949 0.00126714
N 7.60474501 25.01360716 19.22415923 0.00002471 0.00102196 -0.00342295
N 9.45237905 23.69268684 23.93316999 -0.00059855 0.00587488 -0.00138382
N 9.48180792 28.77314097 25.86618751 0.00647919 -0.00030612 0.00405039
N 10.98135681 20.09066084 21.32342254 0.00572172 -0.00283738 0.00171348
N 8.68444096 23.05084254 19.33454957 0.00517052 -0.00218018 0.00064211
N 7.95586378 25.47037741 24.21512118 -0.00643392 -0.00567108 0.00007541
N 10.59272952 20.66503442 25.43611421 -0.00278610 -0.00466700 -0.00245809
N 9.42049131 27.90807854 20.99338180 -0.00341423 0.00330332 -0.00144189
N 11.48845971 5.84236921 1.08493502 0.01016038 0.00448300 -0.00141330
N 12.86116527 4.23068526 5.79784352 0.00399923 -0.00194914 -0.00792198
N 13.22606787 8.85050353 7.72806839 -0.00005279 0.00286514 0.00058828
N 14.89413817 0.73779986 3.51916279 0.00629236 0.00003145 -0.00188579
N 11.98352042 3.61509626 1.57173979 -0.00529572 -0.01562393 -0.00133866
N 11.45995466 6.03946664 6.21151094 -0.00634458 0.00700900 0.00039900
N 13.95679412 1.10643509 7.55208515 -0.00694611 0.00137234 -0.00323870
N 13.37809475 8.41032196 2.99476373 0.00446281 -0.00518181 -0.00319796
N 11.27422946 5.60141725 10.37182042 0.00889379 0.00183258 -0.00118939
N 12.81178705 4.20922839 14.84640735 -0.00070528 -0.00471615 0.00063463
N 13.28216378 8.91042881 17.12033304 0.00661745 0.00422212 0.00503548
N 14.63573643 0.55750717 12.59851383 -0.00305745 0.00091831 0.00168574
N 12.86773125 3.89069809 10.63687746 0.00297469 0.00191955 -0.00791660
N 11.36830088 6.00770283 15.19877680 -0.00457764 -0.00266358 -0.00357453
N 14.61397586 1.03981034 16.67839427 -0.00155097 -0.00325490 0.00203380
N 13.31738889 8.31671758 12.21968196 -0.00342816 0.00161359 -0.00389022
N 11.35289574 5.30353129 19.33777721 0.00088145 -0.00333320 0.00654738
N 12.71416202 4.67919119 23.63784101 0.00420067 -0.00328249 0.00469823
N 13.08394324 8.93907049 26.20118897 0.00361510 0.00351238 0.00509974
N 14.39434509 0.81561524 21.55768232 0.00548574 -0.00478462 0.00386090
N 12.75837738 3.35370282 19.45691778 -0.00107577 -0.00251141 0.00142444
N 10.98443132 6.07889039 24.27161398 0.00402682 0.00158527 0.00168960
N 14.40099810 1.45259663 25.53684824 0.00224253 0.00452636 0.00019337
N 13.38158641 8.12498865 21.07059534 0.00401051 -0.00188835 0.00057237
N 11.31167766 15.19506147 1.08817408 0.00178414 0.00313561 0.00045804
N 12.21192998 13.62271567 5.62256831 -0.00163199 -0.00655465 -0.00009671
N 12.84545942 18.50971791 7.65442934 0.00409715 -0.00605333 0.00207698
N 14.71538926 10.34122541 3.24475689 0.00052276 -0.00135664 -0.00030489
N 12.63956923 13.38136689 1.39864720 -0.00271154 0.00485201 0.00200705
N 11.41054198 15.75938413 6.24940730 0.00430561 -0.00118014 -0.00042681
N 14.34142268 10.84569098 7.31156659 -0.00279410 -0.00219093 0.00325837
N 13.23482041 17.91343466 3.15374703 -0.00133021 0.00126046 0.00245791
N 11.38807870 15.11693392 10.42638911 0.00444019 0.00257967 -0.00428345
N 12.43141148 13.66492347 14.78129683 -0.00381154 -0.00099752 0.00057483
N 12.73702192 18.73196631 17.01833804 -0.00663265 -0.00374923 -0.00267070
N 14.38007186 10.32524059 12.20927704 0.00173908 -0.00031278 -0.00551445
N 12.78086224 13.28106822 10.77361265 -0.00123646 0.00156246 0.00210781
N 11.43276997 15.72908536 15.10372812 0.00098330 -0.00032441 0.00322719
N 14.56963608 10.76874533 16.63071777 -0.00475027 0.00343810 -0.00234451
N 13.58422856 17.56741452 11.90856075 -0.00443053 -0.00279105 -0.00540961
N 11.62035001 15.02001616 18.89076873 0.00356932 -0.00235828 0.00386554
N 12.63901707 13.78052595 23.60503007 0.00159682 0.00850575 0.00634053
N 12.99411857 18.66653528 25.88176482 -0.00108148 0.00203193 -0.00312816
N 14.64173739 10.12254989 21.51692199 -0.00934275 -0.00652918 0.00893329
N 12.93436849 13.18420537 19.52725836 0.00344944 0.00328357 0.00547982
N 11.36586746 15.83167446 23.79086324 -0.00616476 -0.00603607 -0.00684974
N 14.32529128 10.69512253 25.38122214 -0.00123117 -0.00351556 -0.00067629
N 13.20778184 18.09516738 21.10870386 -0.00173948 -0.00341142 -0.00059858
N 11.20023122 24.99768543 0.49513651 0.00240919 -0.00502289 -0.00187920
N 12.39687524 23.48458566 5.52465761 -0.00168073 -0.00394177 -0.00353192
N 13.08025648 28.05821234 8.15926352 0.00183426 -0.00479645 0.00422003
N 14.76837867 19.60031682 2.77349682 -0.00538914 0.00278341 -0.00611927
N 12.37396996 23.15622668 1.26851179 0.00245134 0.00121580 0.00999896
N 11.20252225 25.34861231 5.92556606 0.00417002 0.00755215 0.00017108
N 14.38663092 20.28437475 7.52731235 -0.00074857 0.00234145 0.00656070
N 13.58955193 27.94105858 2.91312944 -0.00423093 -0.00061292 0.00287174
N 11.35647563 24.71989288 10.13999074 0.00017027 -0.00281007 -0.00269476
N 12.75831793 23.46569624 14.76649385 -0.00572149 0.00260792 0.00189361
N 13.27979073 28.20614542 16.90914013 -0.00226708 0.00099035 -0.00532788
N 14.46673140 19.71513714 12.18577524 -0.00315304 0.00391667 0.00088064
N 12.55395664 22.73081440 10.40714046 0.00305450 -0.00258780 -0.00103054
N 11.81698526 25.56081087 14.84431547 -0.00230307 0.00311147 0.00182996
N 14.15665078 20.53454675 16.73686899 0.00741438 -0.00118918 0.00088784
N 13.54108917 27.54274994 12.31625410 0.00431328 -0.00558594 -0.00079863
N 11.27081818 24.86831928 19.22801213 -0.00161114 -0.00035689 0.00418809
N 12.77327464 23.73952431 23.57327031 -0.00210462 -0.00227956 -0.00212352
N 13.13707674 28.58902782 25.93156604 -0.00002152 0.00194274 0.00467773
N 14.69426408 19.76928567 21.70736497 0.00099679 -0.00124073 0.00142967
N 12.28784498 22.76894872 19.50118150 -0.00163932 0.00249837 -0.00107246
N 11.64948795 25.76959989 23.81014913 0.00582424 0.00438523 0.00118246
N 14.30770959 20.58991308 25.78186620 -0.00319898 0.00370216 -0.00075008
N 13.38216563 27.80056446 20.92985464 -0.00476947 -0.00219684 -0.00297857
N 14.63961147 5.43183063 1.44399082 -0.00066169 0.00021527 -0.00375292
N 16.57324942 4.18458340 5.60139215 -0.00515439 0.00337929 0.00352355
N 16.82848573 9.25869652 7.87706312 -0.00186856 0.00451506 -0.00047497
N 17.83289237 0.68102503 3.19013995 0.00178174 -0.00255945 -0.00123855
N 15.99959786 3.43202377 1.37061198 0.00466563 -0.00004567 0.00510269
N 15.26382417 6.07222092 5.76423108 -0.00361491 -0.00626697 -0.00394468
N 17.77058254 1.21120061 7.22358718 0.00082174 -0.00268051 -0.00070586
N 17.13949925 8.50363212 3.04918943 -0.01237398 0.00586928 -0.00035671
N 15.29912202 5.74972756 10.15924012 -0.00606326 0.00230938 -0.00553563
N 16.53890355 4.16719940 14.37124230 -0.00206981 0.00613646 0.00474551
N 16.87098012 8.94368799 16.94592709 0.00527404 -0.00775807 -0.00465111
N 18.11941609 0.44392582 11.78111114 0.00030916 0.00495487 0.00415924
N 15.80396874 3.55493097 10.34624907 -0.00120329 0.00090231 0.00518890
N 15.28749028 5.99383621 15.10161465 0.00152880 0.00420415 -0.00027630
N 18.31281252 1.15885916 16.24453420 -0.00306344 -0.00570810 0.00236555
N 17.06327591 8.83745113 12.31280744 0.00540021 -0.00055119 -0.00817880
N 14.98387327 5.39120735 19.02957298 -0.00057213 0.00889400 -0.00022483
N 16.35328726 4.39160544 23.44688992 0.00280317 0.00048844 -0.00124273
N 16.38368908 8.92746587 26.07271045 0.00052985 -0.00312929 -0.00488465
N 18.37491425 0.77254115 21.18087481 0.00158249 0.00287879 -0.00334724
N 16.35761501 3.62305237 19.29498057 -0.00250088 -0.00607594 -0.00206688
N 15.21243895 6.33313110 24.08889795 -0.00704657 -0.00038868 0.00321126
N 17.90991456 1.66118189 25.62245189 -0.00172331 0.00061596 -0.00803516
N 17.13203212 8.34720318 21.00244562 -0.00855906 -0.00435767 0.00540918
N 14.78987520 15.20464857 1.07879144 0.00239791 -0.00058629 -0.00387370
N 15.68929710 13.79325872 5.76107381 0.00061593 0.00787395 -0.00183978
N 16.95503742 18.35544499 7.93410876 -0.00102803 0.00512603 -0.00010483
N 18.46382817 10.36689317 3.25839172 0.00016668 0.00333295 0.00143475
N 16.43027672 13.50856760 1.34632014 0.00036008 -0.00166778 -0.00499226
N 14.69239490 15.73854407 5.97589423 0.00260125 -0.00014313 -0.00116770
N 17.52497448 11.44871568 7.70591716 0.00301886 0.00450021 0.00662652
N 17.06065854 17.73601342 3.07410708 0.00115319 -0.00355608 -0.00421756
N 15.07725873 14.98131559 10.39347639 -0.00353882 0.00371683 0.00665181
N 16.56276573 13.82568233 14.91935712 -0.00084792 0.00339443 -0.00112774
N 16.88360814 18.41536301 16.96243728 0.00118580 0.00020601 -0.00732420
N 18.28294511 10.75080768 12.87704876 0.00215121 0.00137795 0.00053665
N 16.34500609 13.18028730 10.92261379 0.00303851 -0.00057733 -0.00226884
N 15.26457692 15.76999615 15.36772612 -0.00564742 -0.00209467 -0.00297133
N 18.12555381 10.94732280 16.88752524 -0.00843911 0.00179645 0.00706509
N 16.85237173 18.03478818 12.70747250 0.00430531 0.00204076 -0.00475188
N 14.91430360 15.06728900 19.16186968 -0.00507941 -0.00127573 -0.00575004
N 16.35423751 13.81915941 23.64856471 -0.00145668 -0.00134291 -0.00077289
N 16.88492307 18.46336836 26.11918880 -0.00290732 0.00622899 -0.00353388
N 18.24335293 10.34192607 21.38884265 0.00475108 -0.00147721 -0.00514377
N 16.37065746 13.40080317 19.98192288 -0.00581616 0.00038776 0.00715281
N 14.99378672 15.67215778 23.97851552 0.00570474 0.00217879 0.00552149
N 17.89784913 10.58558338 25.52619812 -0.00040807 0.00205552 -0.00092243
N 17.08681002 18.16692405 21.21445289 -0.00299868 0.00109203 0.00244939
N 15.04856390 24.68470898 1.14049367 -0.00377890 -0.00486043 0.00183553
N 15.83922174 23.10196331 5.39117103 -0.00055086 -0.00160096 0.00212160
N 16.56683891 28.38999514 7.55326661 0.00202211 0.00214408 -0.00516190
N 18.32295961 19.77128622 3.05117560 -0.00275136 -0.00668005 -0.00716512
N 16.32450391 22.75902261 1.28935186 0.00076193 0.00643187 0.00691780
N 14.95796419 25.12638401 6.09055319 0.00034958 -0.00237488 0.00131936
N 17.86176698 20.39684351 7.57201950 -0.00250410 0.00092682 0.00108472
N 16.92263163 27.56479751 2.75508278 0.00575129 -0.00740196 -0.00262738
N 15.13365581 24.90517701 10.08528557 0.00011797 -0.00246044 0.00305628
N 16.40662838 23.29123582 14.89969978 0.00467368 -0.00026444 0.00191516
N 16.87906365 28.39606440 16.60178940 0.00052750 0.00246453 -0.00309540
N 17.85773218 20.11349126 12.47003119 0.00428084 -0.00046825 -0.00171211
N 16.06387607 22.74158306 10.38157753 0.00290965 0.00198095 -0.00309626
N 15.18545654 25.27309618 15.13982137 -0.00309576 0.00301853 -0.00281063
N 17.77857816 20.58892426 16.85755306 0.00651180 -0.00434829 -0.00484637
N 16.96176947 27.44337007 11.59883528 -0.00211723 0.00489007 -0.00156627
N 14.65022074 24.45320843 19.21588523 -0.00562368 -0.00100852 -0.00043072
N 16.12312015 23.51248152 23.79182719 -0.00737126 -0.00304099 0.00048090
N 16.94916413 28.54516642 25.76773437 0.00279873 0.00695449 0.00268769
N 18.21583518 20.09460466 21.57762771 0.00079702 -0.00313586 0.00561116
N 16.28917761 22.87155615 20.01703654 0.00578699 -0.00444387 -0.00460486
N 15.17175345 25.64923373 23.97645401 -0.00087447 0.00184473 0.00895122
N 17.76484304 20.40451244 25.36160526 0.00090351 -0.01151608 0.00066105
N 16.88569555 27.91467159 21.03591540 -0.00236787 -0.00746222 -0.00139973
N 18.49929763 5.42359306 1.33877405 0.00266275 -0.00542119 -0.00326389
N 20.47212226 4.38424657 6.03598376 -0.00573812 -0.00190541 0.00276886
N 20.28471885 9.41774606 7.95698214 0.00169788 0.00259641 0.00185329
N 21.78944048 0.68906455 3.46851099 0.00392107 0.00385684 -0.00550343
N 19.58281823 3.46756370 1.44243399 0.00171448 -0.00011990 -0.00799818
N 19.08343395 6.27521784 6.33306861 -0.00028815 -0.00559671 0.00195831
N 21.59154960 1.07205632 7.58757166 0.00263531 -0.00300516 -0.00008075
N 20.97579486 8.41686503 3.28507303 0.00138306 0.00573144 -0.00249870
N 18.23907973 5.74665206 10.33732479 0.00042021 -0.00452964 0.00609658
N 19.92565380 4.38786548 14.73591660 0.00276731 -0.00110059 0.00072012
N 20.49379003 9.21403716 17.15434830 0.00451004 -0.00016834 0.00523506
N 21.38073848 0.88138778 12.57731065 0.00591409 -0.00740562 -0.00089233
N 19.59039364 3.74935267 10.53362822 0.00331136 0.00146303 -0.00198342
N 18.72845039 6.34497804 14.93155846 -0.00296621 -0.00460234 -0.00376671
N 22.10886808 0.99140608 16.54567219 0.00500605 -0.00050713 -0.00571153
N 20.55620423 8.59801852 12.09290054 0.00635891 -0.00452415 0.00021883
N 18.64696789 5.33591626 19.31923183 -0.00834760 -0.00036113 -0.00430624
N 20.06854215 4.20167851 23.92778193 0.00086581 -0.00063970 -0.00093398
N 20.13715990 8.58454010 26.27204889 0.00207847 0.00605284 -0.00505126
N 21.95490677 0.55538334 21.50304624 0.00132963 0.00058680 -0.00136765
N 20.09134193 3.55385803 19.33790791 -0.00142258 -0.00269645 0.00291351
N 18.85049505 6.07786058 24.15529123 0.00319284 -0.00110464 -0.00517894
N 21.93853517 1.12454561 25.73499096 -0.00325056 0.00015128 0.00077114
N 21.05647280 8.17926072 21.26582593 0.00826162 -0.00471462 -0.00405922
N 18.78429804 15.19110766 0.87835700 0.00442209 -0.00372260 -0.00012938
N 19.24285870 13.66631966 5.70808140 -0.00136555 0.00423000 -0.00540179
N 20.54438184 18.52157224 7.83820375 0.00093751 0.00036219 0.00422564
N 0.00041345 10.36506326 3.25011106 0.00590261 0.00484161 0.00232406
N 19.82628430 13.17496647 1.42997002 0.00211862 0.00389464 0.00416903
N 18.45376096 15.86092263 5.84497013 -0.00657601 -0.00294432 0.00182252
N 21.79422645 11.17044081 7.47706332 -0.00368195 -0.00533061 0.00173277
N 20.96344463 18.01799736 2.90232723 0.00230033 0.00228396 0.00220332
N 18.41665915 15.21298878 10.38047436 -0.00098086 0.00429695 -0.00037303
N 20.04184976 13.90004623 14.66988759 -0.00322721 0.00405346 0.00251008
N 20.77851388 18.55306647 17.20507340 0.00130810 0.00267584 0.00277642
N 21.94925664 10.48294845 12.27215027 0.00213634 0.00397500 -0.00017224
N 20.21220641 13.64224576 10.64769409 -0.00628391 -0.00381149 -0.00135452
N 18.74197090 15.83013837 14.89926007 -0.00245846 0.00317177 0.00307649
N 21.84125881 11.01601739 16.75040406 -0.00071961 0.00625067 -0.00159958
N 20.91710168 18.36660201 12.09335558 0.00003776 0.00744896 -0.00351281
N 18.81541077 15.11783913 19.24653344 -0.00139659 -0.00696421 -0.00938973
N 20.43331432 13.85209734 23.62469640 0.00068180 -0.00303632 -0.00174203
N 20.53931350 18.79709152 26.10582424 0.00355814 -0.00239147 0.00216880
N 22.03649560 10.11148266 21.88159173 0.00152696 0.00044695 -0.00530326
N 19.84483819 13.14343811 19.63754409 0.00114952 -0.00198709 -0.00277666
N 18.82500958 15.55855713 24.13492512 0.00126159 -0.00131136 -0.00305733
N 21.37460733 10.48160925 25.63610966 0.00470757 -0.00088429 0.00460431
N 20.60030318 18.03266737 21.24731376 -0.01031871 0.00032469 0.00019843
N 18.84750659 24.92528133 1.03886665 -0.00012680 -0.00180647 -0.00685129
N 19.82981568 23.39668395 5.72975759 -0.00565153 -0.00447991 -0.00159592
N 19.95041714 28.42892127 7.77778673 -0.00214644 -0.00228601 0.00152786
N 0.07656206 19.91111295 2.96486491 0.00792424 0.00355833 -0.00300545
N 19.91951535 22.93981028 1.28201422 -0.00171608 -0.00418592 -0.00280950
N 18.70585091 25.39395976 5.69396352 0.00125093 -0.00271146 -0.00027120