1728
Time=12000.00000000 pbc="T T T" Lattice="21.89781058 0.00000000 0.00000000 0.00000000 28.72089538 0.00000000 0.00000000 0.00000000 27.55651121" energy=-10392.10851526 virial="37.92239283 2.18372645 -0.51978424 2.18372645 25.14398493 13.07996409 -0.51978424 13.07996409 -8.87781843" stress="0.00448833 0.00004943 0.00004439 0.00004943 0.00402516 0.00089566 0.00004439 0.00089566 0.00230911" Properties=species:S:1:pos:R:3:vel:R:3
N 1.07200794 5.51834047 1.03386953 0.00024105 -0.00140894 0.00196494
N 1.72793995 4.23639312 5.94176602 0.00038915 0.00622925 0.00163115
N 1.97705000 9.06170580 7.71347937 -0.00719567 0.00296239 -0.00088179
N 3.46592365 0.38651099 3.27154340 0.00133723 -0.00520527 0.00248080
N 1.70195103 3.37075014 1.32004341 -0.00211059 0.00580014 -0.00171174
N 0.32490178 6.14024264 6.03842113 0.00689410 -0.00237333 0.00150630
N 3.14928172 1.15843792 7.46636919 0.00255924 0.00760145 0.00718890
N 2.41992550 8.43289775 2.92968909 0.00513980 0.00457169 -0.00118819
N 0.19117453 5.33072950 10.35429069 0.00098715 -0.00069004 -0.00183876
N 1.50774593 4.09279084 14.84558034 0.00275502 0.00150091 -0.00672354
N 2.01915296 8.87772160 17.02310324 0.00295823 -0.00011651 0.00028108
N 3.39395370 0.58481283 12.56356159 -0.00504007 -0.00204865 -0.00220724
N 1.37227379 3.31108216 10.37940744 0.00112269 0.00164073 -0.00038574
N 0.01360958 5.81614189 15.17335978 0.00168207 0.00542899 0.00236134
N 3.53699390 0.91189806 16.87295050 -0.00514465 -0.00288052 -0.00451791
N 2.03699672 8.21462916 12.23063992 0.00338460 -0.00200372 0.00192160
N 0.05128188 5.20567662 19.54080565 0.00139276 0.00537951 0.00556269
N 1.35104028 3.88264086 23.97237132 -0.01139911 0.00579952 0.00846750
N 2.34206347 8.81766760 26.52244105 -0.00214826 -0.00005306 -0.00031932
N 3.48825766 0.78026794 21.77617660 -0.00460374 -0.00027807 -0.00339034
N 1.46661578 3.44877335 19.97834860 -0.00369160 0.00157401 0.00137907
N 0.40619615 5.95499138 24.23911382 -0.00083976 -0.00336195 -0.00242733
N 3.00849334 1.58625826 26.17867941 -0.00164837 -0.00073290 -0.00424092
N 2.13394761 8.34393768 21.26552878 -0.00158606 -0.00135719 0.00587634
N 0.64705587 15.18185522 0.88877261 -0.00664192 -0.00091109 -0.00001032
N 1.78545520 13.77288872 5.69475912 0.00193642 0.00443938 0.00421099
N 1.94273080 18.59334764 8.06064171 -0.00267015 -0.00224195 0.00298900
N 3.35159551 10.50437792 3.28210637 0.00931745 -0.00500832 0.00815226
N 1.60149346 13.25019677 1.53018446 -0.00294342 -0.00298842 -0.00172781
N 0.43045758 15.69217141 5.74137132 0.00356128 0.00048630 -0.00511370
N 3.31563061 10.98330359 7.79766209 -0.00104520 -0.00095838 -0.00065911
N 2.07266154 17.88796550 2.99158119 0.00049680 0.00144819 0.00044856
N 0.31114550 15.07828719 10.23083488 -0.00134793 -0.00389336 0.00226125
N 1.40367859 13.73591183 14.93961806 -0.00938277 -0.00334543 -0.00463364
N 1.92438816 18.30370298 17.17822878 0.00019939 -0.00427860 0.00331889
N 3.34649566 10.02035163 12.46512579 -0.00128333 -0.00020391 0.00510842
N 1.64837751 13.09251094 10.34742570 -0.00022859 -0.00705612 -0.00440630
N 0.12469537 15.57113376 15.32681815 0.00317537 0.00453085 -0.00202640
N 3.35810087 10.82699655 16.78268344 -0.00162548 -0.00132396 -0.00130437
N 2.17139680 17.95963388 12.37301715 0.01091174 -0.00059078 0.00877838
N 0.07623856 15.07363556 19.38762252 -0.00005303 0.00191703 0.00203716
N 1.51791307 13.47458364 23.98310824 -0.00477469 -0.00563660 0.00145414
N 2.35287510 18.19949466 26.26567929 0.00580679 0.00177980 0.00341150
N 3.44870978 10.21981059 21.44208985 -0.00278933 -0.00106161 0.00289443
N 1.43778282 13.17696645 19.75062398 0.00354638 -0.00263583 0.00378406
N 0.38802470 15.44083887 24.26058445 -0.00331780 -0.00182281 0.00022746
N 3.39499378 10.85120550 26.09212984 0.00295166 0.00038856 -0.00115992
N 2.04526884 17.76805243 21.35587522 0.00290542 0.00502829 0.00302741
N 0.21622594 24.36307517 1.13836032 -0.00482845 -0.00486904 -0.00390306
N 1.52391091 23.14454761 5.78661304 -0.00230058 0.00424234 0.00009252
N 1.96161753 28.03985240 7.96761337 0.00238753 -0.00079202 0.00816979
N 3.47135278 19.65707582 3.36941027 -0.00503019 -0.00300143 0.00341898
N 1.52151603 22.45722641 1.52297404 0.00451699 0.00326282 -0.00032493
N 0.16240352 25.03412413 6.26285690 0.00049945 -0.00076108 0.00259712
N 3.33731767 20.43991589 7.76027021 0.00134547 -0.00572642 0.00249224
N 2.14385711 27.18211397 3.34256739 0.00389280 -0.00203031 -0.00066010
N 21.89064913 24.22099870 10.72271068 0.00128989 0.00175774 -0.00131928
N 1.71175996 23.26906503 15.31295562 -0.00107388 -0.00040761 0.00143367
N 2.12064465 27.79276432 17.34813229 0.00176754 -0.00146171 0.00422266
N 3.20098199 20.02045543 12.79910518 0.00163369 0.00112914 0.00173783
N 1.42493423 22.38939832 10.79174513 0.00421914 -0.00327729 0.00888564
N 0.33011052 25.12847769 15.43398179 -0.00953113 -0.00526083 0.00912924
N 2.96852474 20.29939055 16.87059682 0.00161724 0.00087129 -0.00373971
N 2.03378793 27.47654858 12.25983671 0.00057723 0.00047817 0.00334587
N 0.55445368 24.66850324 19.42593698 0.00744136 0.00214413 0.00066584
N 1.52721608 23.27250516 23.88294822 -0.00426747 -0.00016160 -0.00281303
N 2.13804562 28.13561372 26.39243968 -0.00847473 0.00494935 -0.00098346
N 3.38759461 19.62017068 21.70046480 -0.00078319 -0.00162267 0.00317042
N 1.43932755 22.55382439 19.73070043 -0.00317607 0.00187082 0.00498305
N 0.27803747 25.11519981 24.35564161 -0.00114939 0.00295140 -0.00116926
N 3.64307065 20.14446404 26.07364916 -0.00270740 0.00166576 0.00646764
N 2.17084905 27.62023402 21.51643900 -0.00598436 0.00110716 0.00212420
N 3.95557137 5.33555367 1.26673382 0.00164583 0.00580420 0.00032899
N 5.30773884 3.92200216 5.77223392 -0.00369065 0.00113431 -0.00316997
N 5.65383160 8.91643003 7.78907658 0.00466890 0.00247555 -0.00279226
N 7.17613713 0.52341035 3.35308377 -0.00284808 -0.00344640 0.00379099
N 5.29579474 3.52548197 1.64910186 0.00307795 0.00057205 -0.01183394
N 4.08276116 5.98291720 5.89014100 -0.00076941 -0.00220696 -0.00196979
N 7.05248565 1.22460262 7.72371426 -0.00189065 0.00159842 -0.00317534
N 5.93785361 8.30127663 3.52164409 0.00089283 0.00540410 -0.00564688
N 3.90866379 5.49331769 10.28079193 -0.00196238 0.00539390 -0.00152266
N 4.96345037 4.01979235 15.01207857 0.00140292 0.00179912 0.00622156
N 5.60940087 8.98998342 17.36822301 0.00248097 0.00099745 -0.00116629
N 7.22335504 0.61409512 12.41459872 0.00340754 -0.00446511 -0.00661138
N 5.00225896 3.42308758 10.39230359 -0.00106593 -0.00377677 0.00584507
N 4.09901534 6.13116254 15.01805892 0.00188257 -0.00029489 -0.00238993
N 6.94171563 1.33853653 16.79844490 0.00611056 -0.00334944 0.00220039
N 5.61007648 8.35673243 12.34042603 -0.00098671 0.00136465 -0.00050715
N 3.86900497 5.31695371 19.47476559 0.00625445 0.00479046 0.00536265
N 5.26922370 4.14772614 24.18101093 0.00458952 0.00004585 0.00183806
N 5.54902129 9.04310525 26.09973344 0.00015784 -0.00072323 0.00250887
N 7.06591650 0.61730175 21.95370126 0.00313907 0.00059817 0.00115348
N 4.94620558 3.41037097 20.08767959 -0.00309154 0.00117468 -0.00592226
N 4.03637549 6.01403041 24.43870393 0.00129436 0.00001641 -0.00222752
N 7.12041088 1.23399236 26.17740631 0.00305451 0.00239663 -0.00156456
N 5.93442960 8.25192701 21.37282572 -0.00130702 -0.00002326 -0.00272415
N 4.10039115 15.07671255 1.47838642 0.00349486 -0.00102059 -0.00170782
N 5.13780934 13.59700212 5.46025857 0.00203685 0.00084718 -0.00071610
N 5.76632776 18.59238311 8.10188392 -0.00407099 -0.00118548 -0.00018959
N 7.29850158 10.17022997 3.56899290 -0.00477719 -0.00057188 -0.00143784
N 5.48128343 13.24114990 1.23735706 0.00426407 -0.00025535 0.00204219
N 4.09185841 15.52793715 6.19245364 0.00450060 -0.00279415 -0.00154504
N 6.86650053 10.91232121 7.42737508 0.00234169 -0.00232055 -0.00104169
N 5.91113139 18.16268919 3.20873501 -0.00495601 -0.00494792 -0.00546992
N 4.11815018 15.17446014 10.13820949 -0.00306071 0.00155633 -0.00253867
N 5.15980047 13.44340466 14.63276042 -0.00803431 -0.00431395 -0.00328467
N 5.62964955 18.16348954 17.42877688 0.00093265 0.00595918 -0.00198048
N 6.69999201 10.39268860 12.36842966 0.00553820 -0.00105010 0.00405312
N 5.08639895 13.20247421 10.53598242 -0.00012302 -0.00221944 -0.00775092
N 4.45649820 15.54687750 15.22935500 0.00198878 0.00654792 -0.00607254
N 7.07827396 10.74499288 17.09439525 -0.00032488 0.00658522 0.00640136
N 5.67869127 18.25336178 12.45795513 0.00556857 0.00415397 0.00803689
N 3.87221980 14.90323696 19.64254235 -0.00015278 0.00182945 -0.00445485
N 5.19763073 13.39696472 24.31692493 -0.00151146 -0.00340907 -0.00518741
N 5.74988554 18.16408664 26.98789035 0.00201116 0.00131815 -0.00185635
N 7.04129842 10.16879881 21.87277126 0.00172378 0.00419874 -0.00137004
N 5.21834992 13.06334358 20.05013403 -0.00421448 0.00542271 0.00255441
N 4.07241678 15.45488153 24.39764016 0.00525296 0.00370466 -0.00160238
N 6.96113143 10.91642225 26.25724125 0.00038383 0.00208291 0.00157094
N 6.01048860 17.88292885 21.50831411 0.00082894 -0.00528008 -0.00312990
N 3.90778520 24.55493720 1.26678305 -0.00193407 0.00329196 -0.00084219
N 5.41194698 23.33728620 5.74688661 0.00880751 0.00091154 -0.00046196
N 5.71576335 28.04304379 7.87745695 0.00006687 0.00365182 0.00346801
N 7.08238074 20.12429616 3.71089599 0.00434645 -0.00418889 0.00366660
N 5.15000547 22.65083928 1.47566008 0.00139038 0.00147711 -0.00647033
N 4.48469497 25.43865168 6.17008757 0.00309010 0.00396160 0.00700417
N 6.99741494 20.46473067 7.82393471 0.00069577 -0.00122687 -0.00383149
N 5.91966846 27.32522099 3.17849916 0.00103486 0.00037630 0.00539340
N 3.81272024 24.63530992 10.46753507 -0.00593853 -0.00106066 -0.00838741
N 5.27476966 23.32650527 14.91206563 -0.00392291 0.00178214 0.00230210
N 5.86024400 27.99274210 17.23328127 0.00643079 0.00506185 -0.00095818
N 7.03829132 20.10166434 13.09303407 -0.00075368 0.00497898 -0.00299599
N 5.02243806 22.75998810 10.71921682 0.00294620 0.00040787 -0.00038172
N 4.04883955 25.27262392 15.35503023 -0.00715961 0.00020764 0.00588615
N 6.71823833 20.15002352 17.21343363 0.00204823 -0.00015924 0.00296531
N 5.87549477 27.51147107 12.37675162 -0.00312480 -0.00475266 0.00372060
N 3.61484358 24.47019188 19.43490284 -0.00127132 -0.00203556 0.00710223
N 5.01672651 23.24138917 24.22118265 -0.00337416 -0.00182383 0.00064449
N 5.64056991 28.20817691 26.44244300 -0.00352962 -0.00321923 0.00254430
N 6.82875769 19.90479143 21.88099285 0.00086570 -0.00069677 -0.00214028
N 5.03315259 22.76340296 20.04761225 0.00256171 -0.00395215 0.00225900
N 3.76531194 25.12113846 24.53132961 0.00176074 0.00580896 0.00186860
N 6.82065204 19.97986691 26.00948383 -0.00513967 0.00128574 -0.00622389
N 5.81428875 27.46688158 21.46199215 -0.00775278 -0.00403669 -0.00037595
N 7.63161869 5.61485536 1.18190035 0.00184331 -0.00013538 -0.00206572
N 9.02032881 4.25265751 5.74395714 -0.00552568 -0.00258097 -0.00181218
N 9.58728164 8.99022496 8.19662535 -0.00441319 -0.00533472 0.00300173
N 10.84241128 0.53765649 3.48250284 0.00369832 -0.00107931 0.00397950
N 8.84867835 3.69990939 1.54389253 -0.00391725 -0.00137630 0.00692364
N 7.65038621 6.00804736 6.18617243 0.00021582 -0.00248586 0.00723118
N 10.68506090 1.18795295 7.82482730 -0.00461343 0.00369405 -0.00382333
N 9.66743798 8.29836008 3.21978727 -0.00232517 -0.00216639 -0.00063637
N 7.08113202 5.18404961 10.36442149 -0.00027447 -0.00000961 -0.00339183
N 8.71677287 4.07497121 14.90916359 0.00399568 0.00429576 0.00383915
N 9.45941744 8.88565454 17.14420542 0.00152816 -0.00464158 -0.00644549
N 10.76161007 0.87369546 12.37136573 -0.00154389 -0.00006095 -0.00180599
N 8.69083243 3.62862594 10.68828076 -0.00258956 0.00098565 0.00108946
N 7.40761978 5.95963524 15.34027723 -0.00253406 -0.00352202 0.00188476
N 10.71897978 1.00312181 16.91268889 -0.00382856 0.00031538 -0.00443459
N 9.39854383 8.54380144 12.20409188 -0.00341684 0.00311902 -0.00425633
N 7.45538766 5.38411735 19.47422509 -0.00273724 0.00078174 -0.00446941
N 8.93448859 4.45140931 24.02964938 -0.00169488 0.00447168 0.00366600
N 9.36130600 8.82693930 26.37361320 0.00000227 0.00132104 0.00165688
N 10.61600551 0.94011084 21.96173430 0.00022006 0.00643469 -0.00488172
N 8.44197821 3.34800270 19.79495168 0.00214433 0.00046653 -0.00002091
N 7.36033964 6.02194253 24.56875036 -0.00500201 0.00007816 -0.00021747
N 10.67878545 1.57100602 26.54133604 0.00345183 0.00006676 0.00264295
N 9.52538152 8.37628330 21.49935493 -0.00470807 0.00116895 -0.00539878
N 7.96710481 15.21591610 1.13599501 0.00225893 -0.00243252 -0.00006418
N 9.17034443 13.81831469 5.86758086 0.00203568 0.00700728 -0.00155329
N 9.41632335 18.52271133 8.16880325 0.00418684 0.00218734 0.00696819
N 10.74289150 10.34130723 3.52043273 0.00226761 -0.00033283 -0.00153483
N 9.13987845 13.27320701 1.47950347 0.00428502 0.00504022 0.00134150
N 8.01267314 15.74681964 6.12482576 0.00249504 0.00284897 -0.00082282
N 10.61459386 10.99370267 8.01514522 0.00116865 -0.00826317 0.00442936
N 9.46290288 18.01382422 2.98370517 -0.00496027 0.00064115 -0.00015985
N 7.53758769 15.33053079 10.30330428 -0.00963540 -0.00061489 -0.00981203
N 8.78883584 13.66954389 14.99689185 0.00453537 -0.00236647 0.00570337
N 9.63270064 18.37545630 17.30874679 -0.00430478 -0.00044806 0.00196193
N 10.43235291 10.58717355 12.57535557 0.00436738 0.00262744 0.00233740
N 8.65505652 13.36144423 10.40022313 -0.00063737 -0.00430405 -0.00352435
N 7.52427972 15.51863337 15.11991367 -0.00090918 0.00109424 0.00990146
N 10.38784288 10.95431695 17.09386223 0.00227879 0.00506009 0.00529395
N 9.41713019 18.07857753 12.40499127 0.00261752 0.01001348 0.00532062
N 7.44008075 14.96974355 19.68871175 0.00811632 -0.00109527 0.00224614
N 8.92740110 13.96486312 24.13231990 -0.00298000 -0.00341370 0.00161701
N 9.52559849 18.44388227 26.38146538 0.00336394 -0.00014987 0.00063996
N 10.84065825 10.31884116 21.94964806 -0.00074293 -0.00600617 -0.00299917
N 8.74365543 13.12174150 20.08011224 -0.00333253 -0.00165081 0.00172610
N 7.70731042 15.91071857 24.29135850 -0.00353476 0.00830966 0.00276484
N 10.67434334 10.71272982 26.00286759 0.00002559 -0.00586659 0.00299998
N 9.24616312 17.97339227 21.32067646 -0.00129971 -0.00145870 -0.00066001
N 7.71633755 24.42448640 1.16331153 0.00672860 -0.00037864 -0.00125544
N 9.07877997 23.31346727 5.81708403 0.00209714 0.00049689 -0.00623900
N 9.48271305 28.00311843 7.96497300 0.00254715 -0.00123063 -0.00532370
N 10.88734032 19.67199604 3.59271100 0.00375280 0.00031775 -0.00666400
N 9.09901684 22.59710223 1.56190804 -0.00722472 -0.00104345 -0.00564099
N 7.67019933 25.04038247 6.16583919 0.00844998 -0.00507045 0.00143929
N 10.58658700 20.45670431 7.88938962 -0.00815656 -0.00538083 -0.00047432
N 9.44281714 27.35501276 3.24932926 0.00169385 0.00003450 -0.00078027
N 7.70298310 24.71347924 10.66008850 -0.00240459 -0.00182195 0.00385325
N 8.95735090 23.53532567 15.26841352 0.00221224 0.00178173 -0.00829955
N 9.43235685 27.88140628 17.12266523 -0.00486663 0.00185737 -0.00411776
N 10.83347579 19.81875232 12.74288600 -0.00020620 0.00684920 0.00002388
N 8.72380470 22.67903555 10.93183881 -0.00581156 -0.00055197 -0.00263723
N 7.48163444 25.27601909 15.47113553 0.00318486 -0.00222480 -0.00071765
N 10.45870171 20.42814284 16.96436672 0.00562453 -0.00061474 0.00237724
N 9.52687425 27.61192776 12.44234033 -0.00426814 0.00045963 -0.00242695
N 7.52354964 24.77508997 19.52338242 -0.00347754 0.00292912 -0.00399040
N 8.43691004 23.00489013 24.25334818 0.00409612 0.00162255 0.00057470
N 9.43841254 28.33097914 26.66512968 0.00443635 0.00190188 -0.00370623
N 10.65988790 19.72977659 21.85190749 -0.00295002 -0.00301637 -0.00065428
N 8.47749838 22.73326954 19.83401657 -0.00692389 0.00568941 0.00332123
N 7.68794854 25.24767615 24.54256536 -0.00033854 0.00100532 -0.00261005
N 10.76998129 20.39791107 26.15060739 0.00677632 -0.00125759 -0.00308450
N 9.52690627 27.68365428 21.66827551 0.00574048 0.00417364 0.00526638
N 11.26759889 5.43893368 1.31838070 -0.00374996 -0.00361434 0.00206391
N 12.79514430 4.11442485 5.99175552 -0.00689425 -0.00309747 -0.00758240
N 13.08204375 8.93380196 8.03423615 -0.00426405 -0.00212064 0.00392967
N 14.55485764 0.75098464 3.44287482 0.00298920 0.00415052 -0.00104445
N 12.55553362 3.61476889 1.87329987 0.00459378 0.00024520 -0.00004453
N 11.42832663 6.00382978 6.24132914 0.00338894 -0.00450190 -0.00294791
N 14.53672733 1.12741225 7.63523886 0.00496792 0.00508181 0.00242453
N 13.16963978 7.90622264 2.92540637 0.00451595 -0.00491249 0.00455252
N 10.90423697 5.63871847 10.52044667 0.00025319 -0.00083473 0.00750512
N 12.44338144 4.17623830 15.02133156 0.00203433 -0.00115069 -0.00169065
N 12.87151864 8.79527755 16.98964982 -0.00129193 0.00149420 -0.00068114
N 14.05341532 0.80751039 12.61144755 -0.00607973 -0.00540700 -0.00252618
N 12.32721285 3.75151226 10.85759947 0.00094329 -0.00454550 0.00668668
N 10.94464388 5.95579895 15.30019062 0.00391266 0.00388024 -0.00176677
N 14.29985901 1.31479497 16.93372194 -0.00164774 0.00137642 -0.00095745
N 12.81053870 8.71806657 12.03445327 -0.00298345 0.00485335 -0.00097096
N 10.80128539 5.24853912 19.41170301 0.00400066 0.00499007 0.00043332
N 12.55274958 4.12675908 24.22098620 -0.00865172 -0.00097512 0.00662654
N 13.15930960 8.63622752 26.33044006 0.00394179 0.00516422 0.00277889
N 13.86999285 0.80880130 21.84837397 -0.00252936 -0.00720140 0.00179649
N 12.18880708 3.48245887 19.87330115 -0.00192020 -0.00101957 0.00791178
N 11.37680510 6.11723175 24.72717079 -0.00288998 -0.00165955 0.00413764
N 14.43570147 1.15043300 26.19419628 0.00461958 0.00433513 -0.00092022
N 12.85132341 8.29073747 21.38788045 0.00044514 0.00077955 0.00248527
N 11.44871515 15.02804741 1.21806609 -0.00080755 -0.00328830 0.00729686
N 12.53012736 13.74399548 5.82268500 -0.00354298 -0.00471624 0.00133704
N 13.06649606 18.67818873 7.87597071 -0.00145117 -0.00212780 -0.00405640
N 14.41559285 9.85864156 3.39087828 0.00063652 -0.00621922 -0.00454157
N 12.60512148 13.03509685 1.41367902 -0.00046177 -0.00018836 -0.00843284
N 11.64437108 15.90182553 6.15600692 0.00019624 -0.00390669 -0.00715953
N 14.34978208 10.83409021 7.69187398 -0.00247750 -0.00022225 -0.00008363
N 13.33151226 18.10324962 3.17114887 0.00505873 -0.00753753 -0.00075243
N 11.40924160 15.35324313 10.27470882 0.00472351 -0.00045556 -0.00191179
N 12.64785356 13.49125313 15.02830332 0.00042284 0.00152279 -0.00413920
N 12.77004312 18.51400612 16.97312975 -0.00013956 0.00203969 -0.00143393
N 14.35570537 10.30463786 12.46038565 0.00226736 0.00348117 -0.00155020
N 12.36803750 13.30349650 10.60059688 -0.00242282 0.00291638 -0.00237082
N 11.28899169 15.41207553 15.15507613 -0.00263216 -0.00180379 0.00331185
N 14.29709380 10.58166705 16.71326232 0.00217971 0.00018756 -0.00247919
N 12.96944910 17.91699201 12.19041428 0.00267958 -0.00380502 -0.00617401
N 11.12642788 14.84603454 19.83138593 -0.00210557 0.00496495 -0.00505238
N 12.59746535 13.62434798 24.17729863 -0.00080205 0.01020422 -0.00322386
N 13.03730955 18.65204743 26.21732552 0.00623271 0.00347444 -0.00661141
N 14.31455549 10.09081590 21.61721304 0.00558253 0.00153416 -0.00042681
N 12.59995997 13.03407390 19.77279440 0.00399628 0.00377260 0.00342488
N 11.58144168 15.60825049 24.35719785 0.00155386 0.00017703 0.00672108
N 14.33400025 10.70902380 26.11897384 0.00984603 0.00183881 0.00067467
N 13.05492208 17.89527936 21.12403167 -0.00045470 -0.00063324 0.00289397
N 11.35508783 24.50011238 1.14293307 0.00258955 -0.00123915 0.00203641
N 12.43211282 23.39112476 5.97423185 0.00063175 -0.00132841 -0.00042001
N 13.16670684 28.08283311 7.95962575 0.00187791 0.00288452 -0.00065669
N 14.60318087 20.03291687 3.37765585 -0.00136443 -0.00322022 0.00182942
N 12.73506257 22.71558881 1.43693259 0.00237640 0.00114914 0.00120226
N 11.30112471 25.37598946 6.33866744 -0.00116029 0.00335966 -0.00264351
N 14.28102245 20.65624323 7.84405950 -0.00226808 -0.00642935 -0.00707391
N 13.20865548 27.55282540 3.17406202 0.00134809 -0.00641125 0.00154070
N 10.93083645 24.61865799 10.46219968 -0.00243349 0.00526146 0.00257709
N 12.58347227 23.23475410 14.85139245 0.00141496 -0.00340227 -0.01085183
N 13.17548429 28.05654517 17.20921671 0.00010053 -0.00065631 0.00181998
N 14.38697512 19.74551068 12.42330844 0.00125970 -0.00234606 -0.00184711
N 12.37654968 22.79158749 10.86351755 0.00533820 -0.00401053 0.00046355
N 11.35784772 25.23315598 15.21981139 0.00349032 -0.00295529 0.00647702
N 13.93970348 20.43422133 16.69246973 -0.00139098 -0.00246468 -0.00381954
N 13.13698313 27.49469442 12.20566414 -0.00080878 0.00510195 0.00416249
N 11.09773164 24.62751709 19.78101270 0.00334074 0.00113173 -0.00691579
N 12.54254709 23.49410372 24.03930345 -0.00630619 -0.00100305 -0.00194897
N 12.80191871 28.35307047 26.71191982 -0.00435141 -0.00001237 -0.00537264
N 14.42748226 19.66389535 21.64352527 -0.00260185 0.00156354 -0.01101460
N 12.08103990 22.51551652 19.97602697 0.00004307 -0.00524959 0.00099393
N 11.16010741 25.26789591 24.77252376 -0.00229807 0.01383950 -0.00288842
N 14.47872073 20.43035914 25.89517261 0.00431050 -0.00407193 0.00217146
N 12.98609873 27.32005581 21.64718886 -0.00209854 -0.00021317 0.00220969
N 14.91205157 5.47007972 1.32776976 -0.00014840 -0.00722450 -0.00361394
N 16.36885764 3.94727092 6.13903398 0.00524582 -0.00257079 0.00444727
N 16.63196822 8.99895997 8.18313771 0.00245450 -0.00255342 -0.00192268
N 18.05546302 0.97908398 3.58653759 -0.00681069 -0.00127025 -0.00201306
N 16.11947820 3.56275995 1.31968982 0.00143913 -0.00263487 0.00419438
N 15.05245427 5.82474154 6.23016162 -0.00245910 -0.00179282 -0.00607302
N 18.11876758 1.08863152 7.81921846 0.00350554 0.00104225 -0.00368607
N 16.88668687 8.57300839 3.14936453 0.00127162 -0.00247479 -0.00197142
N 14.66087129 5.61711148 10.40831017 0.00241783 0.00062270 0.00039385
N 16.23587501 4.20118211 14.75301610 -0.00189060 0.00257882 -0.00179425
N 16.91615785 8.80205939 16.91950773 0.00315899 -0.00428741 -0.00486859
N 17.96366797 0.43134800 12.79293667 0.00431815 0.00021802 -0.00283822
N 16.09743767 3.68599095 10.61993843 0.00081704 0.00101958 -0.00171801
N 14.79216454 5.94602568 15.29870430 -0.00363763 0.00301786 0.00097399
N 18.09240241 1.15587794 17.06478355 -0.00020401 0.00363981 0.00356586
N 16.65313291 8.59824325 11.99053744 -0.00034907 0.00500394 -0.00050844
N 14.42612157 5.23255584 19.41940036 -0.00272971 0.00553368 -0.00699254
N 16.32260239 4.27420081 23.79600908 -0.00490565 -0.00245595 -0.00506248
N 16.58813593 8.90762907 26.23789900 -0.00130504 0.00256896 -0.00339295
N 17.76665070 0.64645392 21.84497394 0.00473670 -0.00532074 0.00198073
N 15.84935368 3.42079030 19.77854865 -0.00654915 -0.00335328 0.00061136
N 14.82164191 5.87057250 24.34024824 -0.00051385 0.00028089 0.00354262
N 18.09141017 1.53245095 26.16884296 0.00100872 0.00532702 0.00197886
N 16.59654559 8.26516949 21.51803324 0.00237526 0.00222196 0.00023484
N 15.09887739 15.01388835 1.23277097 -0.00137789 -0.00190763 -0.00582059
N 16.18459967 13.85852637 5.77444338 -0.00322387 -0.00186716 -0.00469404
N 16.45697981 18.34802065 8.01670618 0.00040239 -0.00303152 0.00352420
N 18.26686711 10.40940201 3.62175089 -0.00260587 0.00214550 -0.00261666
N 16.29554694 12.98079596 1.48027798 -0.00038312 -0.00370257 -0.00024154
N 15.06560515 15.82651939 6.26718069 0.00086374 0.00495314 0.00247994
N 17.72912720 10.89982562 7.59527077 -0.00191759 -0.00580198 -0.00129280
N 16.86031389 18.01603603 3.37868252 -0.00065947 -0.00623112 -0.00104344
N 14.78630697 15.02426326 10.49698736 0.00735154 0.00011100 -0.00345840
N 15.92858696 13.54663528 14.84548021 -0.00484158 -0.00576297 0.00314123
N 16.21149723 18.44006830 17.39158526 0.00341972 -0.00138039 0.00641175
N 18.02215261 10.44391556 12.43731190 -0.00277162 -0.00124893 0.00100320
N 16.03997738 12.99243356 10.59110944 -0.00257680 0.00188039 -0.00306867
N 14.87334330 15.62271867 14.94755749 0.00139198 0.00364805 0.00076300
N 17.92752942 10.73274710 16.65000597 -0.00486520 0.00655598 0.00618634
N 16.81352830 17.89453541 12.30735034 -0.00501718 0.00386855 0.00018700
N 14.96203591 14.92889691 19.28001691 0.00666695 -0.00202865 -0.00057573
N 16.00093814 13.73981559 23.91987214 -0.00462889 0.00284326 -0.00665848
N 16.91480660 18.64137811 26.61846375 -0.00253606 -0.01303695 -0.00019197
N 17.76320425 10.28139391 21.54583574 -0.00037707 -0.00777270 0.00639574
N 16.14656035 12.98859688 19.69473175 -0.00243025 -0.00186608 0.00106463
N 15.08202762 15.80479753 24.43972817 -0.00662364 0.00640269 -0.00448170
N 17.80629038 10.84962664 25.63260906 0.00185260 0.00069972 -0.00179342
N 16.72342620 17.87421030 21.61869343 0.00166302 -0.00106079 -0.00146467
N 14.86467274 24.82452559 1.13700692 -0.00399237 0.00086345 -0.00229106
N 16.10116143 23.37393166 5.80177263 0.00021657 0.00300436 0.00323427
N 16.80848992 27.92500528 8.29350860 0.00066955 -0.00180330 -0.00017417
N 17.81102085 20.10245525 3.47978602 0.00292435 0.00226858 0.00354810
N 15.99457121 22.74864745 1.17802066 -0.00045815 0.00292528 0.00033924
N 14.81269533 25.31320229 5.94627774 0.00155212 -0.00127159 0.00011929
N 17.55022629 20.29499660 7.80884184 0.00160139 -0.00119428 0.00256042
N 16.88638353 27.71447287 3.20966196 -0.00270946 -0.00483457 0.00267292
N 14.70398513 24.56370302 10.31204646 0.00052463 -0.00009828 -0.00374362
N 16.03199959 23.08823997 14.79287403 0.00366178 -0.00218993 -0.00040115
N 16.89811338 27.87675803 17.35730888 0.00371897 -0.00553679 0.00724174
N 18.14102694 19.77352468 12.67230076 0.00319632 0.00860563 0.00013013
N 15.94224077 22.66633488 10.68024760 -0.00202856 -0.00159841 0.00172853
N 15.10076462 25.22353612 15.22201880 0.00493550 -0.00239190 -0.00021682
N 17.63472361 20.21374637 16.94248001 -0.00673884 -0.00003739 0.00574939
N 17.01685583 27.13147819 12.28615533 0.00214082 -0.00299056 0.00514595
N 14.81197078 24.44343687 19.75543940 -0.00864964 0.00556448 0.00196503
N 16.15283428 23.41969560 24.18179844 -0.00585281 0.00311036 0.00122929
N 16.78637888 28.38723194 26.23488783 0.00734697 0.00237108 -0.00785396
N 17.99455593 19.82975457 21.85218156 0.00162386 0.00254186 0.00125441
N 15.93703629 22.42355652 19.80220603 0.00645457 0.00203957 0.00321203
N 14.87989321 25.29376926 24.65435203 -0.00037464 -0.00318091 -0.00370002
N 17.94450678 20.57299178 25.95937260 -0.00002798 -0.00307941 -0.00050362
N 16.34693168 27.53174293 21.56196133 -0.00213776 -0.00325502 -0.00057891
N 18.56037734 5.59785551 1.24308760 0.00054515 -0.00097604 -0.00438987
N 19.90801594 4.12645915 5.64150111 0.00414748 -0.00043089 0.00547235
N 20.09589794 9.18200385 7.57208252 0.00265794 -0.00266329 0.00466708
N 21.71062488 0.74956174 3.41368752 0.00070284 -0.00489592 0.00265591
N 19.95484856 3.75900975 1.40602252 -0.00781771 -0.00683081 0.00111743
N 18.64856546 6.03875261 5.83248088 -0.00286687 -0.00063773 0.00311158
N 21.41211138 1.28850281 7.67338000 -0.00196267 -0.00415502 0.00169124
N 20.50427843 8.45507713 2.90915897 -0.01071477 0.00829741 -0.00227791
N 18.74019597 5.45361561 10.15572439 0.00426976 0.00400280 -0.00399928
N 19.86836650 3.94704832 14.72748769 0.00563885 -0.00053660 0.00779909
N 20.37939173 8.80753302 17.21984283 0.00143459 -0.00242044 0.00531037
N 21.60315525 0.55504025 12.60809687 0.00175738 -0.00030783 0.00032409
N 19.61219796 3.37763750 10.59808222 0.00310409 0.00206179 0.00065492
N 18.63674764 5.87700707 15.05696376 -0.00041711 -0.00641943 -0.00019176
N 21.78125371 1.28738338 16.83777941 -0.00092523 0.00124799 0.00494658
N 20.26341068 8.43074988 11.89427795 0.00096600 -0.00149661 -0.00335516
N 18.22429064 5.10007480 19.58257499 0.00157333 0.00399839 -0.00357986
N 19.99105430 4.27735668 23.94772013 0.00087145 0.00218502 0.00566432
N 20.44440923 8.80553506 26.22177770 -0.00309384 -0.00108197 0.00129347
N 21.50729302 0.53393476 21.89873453 -0.00400470 0.00055358 -0.00222115
N 19.73238380 3.31315366 19.82608492 -0.00140140 -0.00078676 -0.00311914
N 18.60893116 6.11713149 24.30790612 -0.00612355 0.00071574 -0.00409081
N 21.64704877 1.01619931 25.84268646 0.00166291 0.00157292 -0.00039981
N 20.33714717 8.29397936 21.26070044 -0.00439215 -0.00571155 0.00459777
N 18.57914185 15.07185128 0.80355778 0.00270254 0.00351985 0.00543074
N 19.95366617 13.86367932 5.67163976 -0.00281129 -0.00275989 -0.00528206
N 20.41309479 18.53813266 8.00353761 -0.00805973 -0.00098471 -0.01055596
N 0.14835624 10.21910090 3.21153788 0.00000429 -0.00488127 -0.00678599
N 19.71937100 13.23106027 1.44183541 -0.00327132 0.00405949 -0.00438590
N 18.68493350 15.73149026 5.99035683 0.00109673 0.00719252 0.00173183
N 21.43627972 11.14751421 7.41329294 0.00283975 0.00370733 0.00064382
N 20.47017409 17.82630098 2.87946649 -0.00463848 0.00259383 -0.00116474
N 18.42834779 14.99095692 10.49546918 0.00695974 0.00041763 0.00279080
N 19.79986842 13.69712423 15.04601774 -0.00563923 -0.00060387 -0.00303290
N 20.32850187 18.24679650 17.13704346 -0.00018622 -0.00591760 -0.00464998
N 21.62189436 10.21512298 12.35922665 0.00077162 0.00339696 0.01058975
N 20.01430208 13.21385308 10.73985073 0.00211381 0.00155795 -0.00107178
N 18.47321241 15.53248357 15.30086637 -0.00596460 -0.00272650 -0.00394786
N 21.32340039 10.85599908 16.64225366 0.00279766 -0.00101394 -0.00118931
N 20.55350948 17.77746853 12.17941653 -0.00322382 -0.00249789 -0.01182679
N 18.67444422 15.12260756 19.65704322 0.00128911 0.00611962 0.00379355
N 19.96486863 13.50806453 23.95279867 0.00246044 0.00157578 0.00188995
N 20.22528728 18.54905258 26.21456989 -0.00170621 -0.00013365 -0.00201805
N 21.65436608 10.13248165 21.69226929 -0.00292271 0.00987400 -0.00635273
N 19.62661485 13.05339111 19.75771945 0.00183518 0.00487164 0.00403707
N 18.51509656 15.25862451 24.54734760 0.00133150 0.00243650 0.00269959
N 21.48381697 10.87489702 25.78062687 0.00068940 -0.00120582 -0.00232735
N 20.58605176 17.84282343 21.82758924 0.00082200 -0.00486341 -0.00569398
N 18.44869574 24.81089643 1.26313051 -0.00420483 0.00610236 0.00164099
N 19.59756581 23.20767873 5.64960051 -0.00043145 0.00253728 -0.00298966
N 20.35038727 28.01469835 8.22663443 0.00065947 -0.00409186 0.00142853
N 21.44409465 19.80032235 3.41653710 -0.00515000 0.00296037 -0.00478096
N 19.51725782 22.66967988 1.50212256 -0.00161928 0.00533570 0.00269034
N 18.64258958 25.34655200 5.93207863 0.00153492 -0.00093902 -0.00099613