1728
Time=82000.00000008 pbc="T T T" Lattice="22.08291594 0.00000000 0.00000000 0.00000000 28.79784459 0.00000000 0.00000000 0.00000000 27.64403791" energy=-10389.79844892 virial="3.70967179 4.58188705 -0.18321779 4.58188705 6.51284001 38.64133502 -0.18321779 38.64133502 -28.25980682" stress="0.00244383 0.00024465 0.00000895 0.00024465 0.00289591 0.00207655 0.00000895 0.00207655 0.00111307" Properties=species:S:1:pos:R:3:vel:R:3
N 0.04455153 5.50856511 1.21407891 0.00228412 -0.00337022 -0.00371758
N 1.72192687 4.11070905 6.10213455 0.00475348 0.00781050 0.00214905
N 2.08955735 8.93623751 8.26393153 0.00222418 -0.00233757 -0.00253431
N 3.90322752 0.72649876 3.41377843 0.00119321 0.00050701 0.00192199
N 1.42526102 3.74142479 1.54503752 0.00208075 -0.00447128 0.00597250
N 0.59280264 6.14426190 6.43598071 -0.00692154 0.00748430 0.00119342
N 3.43371029 0.89197467 7.95405602 0.00216227 0.00083151 -0.00723219
N 2.21380018 8.52124991 3.32009767 -0.00093567 -0.00356093 0.00393954
N 0.37088224 5.32256689 10.71637343 -0.00636231 0.00215477 -0.00048105
N 1.86607681 3.80665583 15.13230408 -0.00517720 -0.00179911 -0.00278642
N 2.12438794 8.65598662 17.29266829 -0.00144770 -0.00001715 0.00182248
N 3.29010159 0.70948259 12.55235844 -0.00092471 -0.00211743 -0.00286540
N 1.59588254 3.38043680 10.57290525 -0.00275851 0.00047529 0.00884720
N 0.38688282 5.61226125 15.27400668 -0.00434780 0.00406333 -0.01143959
N 3.20912041 1.17834588 16.91677187 -0.00146401 -0.00125811 -0.00543502
N 2.19259324 8.47650234 12.59418364 -0.00157132 -0.00556552 -0.00368644
N 0.13187957 5.30298570 19.58826389 0.00077799 0.00843797 -0.00353797
N 1.77441399 4.23949402 24.16977668 0.00061049 -0.00409176 0.00704659
N 2.33055171 9.09634312 26.16809427 0.00244827 0.00253587 -0.00582521
N 3.21909003 0.69822442 21.66482623 0.00301380 -0.00241063 -0.00373159
N 1.52657875 3.47146002 19.99927217 0.00006085 0.00105728 -0.00388092
N 0.53877899 6.15279683 24.35073774 0.00528969 -0.00295369 -0.00043183
N 3.16135092 1.70652438 26.04551344 -0.00103787 -0.00187098 -0.00391581
N 2.11824040 8.38981300 21.55288082 0.00327455 -0.00132989 0.00893891
N 0.48553967 14.99897150 1.42010183 -0.00643324 0.00384352 -0.00498185
N 1.60286934 13.36673285 6.09612256 0.00559810 0.00191162 -0.01185143
N 2.23671369 18.31440638 7.83100417 -0.00500286 -0.00183511 0.00362498
N 3.58205114 10.30584541 3.45427156 -0.00018290 -0.00224758 0.00220306
N 1.50141026 12.89356571 1.60083703 0.00505940 -0.00171766 0.00077300
N 0.61617900 15.54735334 6.30880209 -0.00180995 -0.00018701 0.00799658
N 3.50363953 10.85046695 7.95723169 0.00149681 0.00465195 0.00194017
N 2.60802157 17.69229357 2.85531472 0.00629572 0.00480409 0.00248276
N 0.22235991 15.00559194 10.60741000 -0.00366450 -0.00049981 0.00071937
N 1.41510870 13.77502331 15.16142231 0.00729481 0.00496603 -0.00351767
N 1.90767642 18.70942296 17.12334854 -0.00636151 0.00285415 -0.00305899
N 3.35823937 10.43182759 12.93115659 0.00637245 -0.00075220 -0.00471846
N 1.45480197 13.05985508 10.94706681 0.00539174 0.00351826 -0.00360912
N 0.43679104 15.78266516 15.36687237 0.00119336 -0.00494830 0.00737002
N 3.44222832 10.58288033 17.16161026 0.00066893 -0.00285903 -0.00227883
N 2.06995392 17.75110109 12.39833837 0.00098323 0.00040239 0.00169595
N 0.26833425 15.03980300 20.09571621 0.00230599 -0.00232999 -0.00066829
N 1.81314950 14.05263822 24.80248433 -0.00455672 -0.00484346 -0.00447689
N 2.17050549 18.64848411 26.39031695 0.00234131 -0.00434564 -0.00056444
N 3.60628528 10.17828293 21.60261929 -0.00444877 -0.00499844 -0.00529764
N 1.47144844 13.02129321 20.25089240 0.00189509 -0.00115580 -0.00818721
N 0.25932818 15.80139646 24.69912393 0.00720298 -0.00859517 -0.00536040
N 3.28462623 11.23473705 26.09280232 0.00366273 0.00336869 0.00554647
N 2.39836544 18.03733399 21.44667489 0.00073312 0.00341150 -0.00410630
N 0.69898413 24.57257533 0.92543317 -0.00231969 0.00202513 0.00430092
N 1.68586891 23.20393857 5.68340039 -0.00735512 0.00150844 -0.00347938
N 1.95393863 27.86534040 8.00430446 -0.00381237 -0.00114997 0.00195341
N 3.47977945 19.84981994 3.32959172 -0.00625847 -0.00557182 -0.00684637
N 1.55417730 22.43544188 1.25962279 0.00099376 -0.00099265 0.00109272
N 0.38219840 25.06208936 5.92828242 -0.00496061 0.00055505 -0.00104100
N 3.19166920 20.37428100 7.73971650 0.00188557 -0.00915865 0.00045310
N 2.45003752 27.68560019 3.22979804 0.00088345 0.00181363 0.00465511
N 0.20213071 24.67062484 10.01139318 -0.00916067 0.00787202 0.00198233
N 1.47977173 23.60922798 14.68293072 -0.00050029 0.00247465 0.00961753
N 1.92384170 28.07190847 16.96385061 -0.00148611 0.00261253 -0.00296327
N 3.33128733 19.67714704 12.68020797 0.00156623 0.00544572 -0.01035448
N 1.33927581 22.71699503 10.70317200 0.00088173 -0.00038843 -0.00266662
N 0.31864992 25.50456489 14.81168605 0.00111592 0.00783954 0.00510521
N 3.21036356 20.63253275 16.75779923 -0.00250941 -0.00398472 -0.00072521
N 2.06915911 27.70015230 11.90164220 0.00366953 -0.00062416 -0.00434226
N 0.34483172 24.69457110 19.42678096 0.01327365 0.00174706 0.00232887
N 1.44329745 23.26876730 24.00005196 0.00118527 -0.00028050 0.00343479
N 2.10029095 28.45652518 26.42104923 -0.00236886 -0.00035890 0.00090745
N 3.43660597 19.99364633 21.79638132 -0.00184611 0.00222465 0.00272964
N 1.60213270 22.81483399 19.81433813 -0.00455881 0.00205638 0.00259229
N 1.00962712 25.47988048 24.39056825 0.00286691 -0.01004224 -0.00109847
N 3.49861946 20.46198140 25.89374002 -0.00223445 -0.00585485 0.00560085
N 2.40965537 27.41666211 21.54827229 0.00453003 -0.00205446 -0.00459328
N 3.90868649 5.68593941 1.25527386 0.00579545 -0.00460753 0.00567919
N 5.25464892 4.24904801 5.92138668 -0.00115964 0.00058843 0.00690089
N 5.77725249 9.00159229 8.37097772 0.00264655 0.00041046 -0.01089857
N 7.15140211 0.85296435 3.38860099 0.00307566 0.00432996 0.00794018
N 4.91496877 3.63947926 1.44812132 0.00192057 0.00048738 0.00025780
N 4.06289785 6.17957707 6.21302906 -0.00284995 -0.00087861 -0.00499463
N 6.79847549 1.16862462 7.67710303 0.00812286 -0.00056639 -0.00248258
N 5.82745622 8.27265992 3.27723580 -0.00236892 -0.00131869 -0.00149853
N 3.61828322 5.70000460 10.70078136 -0.00110957 -0.00320690 -0.00728313
N 5.26571603 4.04667969 15.11079076 -0.00090070 0.00077387 0.00003807
N 5.76596360 8.99710606 17.52995435 -0.00004408 0.00111843 -0.00427565
N 6.78044878 0.72023552 12.81634043 -0.00146655 0.00977124 0.00184839
N 4.98312831 3.88993961 10.82750483 0.00411049 -0.00740643 0.00369419
N 3.92259221 5.87080356 15.57621767 -0.00001069 -0.00060488 0.00361997
N 7.18730927 1.21227826 16.92187521 0.00143515 -0.00441903 -0.00636556
N 5.75795725 8.12621135 12.59291848 0.00264109 -0.00125059 -0.00481149
N 4.19939687 5.40455398 19.47682791 0.00397568 -0.00073589 0.00685713
N 5.19941114 4.25041307 24.19950813 -0.00199206 -0.00209281 0.00294709
N 6.00075795 8.98755495 26.68941923 -0.00018491 0.00962703 -0.00613284
N 7.02756896 0.89039285 21.92003846 -0.00037901 0.00241960 0.00367805
N 5.19550045 3.33748559 19.92054513 -0.00206766 0.00118984 -0.00507778
N 4.00261196 6.26121310 24.59294653 0.00198472 -0.00125255 -0.00756934
N 7.03624153 1.42264478 26.22572436 0.00031681 -0.00770191 0.00405259
N 6.31920770 8.34804954 21.65997476 0.00283742 -0.00321816 -0.00000888
N 3.88601938 14.75496692 1.35660181 -0.00196167 -0.00247035 -0.00404041
N 5.62187347 13.58780305 5.59670922 0.00875072 0.00478862 0.00537103
N 5.75189254 18.64133339 8.41696418 0.00196944 0.00276277 0.00038368
N 6.75221606 10.24445606 4.00961128 0.00242631 0.00031569 0.00053175
N 5.21223133 12.93854221 1.55488890 -0.00369733 -0.00794787 -0.00307281
N 4.31470253 15.43896445 5.79947745 -0.00002114 0.00470318 0.00129786
N 7.09577703 10.89581422 8.03125006 -0.00074501 0.00061017 -0.00005767
N 5.79395838 18.22390186 3.25349800 -0.00197243 0.00067343 0.00166443
N 3.82696001 15.26127736 10.51085997 0.00568099 -0.00614910 0.00253119
N 5.44630855 13.82644553 15.04156871 -0.00199145 -0.00207161 0.00118661
N 5.48610558 18.55304865 17.39786994 -0.00279441 -0.00231132 -0.00298271
N 6.51902047 10.28224975 13.02284584 0.00339141 0.00596044 -0.00421613
N 5.00274576 13.28072344 11.03428789 0.00059341 -0.00419082 0.00351503
N 4.06581464 15.64698020 15.11356221 0.00172544 -0.00272951 0.00158479
N 6.90944375 11.01616740 17.03800142 -0.00099655 -0.00582765 -0.00084681
N 5.87886186 18.15685215 12.50542142 0.00486379 -0.00317423 0.00044912
N 4.08669703 15.03315619 19.68141524 -0.00832770 0.00285553 0.00302498
N 5.40324576 13.63153278 24.20442231 -0.00801589 0.00252254 0.00403729
N 6.06756580 18.68791393 26.59176023 0.00321217 0.00292225 -0.00858486
N 7.13581298 10.48449771 22.09339494 -0.00591108 -0.00253281 -0.00053932
N 5.28551970 13.00950616 19.91408019 0.00052388 0.00325446 0.00392308
N 4.38336144 15.66004390 24.69725603 0.00138667 0.00437423 -0.00075638
N 7.23146861 10.93741301 26.50719737 -0.00362500 -0.00036458 0.00049843
N 5.77541892 18.25734924 21.65607491 0.00596580 0.00015757 0.00258361
N 4.35340857 24.82679557 1.07439497 -0.00065015 -0.00434282 -0.00583658
N 5.44463113 23.17313728 5.76553478 -0.00353626 0.00405933 0.00413645
N 5.96150327 28.00091218 8.41869648 -0.00348474 0.00350200 -0.00075841
N 7.35506948 19.82095817 3.62174297 -0.00219050 -0.00621930 0.00143079
N 5.56860751 22.86877227 1.47822982 0.00077630 0.00606754 0.00390700
N 4.06244500 25.05761674 5.89160314 -0.00218069 0.00166044 -0.00593058
N 6.93477475 20.51056906 7.91370226 0.00392720 0.00084638 0.00986707
N 6.12730057 27.58986925 3.10635765 0.00406543 0.00009321 -0.00273665
N 3.81177892 24.72753140 10.42016829 0.00309093 -0.00667338 0.00213429
N 5.07675293 23.26761860 15.02268337 0.00575865 -0.00541663 0.00367870
N 5.50827571 28.22343345 17.25084571 0.00139826 0.00399674 0.00321430
N 7.11152996 20.07140161 13.02711636 0.00406376 0.00329285 0.00515305
N 5.16218374 22.78459681 10.87858521 0.00144674 -0.00499285 -0.00145631
N 3.86984138 25.22630449 15.35260576 0.00118839 0.00707612 0.00281433
N 6.64610827 20.53172906 17.04476158 -0.00271845 -0.00314740 0.00393948
N 6.05173942 27.26813484 12.34425364 -0.00434726 -0.00324459 0.00361843
N 4.01242183 25.03852224 19.40283232 0.00368101 -0.00156411 -0.00515489
N 5.32300543 23.37791441 24.08550461 -0.00040003 -0.00551421 0.00549740
N 5.94947666 28.26462501 26.42970074 -0.00099454 -0.00269260 0.00095688
N 7.16080228 20.02254906 21.84454599 0.00062258 -0.00116913 -0.00132558
N 5.07547937 23.04785827 19.82490535 0.00234892 -0.00048502 -0.00088437
N 3.88264840 25.12205086 24.62353443 -0.00394269 0.00112246 -0.00202941
N 7.19987712 20.68681017 26.35044663 0.00511081 0.00082013 -0.00438448
N 6.05708372 27.65267933 21.45404071 -0.00109900 -0.00271127 0.00588840
N 7.40318409 5.33846182 1.12313317 0.00785611 -0.00632833 -0.00297907
N 8.74164362 3.83797565 5.84945649 0.00239662 -0.00476033 0.00472113
N 9.33253470 8.95084760 8.13068862 -0.00279746 0.00168151 -0.00635275
N 10.91166886 0.76385128 3.34310913 0.00602259 -0.00241512 -0.00092897
N 8.63320878 3.42340200 1.38649037 -0.00496787 0.00116865 -0.00431542
N 7.74577057 5.97873654 6.04172181 -0.00109683 -0.00170451 0.00257587
N 10.56026716 1.24142414 7.48292651 0.00035427 0.00206558 0.00207492
N 9.31072720 8.21803438 3.03887929 -0.00435143 -0.00574624 0.00243411
N 7.58045619 5.32586238 10.34803446 -0.00314545 0.00417325 -0.00019054
N 9.17353345 4.22974669 14.91121308 0.00151607 -0.00256304 0.00245587
N 9.59442624 8.84151767 17.39438277 0.00434958 0.00115304 0.00116834
N 10.68659430 0.64962337 12.73709249 -0.00086798 0.00297937 -0.00156239
N 8.76585306 3.24799678 10.47857421 0.00111493 0.00309826 -0.00066405
N 7.67818771 5.92039527 15.39564175 0.00635215 -0.00015765 -0.00164111
N 10.45981180 1.15474064 16.85005272 -0.00201069 0.00328830 0.00337889
N 9.41089894 8.34681738 12.61994282 -0.00540628 0.00147472 -0.00314246
N 7.60320658 5.46136025 19.36581951 -0.00431518 0.00173686 0.00364461
N 9.16963460 4.22254896 24.06341542 -0.00832650 0.00352033 0.00229722
N 9.63686804 8.82478184 26.66473714 -0.00379484 0.00213882 -0.00110353
N 10.85941426 0.95316313 21.84877479 0.00145143 -0.00091311 -0.00224276
N 8.80551200 3.51906548 19.89956315 -0.00096547 0.00130466 0.00177909
N 7.78865011 6.01723101 24.25021829 -0.00400766 0.00576526 0.00227448
N 10.49555373 1.23177748 26.11966629 0.00349642 0.00047214 0.00376488
N 9.73698152 8.58031802 21.94173511 0.00514643 -0.00223276 -0.00022530
N 7.67309712 15.35194050 1.29971690 0.00278225 -0.00346935 -0.00274040
N 8.62669065 13.63456329 5.79016409 0.00791132 -0.00022879 0.00427660
N 9.80297751 18.27878962 7.93220681 -0.00066133 -0.00018803 0.00304691
N 10.42391723 10.24933851 3.54698863 -0.00296576 -0.00326483 0.00410317
N 8.50807075 13.30427101 2.11151782 0.00567751 0.00191619 0.01075668
N 7.55739115 15.65295240 6.03537481 -0.00091078 -0.00568176 0.00605473
N 10.51588619 10.78772086 7.47494635 -0.00313421 -0.00664138 -0.00462697
N 9.59779293 18.11898059 3.10238422 0.00912921 0.00073734 0.00024906
N 7.82079035 15.24842481 10.45165288 0.00148700 0.00066702 -0.00436807
N 8.94466117 13.83186616 14.91287296 -0.00100744 -0.00893043 0.00097446
N 9.17074194 18.70992030 16.91875269 0.00426825 0.00267941 0.00461346
N 10.72345461 10.30073338 12.63588794 0.00565442 0.00533953 -0.00206251
N 8.91378035 13.13792270 10.43318651 -0.00243880 -0.00011232 0.00519267
N 7.72958195 15.77306201 15.21562549 -0.00011226 0.00074676 -0.00347249
N 10.36861403 11.09168810 17.05966692 0.00064143 0.00325726 -0.00353705
N 9.61952296 17.84531653 12.49230776 0.00279376 -0.00233091 -0.00414634
N 7.93600119 15.17963157 19.72373167 -0.00232496 0.00497516 -0.00514963
N 8.89477347 13.64673092 24.40055956 -0.00601598 0.00145896 0.00494630
N 9.41718307 18.72856756 26.34410238 -0.00008173 -0.00133536 0.00170066
N 10.95523754 10.42383244 22.26233353 -0.00704275 0.00045665 -0.00001083
N 8.96526078 13.07995361 20.08922074 -0.00238208 -0.00326361 0.00343512
N 7.72296804 15.65415129 24.56558792 -0.00764545 -0.00658951 -0.00434668
N 10.71094738 10.77799065 26.23038180 0.00518347 0.00085027 -0.00373503
N 9.69647759 18.35560592 21.29392747 -0.00317342 -0.00113371 0.00454822
N 7.75843563 24.89701916 1.45158668 -0.00699451 -0.00065578 -0.00655132
N 9.16744387 23.56947057 5.80847606 0.00330638 -0.00795488 -0.00260984
N 9.64062629 27.98868922 7.96544055 -0.00540447 0.00418551 -0.00001713
N 10.58618813 20.09442109 3.44034215 0.00947498 -0.00070579 0.00468575
N 8.93976692 22.96842158 1.50922784 -0.00329224 -0.00172694 -0.00685499
N 7.72690743 25.46369870 6.04649872 -0.00332864 -0.00439908 -0.00438269
N 10.63254854 20.42738192 7.48165120 0.00118530 -0.00471214 0.00600220
N 9.63968414 27.60539036 3.17720967 0.00279057 0.00919813 -0.00378892
N 7.50230614 24.70714145 10.32949319 0.00407017 0.00075796 -0.00242482
N 8.89229612 23.48671629 15.45360741 0.00077625 -0.00428758 0.00351990
N 9.41786151 28.03425174 17.38546619 0.00210656 -0.00084445 0.00066174
N 10.69607605 19.88626885 12.35422602 0.00087441 0.00279310 0.00082224
N 8.57492791 22.66276139 10.37043727 -0.00670339 0.00487994 0.00412386
N 7.47232879 25.21413063 15.43818855 -0.00416416 -0.00105477 0.00241050
N 10.59404509 20.51408737 16.88385967 -0.00857491 0.00370123 -0.00175714
N 9.22937409 27.69024040 12.35795846 -0.00236418 0.00441186 -0.00302044
N 7.60388735 24.82833148 19.77125162 -0.00211955 0.00490923 0.00413124
N 9.25489970 23.28372860 24.15827141 0.00233844 -0.00538068 0.00087084
N 9.58184335 27.91557695 26.40008221 -0.00292389 0.00239098 -0.00262492
N 11.15294665 19.96791765 21.89722383 0.00032376 0.00575796 -0.00239724
N 8.86577883 22.81343441 19.92784096 0.00722288 -0.00298981 -0.00511085
N 7.86436411 25.17216245 24.58896304 -0.00140620 0.00826988 -0.00663771
N 11.05595476 20.45786832 25.91263867 -0.00151086 -0.00196044 0.00016423
N 9.89426026 27.67136292 21.56692448 0.00155689 0.00400510 -0.00620909
N 11.11854525 5.35246609 1.51639168 0.00110256 -0.00170330 -0.00252936
N 12.65884446 4.37215273 6.14246126 -0.00291468 0.00433542 -0.00110675
N 13.18187611 8.57837333 7.97600098 -0.01149608 0.00401475 -0.00509147
N 14.33515242 0.71298040 3.20139245 0.00033115 -0.00379942 0.01230089
N 12.72209516 3.67196399 1.64216618 -0.00212311 -0.00418600 -0.00571556
N 11.27278306 6.23734384 6.05082842 -0.00141091 -0.00309077 0.00805188
N 14.31177256 1.35591563 7.41705998 -0.00175357 0.00011618 0.00579164
N 12.60355814 8.60387113 3.14170770 -0.00278442 -0.00320333 0.00057589
N 11.39303800 5.63300561 10.26649028 -0.00274877 -0.00714543 -0.00097509
N 12.55008361 4.10091442 14.91073754 0.00046651 -0.00037132 0.00538841
N 13.04637191 8.80077409 17.18713979 -0.00314838 0.00163094 -0.00481478
N 14.32890900 0.67453152 12.41881745 -0.00046569 0.00021530 0.00125793
N 12.32760791 3.58883009 10.67482607 0.00188105 -0.00058076 0.00091471
N 11.55072088 6.16227061 15.28612079 -0.00020714 0.00030974 -0.00060865
N 14.32293031 1.54144387 16.58996013 0.00093951 -0.00482931 -0.00254799
N 13.14449944 8.46223862 12.36716706 0.00656716 0.00586812 -0.00126838
N 11.29489995 5.37219810 20.04427234 0.00666480 0.00092294 -0.00533609
N 12.80614020 4.08578199 24.67032717 -0.00700904 0.00669414 -0.00346853
N 13.18990256 9.25344130 26.59375384 0.00582176 0.00472495 0.00259694
N 14.32716509 0.95375933 21.85764757 -0.00781604 0.00619970 0.00187522
N 12.44462137 3.42110114 19.75819948 0.00602000 0.00086820 0.00135173
N 11.56637344 6.09586595 24.78233852 -0.00059473 -0.00200600 -0.00110677
N 14.36969739 1.06114809 25.97227961 0.00206364 -0.00232312 -0.00503920
N 13.29218231 8.10658321 21.73346398 0.00061827 0.00512969 0.00031913
N 11.50700307 15.28259713 1.40512955 -0.00121728 0.00310645 -0.00135371
N 12.79849017 13.78349226 5.75827690 0.00502920 -0.00053906 -0.00417386
N 13.14512942 18.52868936 8.17922218 -0.00765851 -0.00062164 -0.00568926
N 14.31802134 10.11553841 3.35943538 0.00678684 0.00002363 0.00707999
N 12.57407173 13.21943548 1.59391528 -0.00402038 0.00397559 0.00252111
N 11.49325784 15.64500287 6.28182539 -0.00412536 0.00086794 0.00223420
N 14.19955434 10.68345411 8.05355492 -0.00313403 0.00081586 -0.00475838
N 13.27058515 17.92560971 3.34506118 0.00089271 -0.00204014 -0.00468082
N 11.17067385 15.10662739 10.56089093 -0.00156116 -0.00037182 0.00212584
N 12.54561564 13.88162113 15.11549047 -0.00065459 0.00151713 0.00458191
N 12.97242254 18.54915375 17.35580336 0.00661606 0.00375648 0.00038805
N 14.61838936 10.14805780 12.63939977 0.00058864 0.00426603 0.00906016
N 12.36946754 13.11288508 10.92512627 0.00219789 -0.00109789 0.00301158
N 11.14475439 15.80889491 15.29441283 -0.00503761 -0.00252441 -0.00550662
N 14.40946791 10.69346192 17.13621806 -0.00075902 -0.00058813 -0.00436684
N 13.34231590 18.25972475 12.18836692 -0.00468114 0.00119569 0.00179213
N 11.05191231 14.98343680 19.78738010 -0.00378538 0.00092419 -0.00482136
N 12.52424787 13.84859112 24.39921866 0.00013731 -0.00017456 0.00070034
N 13.04480780 18.63279321 26.94101053 -0.00118622 -0.00019588 0.00722050
N 14.45866582 10.05019926 21.93685356 0.00371635 -0.00107479 0.00632969
N 12.55136445 13.23770744 20.19502491 -0.00523419 0.00521034 -0.00284014
N 11.32906963 15.75586340 24.55878355 -0.00061368 0.00900458 -0.00357221
N 14.42389456 11.07505531 25.97487170 -0.00824846 0.00545840 0.00614439
N 13.27236328 17.92380931 21.48840761 -0.00228921 0.00454448 -0.00292498
N 11.19852590 24.63592644 1.17584677 0.00103751 0.00226097 -0.00812639
N 12.60588449 23.24302788 5.82880715 0.00199190 0.00165007 0.00632194
N 13.12818569 28.20141194 7.81936001 -0.00592420 -0.00504227 -0.00113587
N 14.22727157 20.02906100 3.50929309 -0.00505110 0.00703487 -0.00149882
N 12.36656356 22.68915145 1.31623452 0.00097983 -0.00054838 -0.00202113
N 11.45205712 25.25946835 6.04126554 -0.00817516 0.00342464 -0.00124394
N 14.11976946 20.56728551 7.63453083 0.00453710 0.00463471 -0.00454702
N 13.14220923 27.65144742 3.01525765 0.00214413 0.01031698 -0.00025867
N 10.91295348 24.65928493 10.48931213 0.00504963 -0.00309798 0.00174665
N 12.20450378 23.40802003 15.10412242 -0.00629880 0.00260934 0.00766065
N 13.43146535 28.24686298 16.96717241 0.01043704 -0.00333801 0.00581808
N 14.61534955 20.12158047 12.73570054 -0.00610499 0.00028867 -0.00393294
N 12.33064793 22.86298774 10.81012964 -0.00112591 -0.00555046 0.00184046
N 11.27406150 25.50466686 15.34236706 0.00584664 -0.00049609 -0.00229846
N 14.15167145 20.47490380 17.05741301 -0.00141750 0.00156456 0.00115026
N 12.89523165 27.66777781 12.09676797 -0.00524208 0.00346133 -0.00296653
N 11.57260352 24.75528430 19.66779867 0.00663383 0.00023686 -0.00067358
N 12.91239606 23.36461683 24.08908556 -0.00475670 -0.00089491 -0.00173627
N 12.81507188 28.20747568 26.71149016 0.00294947 -0.00138810 -0.00500101
N 14.59062404 19.76433034 21.88891384 -0.00184858 0.00080001 -0.00259586
N 12.83509958 22.82944708 20.07491637 -0.00070504 -0.00159736 0.00251445
N 11.67206610 25.23914401 24.57753288 0.00757992 0.01170400 -0.00703715
N 14.11222593 20.41345225 26.03840458 -0.00504073 -0.00598286 -0.00363637
N 13.52044554 27.57747951 21.44974727 -0.00021815 -0.00355114 -0.00351098
N 15.00553191 5.43879169 0.94834788 -0.00015408 -0.00258054 0.00167846
N 16.10134861 4.16507595 5.53985176 -0.00068933 0.00208475 0.00075267
N 17.10561409 8.86662624 7.95527986 0.00284636 -0.00383296 0.00251102
N 18.09185133 0.28483905 4.11565185 -0.00114937 0.00771796 -0.00000677
N 16.03968275 3.37258037 1.15844577 0.00652014 0.00083170 -0.00031844
N 15.25041202 6.21871174 6.06359088 0.00249089 0.00527014 -0.00434570
N 18.12581902 1.19065537 7.63008493 -0.00009333 0.00284806 -0.00233566
N 16.50649488 8.49387089 3.16008200 0.00528189 0.00217426 0.00191119
N 14.70882661 5.45456270 10.11032642 0.00251230 -0.00589466 -0.00482538
N 16.45667606 4.08117880 14.78248870 0.00333692 0.00141767 0.00206589
N 16.87722545 8.97394082 17.34881855 0.00490114 -0.00362234 0.00118391
N 18.08471509 0.68065525 12.61766200 -0.00074587 -0.00096564 -0.00072840
N 15.97687735 3.48067163 10.60619883 0.00110678 0.00286743 0.00109846
N 15.24711092 5.94223974 14.93179417 0.00966430 0.00706929 -0.00012123
N 18.07660748 1.24645720 16.79907756 -0.00346054 0.00258072 -0.00082270
N 16.75599286 8.28831120 12.37755429 0.00488840 0.00544632 -0.00489186
N 14.90870969 5.17402758 19.73692330 0.00256257 -0.00314285 0.00174516
N 16.67924722 4.03499789 23.99447445 0.00557907 0.00036181 0.00211061
N 16.75006339 9.21395542 26.18484443 0.00334871 -0.00396930 -0.00333992
N 18.26753170 0.59209329 21.92373261 0.00671999 -0.00292619 0.00032567
N 16.29401096 3.35983840 19.82091175 0.00247827 -0.00357034 -0.00506970
N 15.32594401 5.77953730 24.31822637 0.00380206 -0.00491085 -0.00054124
N 18.06088805 1.02897250 26.01280063 -0.00330145 0.01003917 0.00905542
N 16.88117546 8.53932142 21.03319576 0.00176588 -0.00679960 0.00222842
N 14.89474634 15.08754439 1.08232695 -0.00272190 0.00215778 -0.00591432
N 16.25599304 13.58378533 5.67707140 -0.00412465 -0.00614342 0.00424816
N 16.53589358 18.43991694 7.98627108 0.00274150 0.00392667 0.00281732
N 18.05898634 10.22270143 3.11444563 0.00325710 -0.00933264 0.00096573
N 16.33067073 13.25367141 1.28193764 0.00098555 0.00227274 0.00455118
N 15.22737734 15.55564611 6.12260975 -0.00641152 0.00539493 0.01501866
N 18.06296773 10.92208050 7.71738435 0.00095931 -0.00183354 -0.00575630
N 17.18549552 18.09457623 2.95327365 0.00246916 0.00166758 0.00266280
N 15.01531977 14.81720113 10.49212656 -0.00611722 -0.00066914 0.00455489
N 16.59312359 14.24851539 15.24290129 -0.00937331 -0.00508544 -0.00535358
N 16.64526881 18.74891832 17.21375224 -0.00054412 -0.00118461 -0.00009530
N 18.20600460 10.06263587 12.64685380 0.00105372 -0.00604566 0.00241274
N 16.40415269 12.94815076 10.61288109 -0.00034812 -0.00039056 0.00079776
N 15.09496286 16.08241269 15.38678183 0.00331604 -0.00066892 -0.00100449
N 17.83601067 10.87001036 16.61908430 0.00447999 0.00891420 -0.00563068
N 16.58944098 17.97827560 12.13038874 -0.00507391 -0.00171326 0.00001233
N 15.01368484 14.81564554 19.43349101 0.00331111 -0.00184659 -0.00286935
N 16.15288368 13.64342930 23.81580120 -0.00553799 0.00022226 0.00295074
N 16.77551218 18.76518789 26.11543647 0.00320548 0.00007887 0.00469687
N 18.26151388 10.11275793 21.90720139 -0.00618448 0.00595603 0.00477143
N 16.26731522 12.94905186 20.03428317 0.00089186 0.00902737 0.00477814
N 15.10316756 15.65938430 24.27629130 0.00040479 0.00211516 -0.00442222
N 17.93766271 11.20094602 26.19592128 0.00416750 0.00686484 0.00291987
N 17.31727493 17.91460102 21.37805357 -0.00169938 0.00237078 -0.00408275
N 14.71645836 24.94168898 1.05187064 -0.00032455 0.00033604 -0.00114458
N 16.52978363 23.45171261 5.71998092 -0.00027704 0.00157667 -0.00527889
N 16.96378096 28.13407774 8.11186903 0.00077538 -0.00431605 -0.00209158
N 18.09717289 20.20833594 3.33423608 0.00116602 0.00158970 0.00010325
N 15.89896603 22.99804203 1.33894671 0.00129006 -0.00534792 -0.00124268
N 15.06316245 25.27566138 6.11749383 -0.00350116 -0.00403402 0.00426839
N 18.01538165 20.24032567 7.80212161 -0.00082124 -0.00279298 0.00145696
N 16.75888519 27.63093542 2.79247814 -0.00499567 -0.00226881 0.00081737
N 14.91510117 24.38120244 10.55189752 0.00184038 0.00261864 0.00244532
N 16.31641552 23.28873287 14.90581295 0.00063562 -0.00354369 -0.00462515
N 16.79726957 28.22252974 17.35171993 -0.00183352 0.00333955 -0.00167888
N 18.23337441 19.64305553 12.64789200 -0.00023971 -0.00275446 0.00720874
N 16.08365965 22.35198315 10.57369866 0.00081993 0.00166155 -0.00191178
N 14.91903167 25.05955870 15.35555147 0.00109876 -0.00453818 0.00514385
N 18.12235755 20.46806111 17.01391190 -0.00547567 0.00642574 -0.00066550
N 16.79696132 27.71854058 11.95244515 -0.00049724 -0.00233675 -0.00304563
N 15.24814532 24.90040582 19.55525994 -0.00211416 -0.00416196 -0.00141617
N 16.42304642 23.31571829 23.93100341 -0.00105605 -0.00925852 0.00679422
N 17.17850521 27.75932103 26.65771458 0.00206162 -0.00099799 0.00156303
N 18.30378414 20.02313907 21.70342048 -0.00644972 0.00481422 -0.00687715
N 16.09559737 22.80277490 19.85692878 0.00633448 0.00251133 -0.00187647
N 15.31437334 25.28284823 24.33018849 0.00324528 0.00012955 -0.00015606
N 18.14892662 20.58873925 25.94633527 0.00403926 -0.00638222 0.00413695
N 17.11589617 27.38195453 21.77546976 -0.00309055 -0.00135890 0.00699044
N 18.44690894 5.33632215 1.16187835 0.00846231 0.00294620 -0.00004337
N 20.07683942 4.02312332 5.74152146 -0.00631889 -0.00032334 0.00398541
N 20.59349675 8.79361210 7.86054639 0.00227731 -0.00268084 0.00020446
N 0.08832747 0.59841807 3.16159102 0.00001582 -0.00611962 0.00304924
N 19.55592063 3.43062466 1.06083372 0.00000377 -0.00342934 0.00087340
N 18.52525580 5.69359874 6.00367398 -0.00220905 0.00131887 -0.00022336
N 21.59169337 1.27212532 7.66113852 -0.00042557 -0.00885010 0.00071252
N 20.44095022 8.03363778 2.92412597 -0.00147721 -0.00336238 -0.00665467
N 18.46456046 5.08794956 10.25161330 -0.00107965 -0.00379484 0.00028586
N 20.07545349 3.86942894 14.80875734 0.00247661 -0.00579859 -0.00361669
N 20.44381495 8.73418867 16.99176329 0.00017376 -0.00304501 -0.00113776
N 21.71831347 0.48890400 12.39170518 -0.00241729 0.00701518 -0.00248255
N 20.02752585 3.37947799 10.44647078 0.00153072 -0.00363165 0.00011366
N 18.91288840 5.72123800 15.23354244 0.00539125 0.00281004 0.00194332
N 21.70268679 1.23571335 16.88071927 -0.00284780 0.00152573 -0.00293640
N 20.49356932 8.11324773 12.28315161 0.01269657 0.00899241 -0.00359243
N 18.69758250 5.25368357 19.41658453 -0.00819348 -0.00008903 -0.00102239
N 20.33232917 4.23518817 24.04085707 0.00038852 -0.00182942 -0.00571384
N 20.14804014 8.92212746 26.31641983 0.00102202 0.00184141 0.00399279
N 21.88142394 0.64914354 21.81784068 -0.00647455 -0.00298161 -0.00568863
N 19.94498537 3.34194315 19.66063409 0.00292498 0.00458250 0.00342972
N 19.03437985 6.13397023 24.29470371 0.00551618 0.00180144 -0.00253748
N 21.57370737 1.59824216 25.94051230 -0.00191417 0.00468459 -0.00886458
N 20.38210014 8.04719958 21.47290782 -0.00675181 -0.00342310 0.00513453
N 18.55123052 15.12473691 1.15260714 0.00644669 0.00006670 -0.00065078
N 19.95751492 13.61374785 5.68618713 0.00102414 0.00250048 0.00090333
N 20.50800216 18.31866436 7.82633207 0.00182938 0.00160268 0.00544798
N 21.47343652 10.01096333 3.30569631 -0.00452744 0.00132554 -0.00823977
N 19.79901605 13.24672681 1.60266786 -0.00341057 0.00133603 0.00134376
N 18.67599688 15.47262960 6.07344220 -0.00527994 0.00010886 0.00100264
N 21.81429357 10.68890301 7.54198138 -0.00758492 0.00084038 -0.00125896
N 20.45227305 17.87823510 3.46859276 0.00049103 0.00035219 -0.00621417
N 18.60794508 15.05821256 10.35726404 0.00311597 -0.00204526 0.00786994
N 20.25965896 13.79564343 14.87765334 0.00434186 -0.00156341 -0.00727805
N 20.25609273 18.65460575 17.29703665 -0.00038969 0.00318604 -0.00176871
N 21.44398681 10.20284416 12.49300484 -0.00258290 -0.00437471 -0.00379871
N 19.70859053 13.15205680 10.80827089 -0.00136006 -0.00100724 0.00180838
N 19.22455836 15.80477810 15.17900174 0.00260399 0.00524676 0.00355608
N 21.69676057 10.68064168 17.00974020 0.00124576 0.00076152 0.00415869
N 20.53769655 17.91599968 12.38207529 0.00071583 -0.00046491 0.00099228
N 19.04788685 14.87430358 19.30199803 0.00155559 -0.00375360 0.00381772
N 20.08395815 13.73622034 24.45471073 -0.00090671 0.00367851 -0.00230211
N 20.46324952 18.95338020 26.61004611 0.00371635 0.00403330 -0.00074421
N 21.73155802 9.82351026 21.73022112 -0.00174071 -0.00312579 0.00008724
N 20.00626107 12.82316576 19.82762576 -0.00403684 0.00365388 0.01312158
N 18.69866241 15.65682838 24.54641899 0.00039165 0.00016945 0.00040794
N 21.75311951 10.56270028 26.30186802 0.00540589 -0.00145377 -0.00036968
N 20.58981469 17.90685532 21.70799344 -0.00576370 -0.00172059 -0.00386002
N 18.43249981 24.66585741 1.22997440 -0.00485510 0.00787668 -0.00673885
N 20.02964817 23.26529627 5.93583467 0.00816073 -0.00072970 -0.00038164
N 20.70274789 27.96321741 7.78732060 0.00452014 0.00760956 -0.00149314
N 22.05938546 19.57514654 3.56686247 -0.00232471 0.00420487 0.00063199
N 19.53436183 22.58873819 1.29757644 0.00059256 -0.00253401 0.00092118
N 18.93777038 25.22255677 6.07774710 0.00240146 0.00286153 0.00019108