1728
Time=91000.00000003 pbc="T T T" Lattice="22.10520629 0.00000000 0.00000000 0.00000000 28.96810159 0.00000000 0.00000000 0.00000000 27.42736631" energy=-10387.65091002 virial="2.48503025 -8.14524050 8.14334121 -8.14524050 -19.85754449 -7.22824600 8.14334121 -7.22824600 -35.20677928" stress="0.00246653 -0.00049797 0.00043529 -0.00049797 0.00143103 -0.00043329 0.00043529 -0.00043329 0.00074714" Properties=species:S:1:pos:R:3:vel:R:3
N 0.14948229 5.53018344 1.22633756 0.00537469 0.00689655 -0.00156779
N 1.74294820 4.09114409 5.98061436 0.00187083 -0.00049225 -0.00670157
N 2.00270155 8.99341698 7.64572292 -0.00011485 -0.00246241 -0.00755756
N 3.51808563 0.80317315 3.32866046 0.00228925 -0.00511676 0.00057311
N 1.43613337 3.63933757 1.31278290 0.00765608 0.00485373 0.00229807
N 0.51723973 6.06768785 5.96700668 0.00231911 0.00465417 -0.00344083
N 3.10120018 1.14944368 7.77570798 -0.00201213 -0.00597971 -0.00848640
N 2.55216653 8.26609123 3.05966734 -0.00158654 0.00060221 0.00901890
N 0.38468167 5.58988905 10.24362010 0.00000438 0.00701282 0.00215619
N 1.59996183 4.51488690 15.07368615 0.00368003 -0.00128177 -0.00281872
N 2.05535424 9.09436563 16.93529695 0.00268499 0.00123932 0.00487979
N 2.94374973 0.89247628 12.53277639 -0.00136378 -0.00207798 0.00215766
N 1.22670370 3.44722104 10.46503857 -0.00304014 0.00420347 -0.00272184
N 0.10428604 6.23043454 15.52785663 0.00302381 -0.00252244 -0.00119910
N 3.13246534 1.54673794 16.92743133 -0.00543522 0.00165495 0.00227624
N 1.94920891 8.24188316 12.19894107 0.00135965 0.00208330 0.00583672
N 0.09926916 5.68898852 19.57901064 -0.00469356 -0.00380292 -0.00030702
N 1.42628929 3.99261788 23.99157603 -0.00166691 0.00048747 0.00192176
N 1.93546381 8.95798495 26.30187319 0.00076846 -0.00430064 0.00263549
N 3.17199080 1.05510892 21.89700071 0.00352230 -0.00026051 -0.00653304
N 1.22930045 3.77620924 19.68766922 0.00104367 -0.00237661 0.00036523
N 0.29294949 5.89152307 24.52465850 0.00134808 0.00228286 -0.00332779
N 3.48975255 1.12490149 26.07305303 0.00103775 0.00000663 -0.00657342
N 2.09937427 8.31716594 21.52930791 0.00340954 0.00360336 0.00115653
N 0.25142543 14.81526789 1.01172343 0.00539581 -0.00379733 -0.00638925
N 1.73816937 13.69796658 5.02180723 -0.00359617 -0.00529705 -0.00294568
N 2.38454748 18.34317376 7.88840095 -0.00220503 -0.00027707 0.00074471
N 3.36764225 10.44022968 3.13575876 0.00370830 0.00700257 -0.00589162
N 1.83898571 13.04520451 1.30267351 -0.00047348 0.00177972 0.00224136
N 0.36382995 15.55759837 5.76391593 0.00099678 -0.00338833 0.00000174
N 3.32905493 10.92722678 7.43499997 -0.00433920 0.00580597 0.00169009
N 2.21674639 17.98698559 2.93355524 -0.00125522 -0.00505784 0.00237820
N 0.16360700 14.89812572 9.87425465 0.00044997 0.00442735 0.00122627
N 1.98097823 13.70263932 14.63806491 0.00019338 -0.00041266 -0.00853964
N 1.99170118 18.50617249 17.08065229 -0.00818731 -0.00394709 -0.00015659
N 3.05599206 10.20053899 12.15248007 0.00091681 0.00749325 -0.00408983
N 1.34158348 12.96679460 10.22079408 -0.00395239 0.00287347 0.00162959
N 0.40541655 15.35505851 15.28686900 0.00013576 0.00219680 -0.00225071
N 3.23116055 11.05892858 16.88613151 -0.00098701 0.00002066 -0.00313926
N 2.17118906 17.59629742 12.38135960 0.00200485 -0.00458747 -0.00024723
N 0.11506227 15.08981848 19.76602084 -0.00461460 0.00608204 -0.00329600
N 1.79861857 13.81885145 24.01230238 -0.00241816 0.00009994 0.00289341
N 2.10753139 18.87081344 26.22314540 -0.00253016 0.00513811 -0.00413502
N 3.43409843 10.17878075 21.75769590 0.00158634 -0.00714350 0.00235706
N 1.46593121 13.19990651 20.14348630 -0.00167609 -0.00365389 -0.00118884
N 0.67834112 15.87894754 24.39754866 -0.00021723 0.00485864 -0.00178496
N 3.29673158 10.76756064 25.75819435 0.00306292 -0.00042703 -0.00066367
N 2.18680981 18.03580806 21.22229890 0.00063798 0.00803870 0.00068147
N 0.33111719 24.78100097 1.17258776 0.00272340 0.00143673 -0.00363795
N 1.13841675 23.12281796 5.80410527 -0.00482760 0.00489888 -0.00335129
N 1.83533961 28.21339403 8.16463817 0.00175713 -0.00230788 -0.00255275
N 3.56831615 19.85068148 3.09136921 0.00130060 -0.00782296 0.00180492
N 1.50386807 22.88640496 1.46661604 -0.00464827 0.00445385 -0.00206753
N 0.13378556 25.23309850 6.09730148 0.00175557 -0.00065039 -0.00287512
N 3.13446426 20.42258763 7.57125386 -0.00909772 -0.00075588 0.00914940
N 2.37932766 27.72097891 3.21765293 0.00121879 -0.00240076 0.00496630
N 0.08481444 24.76506072 9.97402224 -0.00278021 0.00584860 0.00469391
N 1.00910680 23.38004879 14.63002294 0.00120202 -0.00247732 -0.00049576
N 2.14455404 28.36846445 17.30605173 0.00122144 -0.00134496 0.00861053
N 3.32039674 19.66981859 12.53277804 0.00211923 0.00866320 -0.00195772
N 1.29083822 22.82479979 10.54999688 -0.00156738 -0.00120228 0.00083348
N 0.37787027 25.57522700 14.95141989 -0.00796867 -0.00289471 -0.00185760
N 3.13911995 20.39595333 16.88130015 -0.00624539 0.00041200 0.00155453
N 2.23041414 27.78063793 12.08898638 -0.00098468 -0.00226340 -0.00174351
N 0.19672538 24.85948767 19.30587492 0.00063954 0.00333803 0.00415549
N 1.10672282 23.30409531 23.80148258 0.00636157 -0.00310984 -0.00295801
N 2.65774182 27.90523820 26.33818580 -0.00032753 -0.00093169 -0.00016909
N 3.67113339 19.77420292 21.70402072 0.00262119 -0.00219827 0.00765121
N 1.24727435 22.94634705 19.73744892 0.00062234 0.00176902 -0.00555928
N 22.10088824 25.34090968 24.09330282 -0.00132678 0.00405915 -0.00576007
N 3.67641767 20.52645157 25.77001520 0.00127691 -0.00186076 -0.00328215
N 2.19275116 28.03039043 21.27083852 0.00192663 0.00457147 0.00771380
N 3.83852919 5.71824410 1.04475276 -0.00052872 -0.00740583 -0.00375873
N 5.30630956 4.15426214 5.93141234 -0.00172017 -0.00305832 0.00070502
N 5.79110582 9.24537875 8.11140646 0.00238014 0.00112712 -0.00589820
N 6.79909855 0.57456029 3.38589605 0.00188445 -0.00232201 -0.00056828
N 4.98993195 3.80669327 1.67868818 0.00716343 0.00150814 -0.00693427
N 4.16318230 6.23819861 6.15254868 -0.00025478 0.00215709 -0.00198398
N 6.87800771 0.93791325 7.76756353 -0.00149650 0.00221711 0.00962901
N 6.11079271 8.49351547 3.29845989 -0.00688787 0.00124034 -0.00429228
N 4.12548735 5.50779674 10.21742079 -0.00239300 0.00586621 -0.00179260
N 5.26302882 4.51446100 14.71863430 -0.00404658 0.00052296 -0.00161555
N 5.66854116 9.42720954 17.11943485 -0.00115695 0.00387149 -0.00610531
N 7.05862848 0.72652552 12.64602550 0.00164670 0.00086268 0.00317008
N 4.82454816 3.47118498 10.73847852 -0.00328474 0.00429199 -0.00804834
N 3.83662804 6.25129211 15.28812969 -0.00273640 -0.00512025 0.00014484
N 7.09279127 1.45621144 17.24893574 -0.00195811 -0.00427748 0.00197600
N 5.60901173 8.54995046 12.27137735 0.00034977 0.00870581 0.00831649
N 3.97002579 5.62573533 19.30611139 -0.00608140 0.00211904 -0.00099074
N 5.31721850 3.97964702 24.12150394 0.00383287 0.00206640 -0.00128596
N 5.64545838 8.86255239 26.14332755 -0.00341270 -0.00472282 0.00128124
N 7.44721849 0.88883362 21.85277686 0.00729301 0.00396316 0.00008625
N 5.26842992 3.75084899 19.65491166 0.00122236 0.00077345 -0.00361162
N 4.18682236 6.01147206 24.33203922 -0.00715371 -0.00341247 -0.00103659
N 7.09597695 1.08721616 25.98805401 -0.00274604 0.00169444 -0.00421975
N 5.88493623 8.13395914 21.39762614 0.00123294 0.00163872 -0.00216643
N 3.96080445 15.21432669 1.13634537 -0.00131449 -0.00492559 0.00031902
N 5.12982956 13.64866169 5.55662227 -0.00090262 -0.00380950 0.00703632
N 5.55933661 18.71666607 7.83903093 -0.00026844 -0.00110333 -0.00039477
N 7.20711599 10.49774299 3.26221594 0.00322806 -0.00016547 0.00035587
N 5.18693849 13.25140166 1.23106094 0.00289240 0.00190116 0.00381412
N 4.08655381 15.69040278 5.95157497 -0.00621545 0.00044526 -0.00212021
N 6.94469739 11.06406440 7.28321479 -0.00324606 -0.00452617 0.00533664
N 5.98133128 18.24559249 3.00189567 -0.00076030 0.00228131 0.00179878
N 4.08954902 15.44159529 10.54434581 0.00220404 0.00925010 -0.00047701
N 5.42321978 13.77694289 15.13074090 0.00072193 -0.00133576 -0.00341564
N 6.01833274 18.53203916 17.16509169 0.00572190 0.00405369 -0.00539038
N 6.80984984 10.52362543 12.71578269 0.00291927 -0.00336410 -0.00093242
N 4.85959658 13.21442968 10.83593243 0.00631648 0.00180495 -0.00638414
N 4.17685138 15.73963278 15.44147034 -0.00339314 0.00288520 -0.00665328
N 7.23040410 11.20655031 16.89778835 0.00471499 0.00246032 0.00448201
N 5.73475538 17.96238781 12.31727221 -0.00052223 -0.00403278 -0.00211176
N 4.12072098 15.25069680 19.51656492 -0.00361046 0.00499439 -0.00426439
N 5.22511742 13.66827233 24.14873180 -0.00078531 -0.00215821 0.00110171
N 6.04772737 18.66908299 26.48619884 0.00335371 0.00183135 -0.00076369
N 6.93908029 10.23997678 21.70710651 0.00233252 -0.01218021 0.00412458
N 4.67227526 13.01688229 19.79287090 0.00003844 -0.00330189 0.00191742
N 4.25498454 15.91374854 24.21306443 0.00728608 0.00443871 0.00220528
N 6.92489057 10.74147717 25.63667258 -0.00116366 -0.00089910 -0.00208924
N 5.95648360 17.91851010 21.68192803 -0.00667229 0.00417649 -0.00164631
N 4.18759872 24.92864060 1.07958999 -0.00470539 -0.00031281 -0.00564855
N 5.11945384 23.45975329 5.82289643 -0.00274001 0.00452000 0.00094257
N 5.49399179 28.03418712 7.91575695 -0.00307418 -0.00372168 0.00027000
N 7.22503081 20.11649056 3.61869500 0.00025629 -0.00042096 -0.00137499
N 5.25690028 22.94736643 1.58461769 -0.00081379 0.00222217 0.00023189
N 3.62044320 25.15503890 6.12881167 0.00017304 0.00025895 0.00111613
N 6.76621235 20.70842101 7.90350084 0.00128992 -0.00109908 -0.00353121
N 5.68026001 27.48651589 3.25931134 -0.00210837 0.00094679 -0.00419459
N 3.86921110 24.64168856 10.46014134 -0.00031106 0.00555843 0.00657662
N 5.22971458 23.54601856 15.06051179 -0.00202397 -0.00296777 0.00013337
N 6.07369332 28.41537974 17.20078126 0.00113659 -0.00708329 -0.00487519
N 6.87209812 20.02574164 12.52801921 -0.00803573 -0.00127778 0.00169248
N 5.19732694 22.79517503 10.70361521 0.00172402 -0.00068101 -0.00372572
N 4.17374076 25.61071565 15.07182375 0.00266402 0.00090704 -0.00500693
N 7.13003185 20.51879041 16.89028259 0.00345023 -0.00597312 0.00539567
N 5.94944811 27.61207874 12.42993594 -0.00352532 -0.00032251 -0.00304462
N 3.73149101 25.11369977 19.25958757 0.00319801 0.00011967 0.00158813
N 5.27134832 23.36436417 23.86021945 0.00236811 -0.00622054 0.00752634
N 6.01103910 27.95257296 26.14569488 -0.00168111 -0.00393211 0.00341548
N 7.19588872 19.90271336 21.79232053 0.00012347 -0.00001097 0.00661249
N 4.85948243 23.09735238 19.46200605 -0.01013389 0.00209240 -0.00717108
N 4.06282460 25.39098712 24.11239838 0.00525545 0.00255763 0.00166432
N 7.29650910 20.51579490 26.15703465 -0.00037948 0.00066100 -0.00729866
N 5.90277290 28.06641736 21.69677410 -0.00268113 0.00315672 0.00066685
N 7.52322444 5.53985765 1.35110996 0.00471966 -0.00080220 0.00307080
N 8.85999316 4.01783073 6.43570384 -0.00323737 -0.00276226 0.00734241
N 9.34922789 9.02812621 7.92766489 0.00193870 0.00505725 0.00081031
N 11.00421906 0.64009659 3.34166065 -0.00497183 -0.00259686 -0.00444290
N 8.88590810 3.72694356 1.65360828 0.00020115 0.00176086 -0.00062262
N 7.67176173 5.98518380 6.49505916 0.00388950 -0.00124338 -0.00551872
N 10.54051281 0.98118640 7.94977077 -0.00020676 0.00364139 -0.00204773
N 9.67984388 8.35942677 3.26723576 -0.00063331 0.00754563 0.00303473
N 7.34062197 5.51677461 10.53523061 -0.00540983 0.00727220 -0.00029916
N 8.85474634 4.53975229 15.18311752 -0.00084154 0.00256490 -0.00246661
N 9.50171152 8.78669848 17.62956894 -0.00011442 -0.00843776 0.00494962
N 10.58645086 0.77993588 12.66734363 0.00102971 0.00667191 0.00081117
N 8.58605848 3.62799010 10.86494498 0.00409155 -0.00877703 -0.00039491
N 7.72024285 6.60574048 15.35134340 0.00448111 0.00528815 -0.00080953
N 10.86505701 1.47976837 17.05929448 -0.00414973 -0.00166502 0.00271509
N 9.29692763 8.49225277 12.17113658 -0.00502559 0.00291125 0.00328790
N 7.62336697 5.53883799 19.49979709 0.00233844 -0.00389003 0.00125532
N 8.89466435 4.16985224 24.17464178 0.00211672 -0.00150462 -0.00018822
N 9.42766745 8.97636815 26.30966756 0.00203502 -0.00266695 -0.00878838
N 11.09243443 0.96933121 21.85378910 0.00343828 0.00222557 -0.00797685
N 8.63807086 3.52298124 20.02491056 0.00943874 -0.00603186 0.00453113
N 7.84253808 6.16043329 24.23567531 0.00229490 0.00281981 0.00002531
N 10.73552512 1.29414822 26.21343747 -0.00688337 0.00549772 -0.00234420
N 9.61980029 8.62534471 21.59781550 -0.00284954 -0.00300468 0.00125427
N 7.71690581 15.31593051 1.19986127 -0.00344573 0.00289278 0.00233867
N 9.09275086 13.99849861 5.51127048 -0.00641135 0.00467048 0.00014183
N 9.34005881 18.72575450 8.40949425 -0.00172630 -0.00351374 -0.00135239
N 11.05037481 10.32095947 3.33420313 -0.00619838 -0.00391888 0.00232132
N 8.97353394 13.32874094 1.32884200 -0.00770378 -0.00104203 0.00166685
N 7.94700671 15.93084078 6.11431382 -0.00278198 0.00013620 0.00279045
N 10.45466746 10.97561879 7.40919122 0.00342959 -0.00140707 0.00258194
N 9.54445119 17.98989248 3.03196362 0.00299101 -0.00065093 -0.00661433
N 7.55354833 15.26067758 10.27545031 0.00267467 0.00245187 -0.00465645
N 9.30643919 13.71517113 15.07854158 0.00123928 -0.00291901 0.00435699
N 9.47631220 18.64867353 17.10278426 0.00304454 -0.00055144 -0.00727318
N 10.47391632 10.42105246 12.28380660 -0.00423860 0.00315025 -0.00120772
N 8.38777589 13.19991830 10.53016395 0.00733130 -0.00928164 -0.00010913
N 7.80306975 15.36106612 15.14397585 -0.00136266 -0.00632333 -0.00123716
N 10.87185735 10.67287798 16.92092531 -0.00872677 0.00193808 0.00039686
N 9.54967579 17.82545005 12.75144537 -0.00517962 0.00458909 -0.00513764
N 8.01020172 15.27960618 19.61576317 -0.00007575 0.00516913 0.00784800
N 8.68757353 13.78473616 24.06342815 -0.00108003 -0.00190995 -0.00154017
N 9.65799020 18.55364202 26.21474006 0.00290641 -0.00132560 -0.00430304
N 10.67418749 10.56930826 22.00417969 -0.00655641 -0.00348657 -0.00357924
N 9.02219242 13.25478547 20.07706385 0.00350317 0.00107529 -0.00090236
N 7.59339323 15.67881267 24.58996649 0.00640374 0.00289665 0.00836063
N 10.70111996 11.03732174 26.09614230 0.00785534 0.00426541 -0.00209173
N 9.40936358 17.91633504 21.38873330 0.00329305 0.00031102 0.00695746
N 7.55578951 24.71252075 1.28755825 -0.00774750 0.00346274 0.00915901
N 8.86542033 23.45927310 6.06260083 0.01255886 -0.00359916 -0.00153608
N 9.44154215 28.03129146 8.49551076 -0.00215972 -0.00096594 0.00224042
N 10.83693188 19.94719893 3.33610019 -0.00078348 0.00019050 -0.00745358
N 9.07666411 22.86541364 1.51694665 0.00242199 0.00123337 -0.00282114
N 7.49037894 25.39987292 6.08631402 0.00288691 -0.00280946 -0.00079761
N 10.66503667 20.52018587 7.64153245 0.00104025 -0.00111286 0.00401522
N 9.73009276 27.59227265 3.21259442 0.00907325 0.00122878 0.00409618
N 7.61129638 24.63403305 10.64045432 0.00133444 -0.00904514 -0.00028865
N 8.80092437 23.24032343 14.76028708 -0.00746605 0.00396345 -0.00028500
N 9.65731973 28.47558205 16.94708859 0.00211226 -0.00395714 -0.00101848
N 10.91567657 19.75410600 12.63354758 -0.00141299 -0.00376086 -0.00639177
N 8.68438605 22.63923412 10.96678318 0.00533743 0.00023888 0.00487751
N 7.69378433 25.18706192 15.11315263 0.00235263 -0.00328427 -0.00416202
N 10.75893134 20.65496523 16.86330491 -0.00106059 0.00066754 0.00292809
N 9.57643270 27.71174582 12.35198072 0.00541286 -0.00106484 -0.00407062
N 7.82852801 25.06067275 19.61121683 0.00285253 -0.00127890 -0.00267233
N 9.10144332 23.23017881 23.88733115 0.00376498 0.00631812 -0.00022271
N 9.66708653 28.28821708 26.11037848 -0.00308343 0.00015258 -0.00301674
N 10.68875156 19.92200957 21.52546750 -0.00141701 0.00420713 -0.00208282
N 8.37279090 22.90490993 20.02303497 0.00060782 -0.00810939 0.00399906
N 7.82607651 25.02135361 24.34700561 0.00380117 0.00283667 0.00022559
N 10.67391411 20.55819207 26.04220061 0.00105471 -0.00075074 -0.00612165
N 9.77695268 28.01559325 21.34826495 -0.00147859 0.00491586 0.00198771
N 11.42450301 5.56171323 1.21659101 0.00496263 -0.00281486 -0.00361070
N 12.58523053 3.91794319 5.76523855 0.00581798 -0.00313128 0.00038357
N 12.89104217 9.22597480 7.75004429 -0.00083455 -0.00463588 0.00478535
N 14.19904321 0.42929286 3.36633837 -0.00075731 0.00308891 0.00363622
N 12.48929252 3.50528577 1.45234163 0.00151559 0.00266137 -0.00368302
N 11.60020500 5.95063653 5.88745752 0.00505936 0.00354253 0.00651265
N 14.38216950 1.31855054 7.51291103 -0.00234817 0.00187827 -0.00152939
N 13.26960181 8.43783894 3.18277219 0.00503186 -0.01036988 0.00326073
N 10.84941198 5.34946631 10.15882088 0.00037583 -0.00065130 -0.00179109
N 12.63620215 4.34028230 14.87683387 0.00652759 -0.00120562 -0.00190476
N 13.50070842 8.53747158 17.27351148 0.00696328 0.00112879 -0.00436299
N 14.69432535 0.84330376 12.41548964 -0.00631863 -0.00128600 -0.00165346
N 12.27072744 3.59208044 10.45276110 -0.00288649 0.00156078 0.00003145
N 11.26311354 6.03557159 15.36275348 0.00193572 -0.00116420 -0.00015702
N 14.36017525 1.36363180 16.66246731 0.00197633 -0.00162122 0.00190609
N 13.02041911 8.45883017 12.05614612 -0.00262510 -0.00152194 -0.00152671
N 11.39309675 5.67103911 19.50162390 -0.00035357 -0.00405161 0.00034424
N 12.68049592 4.30155434 23.98807520 -0.00239156 -0.00177304 -0.00234365
N 12.98995618 9.31900027 26.07086237 0.00131959 0.00533904 -0.00608328
N 14.51241601 0.38349212 21.53978767 -0.00246042 0.00265774 -0.00248530
N 12.58279098 3.69665328 19.69884784 -0.00027311 -0.00929011 -0.00055870
N 11.36155011 6.14325108 24.44620248 -0.00354985 0.00331794 -0.00128996
N 14.46044189 1.14565711 25.87657126 0.00799081 -0.00258610 0.00121247
N 12.93367436 8.54076741 21.13118832 -0.00163861 -0.00050920 -0.00080448
N 11.41672485 15.00362684 1.38153429 0.00186122 0.00041861 0.00512550
N 12.28580265 13.77225687 5.63627384 0.00447505 -0.00083152 0.00236963
N 13.17989823 18.59557714 8.37924351 0.00137685 -0.00108977 -0.00247572
N 14.79174696 10.10416988 2.99761299 -0.00196364 -0.00273102 -0.00382277
N 12.80879748 13.18439965 1.24275468 -0.00158174 0.00244630 0.00144651
N 11.32120144 15.90088596 5.78300976 -0.00056175 -0.00081192 0.00185315
N 14.27075846 11.03224721 7.47802618 0.00022579 -0.00164050 0.00975505
N 13.24347537 18.30307701 3.29891872 -0.00674747 0.00386905 0.00174488
N 11.35072188 15.29836775 9.99112602 -0.00065413 0.00110704 0.00359686
N 12.63949515 13.60740357 14.65934163 0.00873337 -0.00041820 -0.00076838
N 13.22454842 18.65479126 17.28020810 -0.00037626 -0.00022975 0.00500286
N 13.90669528 10.54076243 12.50556002 -0.00323013 0.00393627 0.00406426
N 12.32223329 13.28933252 10.38478648 0.00497154 -0.00525854 -0.00030699
N 11.61128482 15.75144638 15.04125053 -0.00371664 -0.00326777 0.00879122
N 14.36963893 10.56552467 16.57934512 -0.00565923 0.01205151 0.00025496
N 13.34472314 17.93983016 12.13429549 0.00676411 0.00269696 -0.00059200
N 11.34014001 15.39560354 19.53068603 0.00127545 -0.00179942 -0.00103262
N 12.72961179 13.97975121 24.07768685 0.00348022 0.00097576 -0.00432482
N 13.49482818 18.57203642 26.49569097 -0.00003376 -0.00145241 0.00361304
N 14.07262454 10.65572875 21.66805411 0.00142026 -0.00916408 -0.00217323
N 12.28086296 13.19155090 19.51793873 -0.00590441 0.00408239 0.00229176
N 11.27717005 15.71050206 24.22597099 -0.00094743 0.00129710 0.00280439
N 14.66167586 10.89898156 25.76979605 -0.00507116 0.00578267 0.00616709
N 13.24284678 18.28163712 21.41189866 0.00382742 0.00186311 -0.00552636
N 11.29515535 24.89710902 1.22496774 0.00045222 0.00222995 0.00042405
N 12.32688549 23.09438075 6.09650478 0.00445645 0.00405465 -0.00320170
N 13.48727231 28.13605644 7.88123440 -0.00210588 -0.00490257 -0.00060319
N 14.50639504 20.22176924 3.53677532 0.00206172 -0.00200293 0.00381953
N 12.49227503 22.97643929 1.75938858 0.00862304 -0.00889991 -0.00190532
N 11.26068905 25.14143972 6.55532605 0.00291008 0.00599619 0.00949383
N 14.30752699 20.62728103 7.93025684 -0.00341351 -0.00613067 -0.00129787
N 13.10058333 27.43908078 2.90761766 -0.00088558 -0.00382120 -0.00298075
N 11.21203713 25.02719890 10.47127802 0.00124049 0.00298795 0.00201375
N 12.92544101 23.67349825 15.10089061 -0.00454526 0.00482400 -0.00575205
N 13.09121918 28.35966684 16.59124147 -0.00117949 -0.00124222 -0.00287769
N 14.43713869 19.95086896 12.57411907 0.00236063 -0.00312255 -0.00407635
N 12.41476826 23.00299446 10.99438876 -0.00435187 0.00221743 -0.00074163
N 11.51550672 25.50767277 15.25657354 -0.00134029 -0.00140662 0.00019638
N 14.24014198 20.67089183 17.03510800 -0.00903625 0.00775790 -0.00502923
N 13.48126250 27.81089825 12.13030324 -0.00267006 0.00156281 -0.00597053
N 11.56973817 25.00009508 19.51984844 0.00645970 0.00193187 -0.00138989
N 12.65961277 23.15152527 23.83244325 -0.00236948 -0.00395756 0.00464984
N 12.99979165 28.27072555 26.09008525 0.00029656 -0.00126236 0.00601237
N 14.43999745 20.13232542 21.84236582 -0.00214033 -0.00471088 0.00748715
N 12.06987357 22.85017585 19.92634653 -0.00518144 0.01031416 -0.00011798
N 11.65873388 25.02446409 24.22998443 -0.00353732 0.00062459 -0.00226733
N 14.44163242 20.64041435 26.15125892 -0.00459491 -0.00772481 0.00734705
N 13.47703670 27.37137398 21.25317265 0.00432909 -0.00081625 0.00564691
N 15.01735553 5.41233661 1.26334891 -0.00543458 -0.00005616 -0.00003847
N 16.04458675 4.10400268 5.75035218 -0.00374443 -0.00166400 -0.00475656
N 16.50218547 8.98384287 8.02827090 0.00361741 -0.00487390 -0.00102883
N 18.14627600 0.65835886 3.48503493 0.00422255 0.00392963 0.00036242
N 16.04382104 3.32533634 1.24417482 0.00284443 0.00644154 -0.00365712
N 15.24631990 6.24531254 6.03432143 0.00256038 -0.00056388 0.00238620
N 18.02233040 1.36835366 7.56140315 -0.00147232 -0.00093389 0.00363777
N 17.31981087 8.27122574 3.38015232 0.00199619 0.00158859 0.00347201
N 14.73311342 5.74147653 10.05220533 0.00994341 0.00320699 -0.00025832
N 16.15064515 4.27868329 14.77013855 0.01303028 0.00010618 0.00515903
N 16.91775465 8.90222179 17.33839140 0.00173330 0.00059728 0.00775817
N 17.82022458 0.86615000 12.47228207 0.00613380 0.00430676 0.00786588
N 16.06635449 3.91672695 10.51528515 -0.00789273 -0.00047242 0.00337874
N 15.20522777 6.21613210 15.19850126 0.00127411 -0.00127525 -0.00258705
N 18.25218693 1.30424705 16.46353580 0.00374602 -0.00486441 -0.00659393
N 16.59732509 8.65418900 12.53272943 0.00354445 0.00223614 -0.00007912
N 15.05207982 5.53770960 19.56525036 -0.00154564 -0.00403533 0.00184375
N 16.51182957 4.62454765 24.45522269 0.00138175 0.00067705 0.00487756
N 16.87496035 8.83391892 26.58580617 0.00601445 -0.00008751 -0.00419650
N 17.92134536 0.64170538 21.57412357 0.00244415 -0.00474486 -0.00349314
N 16.38878492 3.63189064 19.73192443 -0.00508583 0.00333299 -0.00234540
N 15.11947881 6.45674305 24.40199670 0.00194733 -0.00177275 -0.00662521
N 17.92254771 1.23445904 26.01192640 -0.00463851 -0.00186175 0.00408342
N 16.66856175 8.35634269 21.23556668 0.00006419 -0.00867842 -0.00503468
N 15.19687755 15.25881359 1.18865554 0.00506600 -0.00372997 -0.00160539
N 16.05833725 13.65451185 5.60063519 -0.00253035 0.00390468 -0.00336036
N 16.60456076 18.53686224 7.96314135 -0.00137235 0.00289925 -0.00000991
N 18.42037882 10.30004771 3.22546027 -0.00121339 -0.00743625 0.00001746
N 16.26689161 13.25478824 1.24436371 0.00487017 0.00120631 0.00740460
N 15.04783881 15.60632523 6.00192933 0.00081412 0.00415626 0.00157129
N 18.03829482 10.75211839 7.71008776 -0.00474422 0.00848750 0.00583599
N 17.13195745 17.78869502 2.86928159 -0.00372224 -0.00436324 -0.00336141
N 15.13759443 15.14437564 10.18307869 -0.00144264 -0.00178257 0.00518366
N 16.37589739 13.97992980 14.81413864 -0.00004435 -0.00500676 -0.00166948
N 16.91322435 18.56624411 16.86598913 0.00818399 0.00125433 -0.00197894
N 18.15654533 10.34974457 12.67518060 0.00504549 -0.00262055 0.00505968
N 16.10773314 13.01357392 10.59358570 -0.00676203 -0.00541196 -0.00285787
N 14.98392611 15.77289981 15.16495547 0.00162268 -0.00120576 0.00085420
N 17.92156860 11.00451716 16.76956556 0.00344858 -0.00186991 -0.00057458
N 16.84442051 17.90399861 12.40087211 -0.00094461 -0.00500904 -0.00608737
N 15.20777862 15.48899974 19.17236456 0.00159633 -0.00198280 -0.00703800
N 16.48365494 14.02331019 23.99086442 0.00265407 0.00913854 0.00087668
N 17.28865914 18.36124620 26.21961728 -0.00209633 -0.00322462 0.00070653
N 17.94761115 10.20225264 21.67391838 0.00154023 -0.00021828 0.00284802
N 16.03969566 13.39764855 19.55267426 0.00175453 0.00070916 -0.00680918
N 14.86978651 15.75548364 24.15858249 -0.00379722 0.00542702 -0.00283509
N 18.03153650 10.74736429 25.80809786 -0.00790905 0.00094340 0.00136894
N 16.81246140 18.27293901 21.58103265 -0.00404181 0.00095015 0.00249932
N 15.01332982 24.75201745 1.11990119 0.00554629 0.00418129 -0.00125310
N 16.32980588 23.45291311 5.77494590 0.00008331 0.00251931 -0.00070305
N 16.69080657 28.40906876 7.80634875 0.00067664 -0.00329754 -0.00572350
N 18.37420796 19.72972210 3.01554429 0.00150775 -0.00235632 -0.00619984
N 16.31650481 23.00252633 1.63644416 -0.00123593 0.00378049 0.00954423
N 14.90364966 25.29910491 5.97005815 0.00518224 0.00005331 0.00252187
N 17.80713074 20.57380811 7.58269840 -0.00312513 0.00309593 0.00329866
N 17.10244083 27.62771502 3.16601568 0.00395213 -0.00303908 -0.00311563
N 14.68547425 24.83652186 10.40669639 -0.00378088 -0.00398625 -0.00412899
N 16.46874759 23.58265205 15.01105215 -0.00164820 -0.00975697 -0.00038484
N 16.79509337 28.49154055 17.00674402 0.00141251 -0.00371072 0.00366382
N 17.85058472 19.96970509 12.68238394 -0.00220299 -0.00469394 -0.00114666
N 15.75485477 22.85204108 10.76261487 0.00871263 0.00568271 -0.00324909
N 15.24526323 25.50419097 15.18894228 0.00058432 0.00478129 0.00598227
N 18.02363837 20.60901083 16.76652855 0.00252397 -0.00356628 0.00266081
N 17.06979738 27.72263544 12.15879896 0.00475616 -0.00415763 0.00090679
N 14.98590540 24.65705616 19.34351740 0.00456331 0.00109714 0.00190080
N 16.23091380 23.51235173 23.98995534 -0.00096736 0.00240091 0.00537399
N 16.65247126 28.30863975 26.31671676 0.00774816 0.00203627 -0.01129380
N 18.34410289 19.90618980 21.51362489 0.00111296 -0.00194587 -0.00021622
N 16.49096957 22.99177310 19.89491857 -0.00541617 -0.00559508 0.00041796
N 15.02620361 25.46681241 24.24041624 -0.00215656 0.00667559 -0.00987967
N 18.36829527 20.38003471 25.81591724 0.00163695 -0.00060387 0.00002884
N 17.25935077 27.49725406 21.45324267 0.00335649 -0.00048053 0.00015111
N 18.84000263 5.47075456 1.12599721 -0.00038788 0.00337934 0.00091281
N 19.92156411 4.07598429 5.72153955 -0.00383488 -0.00086642 -0.00030543
N 20.47885240 8.70534463 7.93727198 -0.00152750 0.00395454 0.00200482
N 22.04782423 0.60534150 3.24930709 0.00073028 -0.00053664 -0.00604039
N 19.94997468 3.44465497 1.37140932 0.00019495 0.00342239 -0.00089919
N 18.95291736 6.16128962 5.95260318 -0.00095621 -0.00429678 -0.00041193
N 21.67020391 1.23720674 7.53013404 0.00112780 0.00171924 0.00006715
N 20.75852427 8.57892374 3.28169328 -0.00237163 -0.00008326 -0.00220119
N 18.52577361 5.64254083 9.96954441 0.00273282 -0.00276337 -0.00190742
N 20.03311442 4.09859564 14.48667849 0.00224224 -0.00351682 -0.00258334
N 20.59801567 9.05145760 17.32052488 0.00371479 -0.00441173 -0.00701013
N 21.71381034 0.93828346 12.56506139 0.00196276 0.00109536 -0.00159307
N 19.86501196 3.72011783 10.39492465 0.00134767 -0.00179240 -0.00803998
N 18.96516588 6.10047475 15.04578206 -0.00100739 0.00189617 0.00043843
N 21.63524054 1.38069141 16.78055033 -0.00187522 0.00226318 0.00326616
N 20.48284393 8.24742433 12.05882649 -0.00798714 -0.00363499 0.00784437
N 19.41853855 5.37621742 19.26136558 -0.00081479 0.00244772 -0.00654104
N 19.71518544 4.40414417 23.88596883 0.00715034 0.00161824 0.00246616
N 20.44687535 8.93798322 26.29823110 -0.00833273 0.00563409 0.00258672
N 21.94873675 0.59675252 21.53753368 0.00068665 0.00146781 0.00010369
N 19.82191028 3.12657288 19.30446896 -0.00603479 -0.00287578 -0.00138198
N 18.94284414 6.45400460 24.45897180 -0.00104460 0.00060337 0.00058402
N 21.62882742 1.18603998 25.97118804 -0.00027444 -0.00473298 -0.00686224
N 20.28552738 8.57821666 21.60482682 0.00058667 0.00726230 -0.00430344
N 18.96814358 15.24032764 1.31910071 0.00397808 0.00447255 -0.00213509
N 20.03200547 13.66520911 5.70886209 0.00087073 0.00766272 -0.00315252
N 20.15040083 18.44235927 7.80382260 0.00161758 -0.00499442 -0.00105433
N 22.05210696 10.42509327 3.66850074 -0.00292592 0.00146448 -0.00097632
N 19.99584823 13.20143343 1.51614563 -0.00461040 -0.00227288 0.00045105
N 18.87391709 15.74049923 5.95601171 -0.00487102 -0.00097730 -0.00113491
N 21.44690521 10.78658329 7.81942405 0.00051560 -0.00881051 0.00228390
N 20.84575629 17.88297744 3.08630526 -0.00101535 0.00173612 0.00605706
N 18.57725054 14.88861091 10.44200676 -0.00356575 -0.00094885 -0.00513044
N 20.08353498 13.53277993 14.97389745 0.00554708 -0.00567148 0.00583238
N 20.99125483 18.49922533 16.90648007 0.00124993 -0.00190545 0.00378987
N 21.63720197 10.19300976 12.70527120 -0.00385525 -0.00334128 -0.00070069
N 19.93316485 13.03277402 10.70059282 0.00147340 -0.00192816 -0.00172813
N 19.24390659 15.69690181 15.25672785 0.00362319 0.00344892 0.00732988
N 21.86261493 10.89751406 16.86375706 -0.00348590 -0.00343579 -0.00204759
N 20.49323300 17.98867140 12.01593545 0.00106380 0.00072731 -0.00545264
N 18.59097873 15.28206710 19.47630620 -0.00074444 -0.00524627 -0.00245154
N 20.08822673 13.69850183 23.78006926 0.00504972 0.00415687 0.00297142
N 20.58023801 18.64683317 26.55155079 0.00039954 -0.00554964 0.00004971
N 21.47080637 10.50132868 22.04352211 -0.00234806 -0.00484773 0.00095824
N 19.75736732 13.22467306 19.67243992 0.00303845 0.00005413 -0.00465987
N 19.02696874 15.53603621 24.66991447 0.00269835 -0.00384965 0.00248832
N 21.79367773 10.90438602 25.94280211 -0.00679840 0.00098972 0.00591121
N 20.71349496 17.96423894 21.34862864 -0.00420465 0.00325053 0.00082648
N 18.83219705 24.85202570 1.23685427 0.00204902 -0.00474048 -0.00455750
N 20.07495932 23.10458949 6.00701936 0.00500260 -0.00059641 -0.00459753
N 20.48575301 28.18463850 7.71763752 -0.00443200 -0.00442800 -0.00034536
N 22.09514666 19.81253556 3.28590721 -0.00630190 -0.00338175 0.00085044
N 20.01184776 22.87847968 1.39059118 -0.00653902 -0.00391842 0.00307994
N 18.87598509 25.10358479 5.92411007 -0.00140389 0.00610179 -0.00200856