1728
Time=5000.00000000 pbc="T T T" Lattice="21.89573093 0.00000000 0.00000000 0.00000000 28.92297843 0.00000000 0.00000000 0.00000000 27.47853496" energy=-10388.51494443 virial="24.22261627 -5.43670566 -7.08562383 -5.43670566 -0.70447322 12.36181699 -7.08562383 12.36181699 -83.40101928" stress="0.00333808 -0.00029694 -0.00045756 -0.00029694 0.00247649 0.00077266 -0.00045756 0.00077266 -0.00177886" Properties=species:S:1:pos:R:3:vel:R:3
N 0.27623345 5.67947376 0.77589116 -0.00087626 -0.00002201 -0.00043759
N 1.42620793 4.15721596 5.79838227 -0.00263198 -0.00329764 0.00134253
N 1.86911181 9.20546974 7.84114045 -0.00535243 0.00284262 -0.00082877
N 3.64185109 0.75487243 3.36643240 0.00397545 0.00183212 0.00010955
N 1.40347884 3.79247977 1.46072330 0.00355671 0.00674748 0.00169083
N 0.27899943 6.12758882 6.04701219 0.00002168 -0.00486312 -0.00359135
N 3.42381659 1.32778068 7.61264608 -0.00017537 -0.00400195 -0.00064558
N 2.00645938 8.18949435 2.90794353 -0.00041584 0.00272211 -0.00192257
N 0.26351840 5.34204778 10.12924174 -0.00528987 -0.00158935 0.00170785
N 1.69184797 4.12840282 14.68421158 -0.00209706 -0.00013336 -0.00193895
N 2.40802348 8.95281839 16.74911891 -0.00074289 0.00880922 0.00122308
N 3.58002640 0.74378738 12.65239276 -0.00456966 -0.00014499 0.00118046
N 1.65184574 3.61504575 10.67565538 0.00134523 -0.00665010 0.00281632
N 0.27586808 5.91639946 15.02405866 -0.00374142 0.00409546 -0.00085867
N 3.29354932 1.20506729 16.99166187 -0.00867218 -0.00835352 0.00087515
N 2.14406925 8.42546393 12.18651708 -0.00319976 0.00027780 -0.00034969
N 0.67041931 5.68275191 19.27468316 0.00614363 0.00202038 0.00106601
N 1.61871191 4.13721730 23.87599974 -0.00687589 0.00591500 -0.00040924
N 2.18246273 9.16151388 26.10863476 0.00148917 -0.00958942 -0.00408489
N 3.26153788 0.56092515 21.83069656 0.00273790 -0.00092510 -0.00265625
N 1.41958593 3.50610227 19.74266496 -0.00001279 0.00201070 0.00134351
N 0.40921347 6.07528505 24.00623521 0.00387221 0.00231690 0.00409192
N 3.26780868 1.25136784 26.02766852 -0.00125960 0.00087687 0.00228898
N 2.14286807 8.56770249 21.19386427 0.00243102 -0.00714642 -0.00004910
N 0.36062132 14.92548603 1.01624527 -0.00021083 0.00532196 0.00151612
N 1.61108682 13.68703143 5.42318053 -0.00704084 -0.00341130 -0.00469946
N 2.27664870 18.80112254 7.78116992 -0.00016209 -0.00118299 -0.00373400
N 3.14098148 10.14923885 3.33495279 0.00497370 -0.00118344 0.00698104
N 1.53798159 12.94497888 1.28111435 0.00788490 -0.00328793 -0.00176429
N 0.45718521 15.65967739 5.79270614 0.00148810 0.00281281 -0.00485925
N 3.35010174 11.01637508 7.75300017 0.00063049 -0.00299518 0.00376878
N 2.06698722 18.22208184 3.04396209 -0.00159026 -0.00084326 0.00689389
N 0.12032499 15.08673329 10.00323073 0.00109987 0.00114794 -0.00264319
N 1.73778991 13.60302649 14.90344938 -0.00721979 0.00861549 -0.00184170
N 2.09060775 18.36903782 17.21565268 -0.00506087 -0.00120633 -0.00416198
N 3.50158232 10.16479783 12.48725232 0.00367716 -0.00028960 -0.00085109
N 1.47929108 13.31138857 10.46278641 0.00392052 0.00579774 -0.00770882
N 0.40227273 15.44257403 15.08433913 0.00376765 -0.00184010 0.00242408
N 3.33949616 10.99204055 16.69255839 0.00408762 -0.00406438 -0.00501190
N 2.04083430 18.01877645 12.00023714 -0.00237151 -0.00545751 0.00137953
N 0.36824918 15.05379532 19.55509617 0.00849716 0.00421672 -0.00153322
N 1.59331486 13.68576219 23.96290181 -0.00494692 -0.00531473 0.00294515
N 2.19635173 18.58087668 26.20606904 -0.00212489 -0.00127903 -0.00344020
N 3.27080108 10.54886169 21.63220502 -0.00062103 0.00238579 0.00107972
N 1.48246211 13.09582100 19.82831564 0.00001308 0.00277842 -0.00172993
N 0.32040068 15.65709457 24.35598170 0.00293432 -0.00399127 0.00070368
N 3.58211531 10.98467830 25.78695892 0.00004362 -0.00403754 0.00496332
N 2.47542184 17.68129975 21.32752888 -0.00063200 0.00236195 -0.00661376
N 0.36416512 24.95534437 1.16208450 0.00112165 0.00365115 0.00006203
N 1.38515377 23.64684895 5.68449108 0.00279558 -0.00557419 -0.00197098
N 2.20737290 28.33382633 8.02532348 -0.00257693 -0.00323543 0.00294834
N 3.19791766 20.19288288 3.37123078 -0.00542064 -0.00196445 0.00094886
N 1.29652682 22.88529672 1.36594540 -0.00222105 0.00733008 0.00078823
N 0.22216547 25.57682218 6.04173699 -0.00393481 -0.00094450 0.00229391
N 3.24993058 20.89675365 7.68016517 0.00054801 0.00326047 -0.00610010
N 1.98783592 28.06507570 3.13765862 0.00030419 -0.00723984 0.00062775
N 0.53035759 24.84706514 10.39560963 -0.00140621 0.00707779 0.00341510
N 1.63060927 23.23968352 15.02287372 0.00044535 0.00232700 0.00914640
N 2.41951908 27.94369177 17.28129720 0.00235862 -0.00121697 -0.00137064
N 3.35597982 19.75666538 12.53187357 -0.00092911 0.00004836 -0.00225461
N 1.72103810 22.86229258 10.60096412 -0.00335145 -0.00235416 -0.00283715
N 0.58578360 25.37366314 15.27729041 0.00155567 0.00669300 0.00044772
N 3.15953867 20.41624496 17.01611245 0.00737329 0.00602873 0.00020017
N 2.25603898 27.78643846 12.44611744 0.00463696 0.00188779 -0.00123167
N 0.15181676 24.59013471 19.63374472 -0.00420982 -0.00268352 -0.00363451
N 1.60513913 23.50031823 24.08720622 -0.00216055 -0.00537778 -0.00560209
N 1.89784948 28.36798971 26.27281564 0.00111916 0.01061065 -0.00031142
N 3.61908574 19.73899448 21.58131564 0.00468818 -0.00207836 -0.00603171
N 1.53132051 22.77642845 19.87028410 -0.00052439 0.00316525 0.00320099
N 0.34425569 25.35346826 24.50636039 0.00036617 0.00524771 0.00021405
N 3.36790232 20.50770279 25.88958443 -0.00166265 -0.00582518 0.00117055
N 2.08750638 27.57382458 21.52508390 0.00848225 -0.00180426 -0.00327652
N 3.93564864 5.48691474 1.10182448 0.00565313 0.00058576 -0.00070173
N 5.24407851 4.12129016 5.69917235 0.00250501 0.00163614 -0.00044413
N 5.61843608 8.91866961 7.92745601 -0.00047988 0.00045768 0.00739713
N 7.23144786 0.54443336 3.20201709 -0.00199220 -0.00072653 0.00089705
N 5.27780437 3.67463799 1.42518380 0.00004777 -0.00031085 -0.00200757
N 3.89248120 5.97021302 5.89313258 -0.00083764 0.00439628 0.00528275
N 7.04306339 1.27877684 7.50151823 0.00059736 -0.00185931 -0.00547010
N 5.64690643 8.33157876 3.06512043 0.00547156 0.00133141 -0.00596387
N 3.97427847 5.58143387 10.31946329 -0.00181837 -0.00403615 -0.00026180
N 5.38988278 4.14978337 14.94590099 0.00329980 -0.00547812 0.00586474
N 6.02161500 8.83456073 17.48536095 0.01051094 0.00492644 -0.00274148
N 6.78041110 0.60738338 12.47574348 -0.00366333 -0.00468806 0.00716354
N 5.39114544 3.63276131 10.52500403 0.00125558 -0.00260569 0.00595865
N 3.88434024 5.80482711 15.33167823 0.00070852 -0.00207046 -0.00269192
N 7.16785809 0.92903994 16.75826282 -0.00174417 -0.00528104 0.00173364
N 5.81960397 8.48279335 12.00615149 0.00385050 -0.00122809 -0.00660061
N 3.90454326 5.55798848 19.35184312 -0.00184370 -0.00443425 0.00182122
N 5.41624021 4.39904696 24.00467749 0.00346583 -0.00456943 0.00138147
N 5.82287225 8.92339977 26.34541043 -0.00624068 -0.00277367 -0.00123988
N 7.28040512 0.57148746 21.66923677 0.00140837 0.00331558 0.00042997
N 5.09071165 3.60079078 19.52968631 -0.00286810 -0.00022542 0.00108219
N 4.06060908 6.27692254 24.10395537 0.00236742 -0.00220183 0.00070903
N 7.02536249 1.28982983 25.97601969 0.00196787 -0.00346093 0.00348905
N 5.82096613 8.61103120 21.26190803 -0.00054993 -0.00439966 -0.00239227
N 3.84660053 15.04614339 1.19811922 -0.00190182 0.00157544 -0.00619620
N 5.32214026 13.60946929 5.75205875 0.00217578 -0.00110983 0.00177046
N 5.54485901 18.68799738 8.10736844 0.00590503 -0.00157311 -0.00289307
N 6.87069753 10.23159595 3.29840840 -0.00637546 -0.00203423 0.00477502
N 5.01767394 13.02091785 1.33798458 0.00033173 0.00244478 0.00386170
N 4.38531229 15.67776534 6.03472499 0.00293818 0.00212962 -0.00170103
N 7.03464881 10.75841121 7.50934478 0.00278313 0.00216078 0.00138386
N 5.59652246 18.20178010 3.31844517 -0.00281418 -0.00344222 0.00769896
N 3.74743055 15.04209062 10.14185768 -0.00351302 0.00013025 -0.00211255
N 5.37887321 13.83663337 14.73358733 0.00083356 -0.00013676 0.00252110
N 5.64547457 18.70092487 17.25313725 -0.00249834 0.00379514 0.00176107
N 7.31384271 10.22306354 12.32175800 -0.00222856 -0.00079181 0.00617568
N 4.97435906 13.14810718 10.68436878 -0.00285800 0.00687671 0.00334231
N 4.09023198 15.70601322 15.04649897 0.00036015 -0.00015561 0.00136872
N 7.03538512 10.77655108 16.65591273 -0.00038777 -0.00367489 0.00216344
N 5.58234111 17.95210897 12.24212358 0.00429665 -0.00298854 -0.00402926
N 4.00356452 15.09719857 19.11755124 0.00157453 -0.00130206 0.00482378
N 5.22092137 13.97238145 24.20871362 0.00025198 0.00158848 0.00095627
N 5.99662049 18.56157774 26.41391491 -0.00320765 0.00066951 -0.00736309
N 7.14775315 10.32187840 21.83062130 0.00038471 0.00108861 -0.00474066
N 5.25268129 13.38689465 19.84492281 0.00650416 -0.00118537 -0.00294138
N 4.19043310 16.05316517 24.15010540 -0.00207819 0.00475875 0.00474371
N 7.07232884 10.86804650 25.96322199 0.00474734 0.00525842 -0.00105476
N 5.99390845 17.85067205 21.62216232 0.00696452 0.00159539 -0.00422772
N 3.86016745 24.81344193 1.34800955 0.00399174 -0.00071578 -0.00032240
N 5.23801041 23.49543650 5.84397737 -0.00266897 0.00173118 0.00244858
N 5.58708815 28.42824118 7.61196759 0.00163585 -0.00392804 -0.00458854
N 6.87193787 20.11901983 3.35026977 -0.00146508 -0.00282253 -0.00008750
N 5.11420240 22.94329029 1.44450114 -0.00086611 -0.00067502 -0.00381756
N 3.82788205 25.31187219 6.21823837 0.00223687 0.00829224 -0.00191698
N 6.80112517 20.64417787 7.79455102 -0.01120000 0.00085385 0.00632022
N 5.73566307 27.78596956 3.02321760 0.00823965 -0.00041412 0.00561342
N 4.10078424 25.05432475 10.35327468 -0.00686084 0.00083438 -0.00206816
N 5.23466164 23.43032803 15.01435804 -0.00113844 0.00682440 0.00122396
N 5.53673201 28.27229713 17.16052515 -0.00005433 -0.00291721 -0.00230460
N 6.97730377 19.66000740 12.71417261 -0.00179283 0.00312223 0.00065022
N 4.98520708 22.97790218 10.72947681 -0.00230765 -0.00547139 -0.00297829
N 4.05732997 25.37104311 15.14381158 -0.00011579 0.00534532 0.00044976
N 7.12637181 20.47706413 16.87734125 0.00077532 -0.00124025 -0.00508843
N 5.64549063 27.53896530 12.20439586 -0.00125997 0.00063132 -0.00193629
N 3.96581817 24.78844968 19.61026199 -0.00287105 -0.01187250 0.00217850
N 5.21259038 23.23646582 23.98193411 0.00347182 0.00055768 -0.00137935
N 5.72836252 28.43447253 26.24087948 -0.00030761 -0.00289947 0.00534987
N 7.13575234 19.80847412 21.88313876 -0.01052114 -0.00224194 0.00070242
N 4.99058900 22.77657835 19.69097965 -0.00005584 0.00515015 0.00233700
N 4.22226936 25.24528663 24.38202549 -0.00225337 0.00340922 -0.00437999
N 7.15416352 20.55859627 26.21032769 0.00676211 0.00280211 0.00344158
N 5.85466455 27.72186992 21.36675389 0.00392113 -0.00113742 0.00105390
N 7.64814714 5.47761617 1.07372215 0.00396765 0.00080182 0.00662090
N 8.89773081 4.16999907 5.49736464 0.00017988 -0.00257597 -0.00367561
N 9.37708113 9.02167109 8.01143530 0.00248343 0.00317478 0.00197191
N 10.51481358 0.59296780 3.38129871 0.00524524 0.00216705 -0.00032624
N 8.80325774 3.55452446 1.17631375 -0.00332869 -0.00214169 -0.00348362
N 7.74786245 6.10502129 6.04638804 0.00128003 0.00317428 -0.00419855
N 10.60878852 1.07566000 7.59789757 -0.00191601 -0.00823413 -0.00362993
N 9.48347605 8.48939022 3.09776642 -0.00260632 -0.00117675 -0.00113588
N 7.54921480 5.52606150 10.36108065 -0.00154350 0.00203223 0.00113460
N 8.86233936 3.89436328 14.73236326 0.00259591 0.00382772 -0.00185810
N 9.27003297 9.01675950 16.99258518 0.00137020 -0.00132541 0.00322815
N 10.70044166 0.58360394 12.77314453 0.00561633 -0.00020735 0.00318022
N 8.75172039 3.55425330 10.74981888 -0.00502330 0.00230079 0.00073763
N 7.74669529 5.82859489 15.04112205 -0.00358998 -0.00262385 0.00148708
N 10.44540951 1.40573388 16.94636764 -0.00642693 0.00093888 0.01063118
N 9.61895110 8.10658884 12.20268672 0.00546530 -0.00107916 -0.00317048
N 7.63419687 5.52868189 19.37690015 0.00226266 0.00892714 0.00764017
N 8.98717038 4.32899339 23.85607112 0.00624779 -0.00257189 -0.00025263
N 9.28740467 8.92857239 26.34585069 -0.00096585 0.00535049 -0.00149521
N 10.67341642 0.62955839 21.82345303 0.00452901 -0.00218876 0.00103952
N 8.66482402 3.44741403 19.70925690 0.00192620 -0.00037010 0.00272600
N 7.75007163 6.31576853 24.27581455 0.00045335 -0.00086427 -0.00101896
N 10.45152514 1.27141458 26.10060178 0.00070907 -0.00206217 -0.00249466
N 9.47813565 8.16894534 21.37122607 0.00079401 0.00067575 -0.00477402
N 7.23216850 15.00585428 1.29315817 0.00213597 -0.00453477 -0.00509778
N 8.83049468 13.96760716 5.49388665 0.00056790 0.00388482 -0.00056428
N 9.51279954 18.17982153 7.96573859 -0.00009628 0.00264087 -0.00227620
N 10.68938317 10.43117599 3.38394436 0.00135556 0.00340266 -0.00406920
N 8.57748764 13.05598341 1.47900388 0.00165947 0.00183642 -0.00647078
N 7.42232404 15.69736390 6.12067341 -0.00224752 0.00165166 -0.00000455
N 10.52171807 10.91384766 7.48626927 0.00720607 0.00178743 -0.00053225
N 9.23630477 18.30195871 3.12363093 -0.00178596 0.00069672 -0.00208023
N 7.70882772 15.23531566 10.37649921 -0.00653058 0.00227863 0.00222000
N 8.98045814 13.97524388 14.93832895 -0.00153394 0.00195333 0.00108009
N 9.52182476 18.62040094 17.22710157 -0.00181182 -0.00013354 0.00352540
N 10.61928393 10.20073306 12.48020090 -0.00311584 0.00341921 -0.00393781
N 8.85766942 13.28251342 10.49977664 -0.00346762 -0.00237066 -0.00207306
N 7.53406402 15.77144429 15.28317492 0.00609820 -0.00282353 0.00102099
N 10.78569239 10.83386437 16.90331736 0.00183099 -0.00278365 -0.00653836
N 9.44368248 17.89554546 12.38704189 -0.00185243 0.00049315 0.00354727
N 7.83712562 15.09693911 19.57940831 -0.00126789 -0.00151927 -0.00542747
N 8.96311493 13.75530950 24.12252458 0.00134689 0.00395248 -0.00507527
N 9.87454174 18.47880447 26.69149604 0.00359348 0.00395043 0.00107728
N 10.47816318 10.12582332 21.76797047 -0.00517486 0.00286609 0.00232202
N 8.99675425 13.08824247 19.79468325 -0.00340418 0.00361474 0.00117024
N 7.65360697 15.61407989 24.66465892 0.00089456 0.00417401 -0.00390745
N 10.68982799 10.74540091 25.95117177 -0.00158673 0.00431880 0.00444987
N 9.32140404 18.07948908 21.51000431 0.00091348 -0.00126876 -0.00098385
N 7.35029650 24.70051169 1.34141179 0.00077381 0.00108845 0.00325986
N 8.86711951 23.52252923 5.81388922 -0.00287596 -0.00421741 -0.00433628
N 9.27441708 28.15545274 7.84892391 -0.00022483 -0.00323453 -0.00015742
N 10.55803257 20.18040134 3.50352218 -0.00382628 0.00629082 -0.00716205
N 8.91832951 23.02030920 1.67650903 -0.00199340 0.00120805 -0.00456572
N 7.57217414 25.43969065 6.00141322 -0.00102221 0.00567859 0.00110397
N 10.49804536 20.24423700 7.72887523 0.00093464 0.00388108 -0.00243732
N 9.40294252 27.48149281 3.11580993 0.00280708 0.00464033 0.00421193
N 7.74920438 24.84769988 10.29797620 -0.00071163 0.00023532 -0.00027927
N 8.95306067 23.45785045 15.15863730 -0.00360286 -0.00691405 -0.00485709
N 9.56809259 28.23391066 17.21386837 0.00443836 -0.00451707 -0.00250383
N 10.42454335 19.94262206 12.52726359 0.00258917 -0.00483727 -0.00258722
N 8.69353375 22.71083732 10.47653332 -0.00151787 -0.00312816 0.00568240
N 7.60819811 25.26190699 15.24690940 -0.00007625 0.00038592 -0.00146871
N 10.77976305 20.46547829 16.96398683 0.00270644 -0.00624279 0.00199604
N 9.31128360 27.64637901 12.31559578 0.00227231 -0.00105387 0.00589089
N 7.37349660 24.73562488 19.70421387 -0.00253801 -0.00261776 -0.00549135
N 9.15979566 23.54899586 24.19726951 0.00768997 -0.00036634 0.00305599
N 9.18350980 28.20694109 26.28269222 0.00249573 0.00088620 0.00033214
N 10.47116518 20.06638031 21.82004706 -0.00228146 -0.00033508 -0.00141667
N 8.65364906 22.83572009 20.04912958 0.00250766 -0.00081246 0.00889081
N 7.48483150 25.16451964 24.38290602 0.00369294 0.00451820 0.00401650
N 10.64642086 20.57463945 26.18532829 0.00413038 0.00119860 0.00151725
N 9.43724725 27.55099211 21.55982895 0.00137351 0.00402401 0.00021631
N 11.28670986 5.40409514 1.22263045 -0.00056954 0.00059042 -0.01059328
N 12.43743542 4.06608564 5.78718079 -0.00111060 0.00188064 0.00257145
N 13.21341235 9.02430681 8.25273888 -0.00213542 0.00255902 0.00391327
N 14.28899562 0.70186284 3.45855945 -0.00474519 0.00218112 -0.00244434
N 12.48138360 3.43933080 1.64477024 0.00103387 -0.00628550 0.00031495
N 11.40892538 6.11169124 6.23253778 -0.00374893 -0.00176957 0.00349817
N 14.41480754 1.12267464 7.78446560 0.00156041 0.00617959 -0.00316676
N 12.97269999 8.50994241 3.36976947 0.00274423 0.00413771 -0.00402742
N 11.48927671 5.51049403 10.40620170 0.00238628 -0.00394822 -0.00132304
N 12.55782141 4.27484892 15.13805828 0.00207964 -0.00322992 0.00049334
N 13.05961538 9.24123551 17.56062132 0.00266677 0.00119873 -0.00127644
N 14.08151541 0.59001716 12.64860953 -0.00069511 0.00198042 0.00089857
N 12.46266790 3.49187386 10.67828569 0.00123071 0.00141871 0.00727859
N 11.59537668 6.33074071 15.43089871 0.00491525 0.00236971 0.00331554
N 14.19573507 1.08572760 16.99696727 -0.00297960 -0.00093343 -0.00321500
N 13.12779787 8.44790505 12.12072072 0.00167718 0.00058615 -0.00166418
N 10.94284654 5.35727414 19.46321095 -0.00038370 0.00018056 0.00123610
N 12.76186707 4.07951058 24.14713079 -0.00246807 -0.00262814 -0.00124408
N 12.95435500 9.05455292 26.61975097 0.00233992 0.00349050 -0.00255373
N 14.38140417 0.59669749 21.72550649 0.00337709 -0.00550279 -0.00301036
N 12.28523369 3.43461275 19.79525716 0.00106062 0.00363013 0.00729373
N 11.55306700 6.05924670 24.42044488 0.00416490 0.00500765 -0.00436371
N 14.44654722 1.09709386 26.25084858 -0.00162017 0.00231535 0.00568621
N 12.97441922 8.27415591 21.47216874 -0.00304674 -0.00336100 -0.00222640
N 10.97045645 15.15516806 1.06668896 -0.00382479 -0.00192075 0.00268811
N 12.40005024 13.86641121 5.49570303 -0.00391346 0.00152080 -0.00280061
N 12.98262381 18.62889725 8.03584450 -0.00251573 0.00058876 -0.00230117
N 14.43548430 10.33786688 3.66957955 0.00142581 -0.00080555 0.00223657
N 12.47199657 13.37520388 1.34186061 0.00280334 -0.00407344 -0.00026351
N 11.16853572 15.75016941 5.84255213 -0.00044340 0.00283498 0.00300079
N 14.23866022 10.92821639 7.49545505 0.00660641 -0.00296440 0.00044022
N 13.08281411 18.05748590 2.90249385 0.00627537 -0.00072217 -0.00330754
N 11.39216183 15.05591148 10.34240967 0.00031208 -0.00192245 -0.00866171
N 12.64474202 14.03188669 14.91262598 0.00058393 0.00055738 -0.00133458
N 13.18315415 18.59262944 17.14716092 0.00151463 0.00359031 0.00168065
N 14.43620508 10.34795438 12.55707773 -0.00009960 0.00160480 -0.00168662
N 12.57641466 13.20417151 10.59169880 0.00432024 0.00623385 -0.00273706
N 11.47091177 15.99052431 15.16771355 -0.00499160 0.00167609 -0.00356536
N 14.36311863 10.89352705 16.79814665 -0.00226702 0.00340364 0.00291262
N 13.22692237 18.17880790 12.46042428 -0.00398695 0.00118608 0.00384989
N 11.55432436 15.01781641 19.41266980 -0.00444007 0.00082218 -0.00026092
N 12.61686180 13.89155330 23.93026580 0.00254321 0.00230362 0.00223553
N 13.01365462 18.37843656 26.23655666 0.00328997 0.00084223 0.00204030
N 14.34047649 10.20936744 21.74490796 -0.00348768 -0.00059790 0.00545742
N 12.47802469 12.95673811 19.78970785 0.00311425 -0.00055591 0.00650787
N 11.20051717 15.68490574 24.17148964 0.00371138 0.00020649 -0.00218842
N 14.22302907 10.94896263 26.05811118 -0.00044522 0.00251245 -0.00347731
N 13.09573928 18.26229215 21.20509793 0.00295911 -0.00099228 0.00355148
N 11.22958941 24.72877306 1.25431678 -0.00248180 0.00298611 -0.00412363
N 12.39387559 23.23389416 5.75808324 -0.00168796 0.00610774 0.00182730
N 13.01370758 28.22849682 8.10803089 0.00120426 0.00488248 -0.00164836
N 14.26664182 19.93334759 3.49293862 -0.00404649 0.00398512 -0.00108659
N 12.19472006 22.67987957 1.54438805 -0.00051124 0.00267687 -0.00178484
N 11.14520234 25.24100375 6.08398148 -0.00197563 0.00443354 -0.00182180
N 14.22016258 20.42518909 7.82212976 -0.00141314 -0.00673451 0.00255547
N 13.25434780 27.56077084 2.91108250 0.00508924 0.00125673 -0.00152242
N 10.97787975 24.68159890 10.39377268 0.00005605 0.00632894 -0.00075816
N 12.55834095 23.51248684 14.84544869 -0.00513407 0.00303160 -0.00164752
N 12.98414375 28.03426095 17.26596753 0.00152380 0.00325433 -0.00296277
N 14.58416304 20.05127544 12.51664950 -0.00715152 0.00326891 0.00285303
N 12.37972811 22.88461856 10.66106723 0.00136882 -0.00440060 0.00257459
N 11.12476937 25.34775365 15.23522692 0.00604417 -0.00101269 0.00087071
N 13.91416373 20.69843766 16.76768047 -0.00375092 0.00482460 -0.00315628
N 13.11374741 27.43245341 12.48123614 -0.00010934 -0.00014467 0.00294398
N 11.02786728 24.49813639 19.58749676 0.00303844 -0.00204863 -0.00077939
N 12.70815940 23.53615788 24.06295098 -0.00329374 -0.00155568 0.00141803
N 13.06578969 28.09187522 26.22954093 -0.00667122 0.00350980 0.00000269
N 14.53839646 19.92287661 21.95110596 -0.00222434 -0.00170393 0.00069117
N 12.27992402 22.68177012 19.79532722 -0.00211417 -0.00306229 -0.00203842
N 11.31539687 25.25574739 24.58164344 0.00648053 0.00336363 -0.00319360
N 14.06138167 20.41784410 26.01930749 0.00386615 -0.00135554 0.00072169
N 13.19990296 27.54723708 21.60251891 -0.00696126 -0.00069216 0.00003347
N 14.92752436 5.56836781 1.32161106 0.00143351 0.00380367 -0.00117505
N 16.16705282 4.32523850 6.01254340 -0.00454290 -0.00800628 -0.00029316
N 16.80604955 8.98945154 7.97866650 -0.00259508 -0.00380437 0.00057152
N 17.80354442 0.64735465 3.64867313 -0.00233731 0.00485542 -0.00009449
N 16.09367372 3.58192380 1.74183401 -0.00026907 0.00378176 -0.00767631
N 14.74928287 6.07514823 6.40702366 0.00225103 -0.00229889 0.00031269
N 17.89224021 1.05391451 7.88615895 0.00329099 -0.00148907 -0.00324220
N 16.72607279 8.44386419 3.14600427 -0.00352185 -0.00474838 0.00064483
N 14.72341095 5.44174077 10.45626906 -0.00300086 0.00313633 0.00252884
N 16.20937111 4.36868034 15.06470367 0.00762020 0.00506453 -0.00119914
N 16.77273105 9.12794332 17.14395665 0.00226685 0.00322898 0.00923147
N 18.01240679 0.64408159 12.69830730 -0.00254746 -0.00023849 -0.00655226
N 16.13475599 3.55342017 10.72075193 -0.00151774 -0.00349383 -0.00343829
N 14.93631307 6.25587409 15.42026727 0.00058123 -0.00061556 -0.00322015
N 17.88544224 1.16840940 16.92135162 0.00058788 0.00075882 -0.00036760
N 16.61501435 8.45952048 12.36437113 -0.00385695 0.00148323 -0.00406122
N 14.89975401 5.44356439 19.45199321 0.00163525 -0.00056792 -0.00535662
N 16.30080099 4.13047079 24.02295430 0.00036945 0.00102939 -0.00122335
N 16.71111916 8.97360470 26.25566481 0.00076886 0.00393415 -0.00762636
N 18.21246508 0.71568876 21.83514939 0.00461654 -0.00246961 -0.00371273
N 16.09803714 3.52187451 19.80455805 0.00412370 0.00063027 -0.00077160
N 15.12985809 6.10227815 24.54784618 0.00141221 0.00314077 0.00020974
N 17.83259017 1.25758753 26.13669852 0.00443379 -0.00433003 0.00294555
N 16.57533039 8.29477571 21.39570807 0.00321109 0.00343974 0.00166807
N 14.77871982 15.01694112 0.89548296 0.00576031 -0.00184252 -0.00171146
N 16.03859913 13.94854557 5.85929787 0.00832639 -0.00340132 -0.00192979
N 16.81317683 18.49072675 8.06313912 0.00512474 0.00441395 0.00389363
N 17.93874004 10.43424045 3.44147511 0.00772400 0.00130462 -0.00333324
N 15.85431923 13.10614991 1.32391074 -0.00122573 -0.00176734 -0.00425861
N 14.69141302 15.77649698 6.13252678 -0.00393958 0.00132301 -0.00172561
N 17.88168437 10.98053351 7.60991540 -0.00166257 -0.00121404 0.00049257
N 16.50912962 17.87949997 3.10602959 -0.00545527 -0.00046856 -0.00147060
N 14.91028459 15.34337331 10.47629551 -0.00267165 -0.00763529 0.00661791
N 16.17886970 14.00655975 15.00087554 0.00426633 0.00383321 -0.00656350
N 16.46871002 18.69498038 16.89146762 -0.00194948 -0.00496017 0.01145166
N 18.15834362 10.17650354 12.58891252 -0.00305684 -0.00542275 0.00190658
N 15.99639259 13.27726109 10.67424567 -0.00376050 0.01001620 0.00563899
N 14.99793121 15.99244198 15.11339830 0.00093721 0.00329786 -0.00230570
N 17.88895320 11.08863341 16.92171455 -0.00061755 -0.00107315 -0.00459790
N 16.80471611 18.28932103 12.25410483 -0.00374117 0.00364419 0.00630789
N 14.78115946 15.14471927 19.56590628 -0.00256525 0.00467907 0.00118437
N 16.32714999 13.82059076 23.80901706 0.00106987 -0.00440242 0.00614353
N 16.73474128 18.47709719 26.55815730 0.00942635 0.00378468 0.00283706
N 17.73267232 10.27225395 21.82422618 -0.00228266 0.00069747 -0.00202176
N 16.08447268 13.22405157 19.58343211 -0.00224210 -0.00619806 0.00201356
N 14.89133150 15.65648994 23.93708264 -0.00304451 0.00386547 0.00161467
N 18.00047423 10.83085391 25.98042271 0.00077996 -0.00621006 -0.00543951
N 16.66690818 18.18958271 21.41476780 0.00068862 -0.00245472 0.00031677
N 14.83394507 24.60044170 1.11283512 -0.00669357 0.00250066 0.00246679
N 16.16403075 23.30518212 5.64906312 -0.00566794 0.00295511 -0.00283026
N 16.54831234 28.04411735 8.16777201 -0.00408932 0.00639599 -0.00919980
N 17.88166340 19.78742221 3.43189393 0.00305775 -0.00064989 0.00040957
N 16.03899437 22.64757545 1.37753375 0.00454958 0.00011561 0.00041824
N 14.81181740 25.18273412 6.04429449 -0.00169038 -0.00108164 0.00266913
N 17.86002901 20.51643613 7.61108165 -0.00161006 -0.00176169 0.00261840
N 16.66946861 27.61139422 3.27889079 0.00149085 0.00514453 -0.00143344
N 14.99963260 24.56252476 10.49013272 -0.00109763 0.00159620 0.00258901
N 16.18001234 23.43123334 15.04712922 -0.00394878 -0.00298202 -0.00455630
N 16.70537121 28.24642653 17.41747587 -0.00208550 0.00130007 0.00354673
N 18.22960416 20.11789622 12.47502450 0.00330221 -0.00053666 -0.00391214
N 16.22624218 22.63636649 10.43766593 -0.00526914 -0.00450477 -0.00021954
N 14.95182914 25.34179909 15.32615844 -0.00170944 -0.00652935 0.00219458
N 17.87983418 20.58106948 16.89725606 -0.00157630 0.00112389 0.00239574
N 16.69835127 27.69006015 12.42589773 -0.00331770 -0.00083583 -0.00018758
N 14.67613336 24.87265232 19.75729346 0.00131013 -0.00037785 -0.00025455
N 16.30661198 23.65529720 24.12286677 -0.00040003 0.00495160 0.00225768
N 16.69992753 28.27666239 26.39963915 0.00182027 -0.00145017 0.00343027
N 18.08575304 19.98712169 21.96746898 0.00146755 -0.00133231 0.00777428
N 16.03018125 22.91889042 19.56015583 -0.00320323 -0.00090759 -0.00133428
N 14.80735049 25.43988044 24.40321169 0.00313307 0.00028003 -0.00228669
N 17.61759182 20.45994595 25.83008161 -0.00666223 -0.00078629 0.00458184
N 16.88424329 27.79970261 21.49841733 -0.00507283 0.00020146 0.00195287
N 18.47986379 5.57119009 1.33483976 0.00262033 -0.00084528 0.00168116
N 19.81880958 4.29848320 5.76859307 0.00085364 0.00073918 -0.00327664
N 20.34555622 9.12447062 7.86562981 -0.00397016 -0.00528959 0.00197219
N 21.51045366 0.86253012 3.49375205 0.00633145 0.00171925 0.00618803
N 19.75993167 3.69568723 1.57932037 -0.00130374 0.00174815 -0.00069245
N 18.55087421 6.17307725 6.21471042 -0.00611212 -0.00282012 -0.00138113
N 21.57228506 1.01982740 7.74976716 0.00195350 -0.00290913 0.00018483
N 20.39847996 8.35342622 3.16280024 -0.00066597 0.00257004 0.00574503
N 18.51662052 5.31415050 10.53128726 -0.00542078 0.00230974 -0.00728476
N 19.64268957 4.23143596 15.00713296 0.00166607 -0.00021645 0.00742864
N 20.39656995 8.89325849 17.14835276 0.00228158 0.00086599 -0.00412389
N 21.88918458 0.67860135 12.74981105 -0.00457688 0.00438450 0.00131780
N 19.68999224 3.33648873 10.65031422 -0.00649764 -0.00528591 -0.00400510
N 18.48637657 6.12996715 15.32393326 -0.00040979 0.00005961 -0.00505788
N 21.64220555 1.14089719 17.09847798 -0.00258146 0.00236294 0.00303665
N 20.64832056 8.47282152 12.11967354 0.00063022 -0.00550346 0.00109556
N 18.24933198 5.51213087 19.54386994 -0.00403098 0.00076065 -0.00657171
N 19.87930745 4.11599005 24.09188025 -0.00777116 0.00015127 0.00236909
N 20.58861315 8.89159786 25.96121297 -0.00286138 0.00505866 -0.00159723
N 21.52725098 0.88839755 21.91895469 -0.00035034 -0.00466145 0.00391185
N 19.82467821 3.86691691 19.80258532 0.00232494 0.00446288 -0.00210231
N 18.68812294 6.01355017 24.28711817 0.00191820 0.00395465 -0.00001534
N 21.43762103 1.28207675 26.13340559 -0.00141461 -0.00259830 -0.00064127
N 19.96143969 8.32585520 21.20075631 -0.00439775 0.00394793 0.00046819
N 18.16548191 15.02652482 0.91774247 -0.00131517 -0.00316822 -0.00272076
N 19.74989070 13.88287657 5.68574596 -0.00007235 0.00491008 -0.00022077
N 20.13508251 18.47162968 7.88001849 0.00112974 -0.00096758 -0.00307053
N 21.30250067 10.49242718 3.45301470 -0.00084900 0.00317962 -0.00232930
N 19.59547721 13.29894137 1.22219412 0.00243907 -0.00036155 -0.00667126
N 18.37584587 15.63580695 6.04814372 0.00219764 0.00263275 0.00059295
N 21.49535438 11.03389127 7.40981127 -0.00027815 0.00800686 -0.00024384
N 20.11191123 17.97990440 2.78743714 0.00483701 -0.00239010 0.00276579
N 18.39574217 15.07952655 10.28254392 0.00751159 -0.00281639 0.00191454
N 19.78394633 13.65844449 15.06798363 0.00551795 0.00151316 -0.00167576
N 20.37076988 18.58989826 17.07433198 0.00307671 0.00238862 -0.00583773
N 21.47177703 10.64408007 12.48651223 0.00003400 0.00462391 0.00008916
N 19.62183855 13.16041835 10.48290104 -0.00097083 -0.00414800 0.00521650
N 18.70252083 15.67500479 15.08980377 -0.00126564 -0.00405434 -0.00142733
N 21.54630428 10.85090077 16.94721903 -0.00255735 -0.00040702 -0.00731204
N 20.42171397 17.92337283 12.05312876 -0.00769172 0.00097960 0.00448932
N 18.71765967 15.33065396 19.50353321 -0.00495814 -0.00014397 0.00169868
N 19.95595919 13.96853978 24.03322047 -0.00554263 0.00250900 0.00653235
N 20.29207287 18.66025397 26.30328422 0.00159881 0.00301264 0.00267683
N 21.51216513 10.08687783 21.47656752 -0.00245952 -0.00198464 0.00484172
N 19.58844299 13.19020875 19.81374075 -0.00041665 -0.00149165 0.00108484
N 18.61215365 15.79264602 24.33330323 0.00416294 -0.00199720 -0.00450584
N 21.73836769 10.87971884 25.97893821 0.00142956 -0.00459123 -0.00708344
N 20.46908739 18.06058602 21.40448190 -0.00010030 -0.00114243 0.00302416
N 18.64420603 24.76852307 1.31727303 -0.00192451 0.00017513 0.00202067
N 19.58902366 23.28715357 5.81824617 0.00424877 -0.00313525 -0.00249745
N 20.17973207 28.08149175 8.21418894 -0.00211755 0.00572976 -0.00440147
N 21.53609375 19.74779201 3.17641672 -0.00320414 0.00021978 0.00408065
N 20.03910591 22.91024619 1.60447800 0.00075039 0.00126702 -0.00012580
N 18.45901938 25.24326488 6.17346758 -0.00298531 -0.00291151 -0.00078709