1728
Time=51000.00000004 pbc="T T T" Lattice="22.10432679 0.00000000 0.00000000 0.00000000 28.90974757 0.00000000 0.00000000 0.00000000 27.40830024" energy=-10389.23684537 virial="3.08768194 -21.66404792 7.48801360 -21.66404792 -29.22431327 44.92101996 7.48801360 44.92101996 -13.08669018" stress="0.00243012 -0.00116531 0.00043568 -0.00116531 0.00084097 0.00263177 0.00043568 0.00263177 0.00196975" Properties=species:S:1:pos:R:3:vel:R:3
N 0.81461515 5.64577180 1.26329548 -0.00107113 0.00340244 0.00832215
N 1.88687243 4.25586904 5.87114502 -0.00041591 0.00133562 -0.00162039
N 1.93717381 8.71253801 8.28190052 0.00052928 0.00206738 0.00740054
N 3.62879462 1.03821185 3.60164507 -0.00325936 -0.00430071 -0.00685041
N 1.65176936 3.48152073 1.60729297 -0.00368271 -0.00304017 0.00506678
N 0.62288567 6.15048734 6.22844617 -0.00149905 -0.00588626 0.00388697
N 3.25313771 1.47705107 7.53258377 0.00103095 0.00198432 -0.00323807
N 2.68871636 8.14398752 3.36190849 0.00180651 -0.00002473 -0.00168024
N 0.07164235 5.33695622 10.19672668 0.00404362 -0.00756165 -0.00330454
N 1.71699095 4.16059417 15.40171923 -0.00072189 -0.00232795 -0.00004973
N 1.89064867 8.91152737 16.93955178 0.00609904 0.00157842 -0.00008242
N 3.34672382 0.74765778 12.48357324 -0.00618040 -0.00102396 -0.00455172
N 1.53285373 3.67424695 10.88123998 0.00057401 0.00876909 -0.00239979
N 0.18291474 5.84087195 14.95370538 0.00141304 -0.00288765 -0.00075992
N 3.10836238 1.23234795 16.85782391 0.00778606 0.00726905 -0.01059594
N 2.43345936 8.26062007 12.31562455 -0.00198423 0.00038769 0.00588776
N 0.19725514 5.31099555 19.82111094 -0.00435976 0.00520614 -0.00325650
N 1.51824853 4.27715411 24.37995754 -0.00004634 -0.00107613 -0.00393499
N 1.90341772 8.93701259 26.53796298 -0.00108927 0.01330570 0.00352233
N 3.55983832 0.56838390 21.68392452 -0.00625790 -0.00422916 -0.00490675
N 1.46075445 3.31344216 19.92683710 -0.00616933 0.00171619 -0.00246331
N 0.19622507 6.17877129 24.53506883 -0.00069986 0.00412886 -0.00301127
N 3.67269591 1.54431509 26.11348859 0.00193191 -0.00735536 -0.00074952
N 2.05271114 8.47988808 21.44015927 -0.00772151 -0.00053808 -0.00478889
N 0.43380505 15.23321490 1.34208634 -0.00069170 -0.00068570 0.00467310
N 1.72603209 13.53164027 5.84054616 0.00590292 0.00515828 0.00486387
N 2.22928711 18.59628421 7.67606536 0.00461303 -0.00207100 0.00487483
N 3.82709023 10.18992742 3.50192527 -0.00531071 -0.00435812 0.00004670
N 1.77139705 13.39508360 1.49912186 -0.00269835 0.00211138 0.00675038
N 0.53752132 15.52302498 5.86013241 0.00579163 0.00502104 -0.00123647
N 3.12045685 10.64041311 7.48608776 0.00566528 -0.00572808 -0.00104958
N 2.60701579 17.74591845 3.09423320 0.00054841 0.00202835 0.00296527
N 0.07888305 14.82504559 10.45315432 0.00396114 -0.00058101 0.00199738
N 1.44559950 13.91450165 14.65959160 0.00408616 -0.00178402 -0.00645347
N 2.16798593 18.45378641 17.14812878 0.00066603 0.00122031 0.00443930
N 3.12861023 10.42136345 12.71123423 -0.00131887 0.00537368 -0.00179241
N 1.02627400 12.71053256 10.51020509 0.00327808 0.00270054 0.00720459
N 0.34412798 15.90782748 14.94469465 -0.00127494 -0.00177696 0.00170920
N 2.95917597 10.94645297 16.53753632 -0.00125345 -0.00175975 0.00453292
N 2.05655664 18.15297703 12.22847923 0.00346334 0.00057190 -0.00010870
N 0.12636329 15.10655241 19.34600685 -0.00068482 -0.00561878 0.00831412
N 1.55539258 13.94932887 23.83310914 0.00553485 -0.00700297 -0.00156652
N 2.26819074 18.85993310 26.47087988 -0.00021666 -0.00247833 0.00027768
N 3.54791031 10.31429342 21.85328613 0.00032554 -0.00817107 0.00902414
N 1.40570952 13.16595140 19.51537286 -0.00483973 -0.00272292 0.00020579
N 0.32500892 15.88837142 24.10409079 -0.00080631 0.00260362 -0.00393983
N 3.06602148 10.82601306 25.95363030 -0.00412003 -0.00657038 -0.00016689
N 1.80382243 17.87952030 21.15149945 0.00055296 0.00450587 0.00133636
N 0.53957549 25.03979249 1.23599437 0.00013820 -0.00504084 -0.00275920
N 1.87921829 23.53616877 5.76284601 0.00456814 -0.00384418 -0.00159045
N 2.31730221 28.27848624 7.86028286 0.00173889 -0.00052960 -0.00066592
N 3.78945561 19.71328764 3.44543406 -0.00301020 -0.00201762 -0.00581482
N 1.81346427 23.20338838 1.95383949 0.00277380 -0.00131546 0.00117675
N 0.64023971 25.46174413 6.04836127 0.00085302 0.00167823 -0.00196869
N 3.53118436 20.51616873 7.66068018 -0.00504526 -0.00005884 -0.00195184
N 2.68676983 27.86390551 3.23735773 0.00761577 0.00037436 0.00032460
N 0.03013028 24.69043497 10.55303365 -0.00563498 -0.00115367 0.00968052
N 1.80362692 23.73614465 15.11380810 -0.00212066 -0.00789462 -0.00187294
N 1.82867011 28.16525021 17.08371036 -0.00132085 0.00312840 -0.00027118
N 3.23231588 20.12877207 12.29824381 -0.00008095 0.00036000 -0.00508580
N 1.29863835 22.76419738 10.51000657 0.00213330 0.00464259 -0.00045125
N 0.36085352 25.48443937 15.31255326 -0.00194990 -0.00013572 -0.00102851
N 3.20260251 20.43498002 16.76059894 0.00640337 0.00187119 0.00181641
N 1.97956528 27.82032905 12.18982627 -0.00097250 -0.00527694 -0.00076351
N 22.03836202 24.62532790 19.51620748 0.00023545 0.00024184 -0.00169803
N 1.53450578 23.95097642 24.08464282 -0.00204867 0.00258632 -0.00245550
N 2.52910066 28.47179992 26.68913864 -0.00219413 -0.00089390 0.00159432
N 3.30082740 19.69771348 21.58524101 -0.00573272 0.00537872 0.00732797
N 1.15115433 22.72880897 19.90634220 -0.00927452 -0.00221570 -0.00108955
N 0.78359269 26.01966568 24.71294265 0.00175404 0.00146100 -0.00211716
N 3.18462496 20.95365713 26.26530125 0.00094416 -0.00466455 0.00334075
N 1.95194620 27.81939151 21.50072636 -0.00620131 0.00291557 0.00134242
N 3.72777968 5.53013889 1.38452172 0.00061835 0.00244194 0.00010752
N 5.71220413 4.20938204 5.57550698 -0.00303270 -0.00215359 -0.00296926
N 5.82570637 8.92210135 7.86465006 -0.00100335 -0.00687837 0.00769014
N 7.46075825 0.81488892 3.39208907 0.00000863 -0.00929886 -0.00483095
N 5.27226830 3.82058566 1.65173988 0.00504073 0.00350275 0.00066564
N 4.62448932 6.09542686 6.43733025 -0.00083614 0.00534027 -0.00034650
N 7.16572135 1.45692024 7.80821833 0.00702958 -0.00995424 0.00350252
N 6.23961670 8.59062240 2.96016632 -0.00383034 0.00490982 -0.01151024
N 3.98661379 5.46666974 9.70359746 -0.00407447 0.00034041 0.00386321
N 5.39079294 4.00867447 15.03315866 0.00157014 -0.00251611 0.00412247
N 5.98975506 8.88546376 17.24149193 0.00263480 0.00484640 0.00039843
N 6.89607780 0.61241837 12.60613109 -0.00622167 0.00022711 -0.01016041
N 5.29994109 3.68158603 10.59518940 0.00596517 -0.00128733 0.00102458
N 4.33370415 5.91912783 15.12164835 0.00248851 -0.00195544 0.00007815
N 7.01414354 1.18737585 17.19843221 -0.00034038 -0.00227247 -0.00012034
N 5.90190449 8.19149832 12.11141032 0.00425886 -0.00002930 0.00343187
N 3.76017183 5.71832605 19.41233261 0.00429065 0.00270476 0.01004887
N 5.31427113 4.53086635 24.11937582 0.00322671 0.00847343 0.00321337
N 6.10066130 9.00247109 26.23904193 0.00330856 -0.00156122 0.00426352
N 6.94444803 0.69206349 21.57094693 0.00431240 0.00377907 0.00500831
N 5.09207384 3.88487536 19.82086727 0.00210653 -0.00520740 0.00558318
N 3.90405563 6.33059259 24.33657214 -0.00104787 -0.00688377 0.00148009
N 7.16032511 1.51612806 26.18068536 0.00571710 -0.00365946 -0.00392234
N 5.89999033 8.53625183 21.27910948 0.00223132 -0.00200861 -0.00213151
N 3.97625332 15.28858985 1.10236379 -0.00018217 -0.00239424 -0.00008210
N 5.02599133 13.21126636 5.73496763 -0.00156660 -0.00024806 0.00611208
N 5.93922848 18.57389545 7.85518099 -0.00358502 -0.00794281 0.00168238
N 7.43067967 10.44597150 3.57194372 -0.01070090 0.00309483 0.00930010
N 4.84527739 13.18542039 1.49379090 -0.00128264 0.00394458 0.00253474
N 4.26986182 15.36417795 5.96088231 -0.00224050 -0.00147295 0.00366419
N 7.06509282 10.87492409 7.77071258 0.00534520 0.00270913 0.00368988
N 6.44575693 17.98639171 3.13489603 -0.00416102 0.00376350 0.00156299
N 3.94376582 15.40351796 10.32886979 0.00359851 0.00208202 -0.00171539
N 5.00190403 13.68276078 14.57220765 -0.00306094 0.00032492 -0.00038243
N 5.61254232 18.52494388 17.00098591 -0.00129557 0.00270701 0.00508252
N 7.10437757 10.17376555 12.14403380 -0.00062430 0.00085232 -0.00349774
N 4.94401852 13.27371738 10.69177970 0.00053496 -0.00152644 -0.00073844
N 3.99506396 15.71625852 14.78141491 -0.00391010 0.00063366 0.00189772
N 7.25839494 10.76884451 16.90976700 0.00134903 -0.00335036 0.00787663
N 5.30076953 18.28624668 12.05196019 -0.00116137 -0.00730206 -0.00061902
N 3.79134421 14.93007049 19.09657356 -0.00048303 -0.00073640 -0.00066385
N 5.21636574 13.97486167 23.82824598 -0.00086096 -0.00494734 0.00170746
N 5.70216961 18.55752014 26.08885799 0.00213450 -0.00187780 -0.00127873
N 7.39759757 10.27892456 21.50644670 0.00409137 0.00412414 -0.00010070
N 5.08706705 13.11393079 19.48020463 0.00062826 -0.00282315 -0.00031925
N 3.92046248 15.89334773 24.13518308 -0.00575127 0.00405612 0.00735038
N 6.92375387 11.11568412 25.84064891 -0.00667044 -0.00375860 0.00402546
N 6.03596672 17.52295210 21.34105913 -0.00142572 0.00193551 -0.00154452
N 4.27804721 25.04031909 1.15572687 0.00288863 0.00675608 -0.00306329
N 5.28494440 23.45369961 5.50813540 -0.00896792 0.00205184 -0.00343115
N 5.80620886 28.44269680 7.86264087 -0.00166501 0.00447038 -0.00412224
N 6.88779348 20.14869773 3.67233481 -0.00053982 0.00245592 -0.00472621
N 5.07983421 22.89968881 1.35252135 -0.00506035 0.00302884 0.00259586
N 4.16810868 25.51958961 5.57762398 -0.00262934 0.00280195 -0.00271566
N 7.04888302 20.61112125 7.75768651 -0.00074118 -0.00613169 0.00316237
N 6.26250052 27.81037729 2.91998557 0.00164817 0.00772526 0.00377085
N 3.54125138 24.88752359 10.24763399 -0.00217074 -0.00132846 0.00461021
N 4.84880900 23.31584778 14.61266431 -0.00141897 0.00051946 0.00280324
N 5.42961567 28.43376637 17.32172085 -0.00204093 -0.00206736 0.00516787
N 6.64324427 20.11708520 12.53905896 -0.00101850 0.00241079 -0.00322502
N 4.91398727 23.05108663 10.58288347 0.00028191 0.00458648 0.00110037
N 4.12356077 25.46631700 14.87437558 0.00479834 0.00237200 0.00159638
N 6.59797324 20.65908076 16.80728786 0.00392058 0.00065345 0.01030034
N 5.60075451 27.64514466 12.04197252 -0.00894325 -0.00187736 -0.00256311
N 3.42984023 24.49362091 19.38066461 -0.00360276 -0.00686136 0.00108205
N 5.22616729 23.43805127 23.84012013 -0.00299176 0.00765060 -0.00007470
N 6.18775911 28.28650655 26.14033071 -0.00741275 -0.00142466 -0.00154944
N 7.13321855 19.60047704 21.65233373 -0.00283708 -0.00597329 -0.00032702
N 4.98984012 22.85738187 19.93622107 0.00174917 0.00309831 0.00642417
N 4.16356814 25.37473104 24.15848573 0.00044187 -0.00606417 -0.00369054
N 6.91664791 20.54935186 25.92752452 -0.00198961 -0.00745819 0.00048074
N 5.72829596 27.66968799 20.96957033 0.00511380 -0.00420152 -0.00345562
N 7.81120563 5.53210292 1.01497838 0.00189003 -0.00638742 0.00173191
N 9.30519497 4.19773043 5.73312664 -0.00036457 0.00099533 0.00207991
N 9.53377799 8.92507270 7.80616806 -0.00254159 0.00701909 0.00387947
N 10.58792398 1.11866861 3.57136412 -0.00053643 -0.00313430 0.00028410
N 8.90508851 3.60297387 1.52914526 -0.00315734 -0.00471079 0.00322250
N 7.78290135 6.01860213 5.94834574 -0.00138686 0.00282809 0.00027486
N 10.70279501 1.22730885 7.56409721 0.00160474 -0.00330541 -0.00346967
N 9.76295865 8.28927795 3.16966542 -0.00459172 -0.00686469 0.00155533
N 7.80631924 5.62870479 10.35764109 -0.00091758 0.00214205 0.00300968
N 8.86566863 3.97888796 14.95058757 0.00313040 0.00788055 -0.00103990
N 9.44283576 9.01139366 16.93863242 -0.01096925 0.00295859 -0.00239482
N 10.08524973 0.69201106 12.51826711 -0.00252778 0.00028376 -0.00204137
N 8.77324197 3.60016977 10.43473556 0.00012848 -0.00184848 0.00084698
N 7.84962037 6.03055608 15.16520976 -0.00090023 -0.00352586 -0.00315958
N 10.62191657 0.80124002 16.42352464 0.00038132 0.00025148 -0.00128563
N 9.50469647 8.36087808 12.17884786 0.00027141 0.00409074 -0.00490812
N 7.45552616 5.34940603 19.22561523 0.00445958 -0.00076695 -0.00396214
N 8.91675292 4.36693261 23.98392286 0.00041437 -0.00496830 0.00098225
N 9.43857997 9.00537512 26.48594361 -0.00281432 0.00401113 0.00501150
N 10.16229205 0.77812711 21.62939324 -0.00745767 0.00178254 0.00179694
N 8.69281115 3.41809795 19.79101634 0.00443044 -0.00083027 0.00463220
N 7.80154385 6.36445028 24.44017786 -0.00498322 -0.00264309 -0.00210699
N 10.66628165 1.36317009 26.19236163 -0.00062571 -0.00229059 0.00353679
N 9.56460468 8.16113079 21.31273902 0.00779126 -0.00208668 -0.00226321
N 7.97522643 15.31410783 0.52060459 0.00326463 -0.00241377 -0.00116634
N 9.49629460 13.88749504 5.86967988 0.00623434 -0.00007268 -0.00280048
N 9.50112033 18.63666234 8.22320947 -0.00728570 0.00047447 -0.00727589
N 10.96202254 10.27153024 3.28377160 -0.00024661 0.00905439 0.00697891
N 8.98609698 13.46957630 1.63202220 0.00059348 0.00029206 0.00446958
N 8.35152960 15.84971828 6.22141329 -0.01015736 0.00566682 -0.00186055
N 10.86454674 10.82658316 7.49862580 -0.00123326 -0.00129996 -0.00137788
N 9.87649131 17.91115328 3.27568769 0.00524300 0.00796482 -0.00226687
N 7.55566689 15.60851685 10.14834406 -0.00260526 -0.00256912 0.00084680
N 9.00902624 13.81086336 14.56456446 0.00251864 -0.00323790 -0.00455148
N 9.40402249 18.34229033 17.12958862 -0.00050615 -0.00246998 0.00262804
N 10.54237062 10.38549855 12.48248804 -0.00826703 -0.00089768 -0.00325740
N 8.61638109 13.50650948 10.29704143 -0.00636631 0.00014845 0.00235800
N 7.60506605 15.70635593 14.94358988 0.00221380 -0.00101997 0.00889367
N 11.00847714 10.74522106 16.67294255 0.00113251 -0.00345833 0.00024172
N 9.18090893 18.33723523 11.93526821 -0.00214247 -0.01121148 -0.00253836
N 7.35600137 14.92534682 19.53950657 -0.00068515 0.00487996 0.00433032
N 9.01484729 13.57274333 23.76567761 -0.01091374 0.00329080 -0.00008354
N 9.40019925 18.67577908 26.16914695 0.00483192 -0.00257713 0.00142024
N 10.65833061 10.21873715 21.61120218 0.00252138 -0.00250970 -0.00226926
N 9.08729616 13.40051086 19.63054005 0.00322919 -0.00233511 -0.00159442
N 7.91456380 15.52426002 24.25090735 0.00129982 -0.00512765 -0.00188098
N 10.94941945 10.75893110 26.08181142 -0.00133507 -0.00236682 0.00073210
N 9.50950793 17.81306683 21.19988460 -0.00845515 0.00042566 0.00240121
N 7.76244256 25.12934186 1.23204607 -0.00335060 -0.00006461 0.00068527
N 9.04761998 23.36927415 5.88326512 0.00167934 -0.00107876 0.00024808
N 9.40279182 28.30062829 8.14660834 0.00121460 -0.00537911 0.00000971
N 10.75890151 20.04746526 3.21911176 0.00010967 -0.00180043 0.00435238
N 8.49139956 22.96548271 1.66646529 0.00156170 -0.00827909 -0.00911562
N 7.83847879 25.39876870 5.80561523 -0.00245544 -0.00051733 -0.00116813
N 10.86443185 20.39875087 7.43810250 0.00534369 0.00083563 -0.00194120
N 9.87882766 27.90656985 3.04932459 -0.00538698 -0.00010691 -0.00538503
N 7.53270737 24.83296374 10.46544761 -0.00524836 -0.00274025 0.00241466
N 8.65080744 23.48559230 14.85219277 0.00024259 -0.00200875 0.00119080
N 9.64028524 27.86950339 17.32226674 0.00503294 0.00155133 0.00285968
N 10.33115973 19.98249576 13.10448723 -0.00124152 -0.00453688 0.00352102
N 8.67317369 22.87729518 10.53243337 -0.00052872 0.00567340 -0.00889217
N 7.57867114 25.47973015 15.23471425 0.00266356 -0.00167821 -0.00386983
N 10.34544085 20.44542013 16.85391313 -0.00462121 -0.00211730 0.00773739
N 9.25740830 27.49231248 12.14070740 0.00701199 0.00248230 -0.01011120
N 7.37692285 24.61715701 19.46543226 0.00558056 0.00655092 0.00149861
N 8.81876533 23.22085585 24.06266692 -0.00096317 -0.00105974 -0.00255719
N 9.74002639 28.14997581 26.49324642 0.00146416 -0.00072506 0.00223687
N 10.35425123 19.88790794 21.53329211 0.00283553 -0.01060726 -0.00066613
N 8.69331655 22.75992625 19.84988242 -0.00067876 -0.00045881 -0.00057118
N 7.59993121 25.16261590 24.52388758 0.00066288 -0.00974557 -0.00222699
N 10.81087063 20.43612807 25.99859864 0.00371503 0.00395484 0.00052664
N 9.31408128 27.53389664 21.36112932 0.00049966 -0.00424514 -0.00199017
N 11.70515201 5.84233670 1.32891556 -0.00125320 -0.00047642 -0.00438079
N 12.59401048 3.94323726 5.68097244 -0.00376115 -0.00043055 -0.00558598
N 12.90605344 9.18435978 8.92180370 -0.00017930 -0.00242882 0.00161138
N 14.54035829 0.78898247 3.58510101 -0.00808656 0.00012236 0.00435789
N 12.60590258 3.74018131 1.47215473 -0.00354383 0.00137344 0.00239226
N 11.56109340 6.00038303 6.01173422 -0.00172407 0.00126311 -0.00484097
N 14.32394179 1.52403938 7.83073962 0.00366464 0.00196890 0.00348899
N 13.36575091 8.34368949 3.14784744 0.00462175 -0.00250875 -0.00012234
N 11.67129602 5.82015108 10.00797653 0.00666828 -0.00436911 0.00378694
N 12.51289895 3.94441684 14.40586972 -0.00623305 -0.00088704 0.00494883
N 13.21616531 8.51321660 17.31462944 -0.00266711 -0.00463941 0.00423545
N 14.10991419 0.57502049 12.90305666 0.00101254 -0.00021385 0.00045846
N 12.69415685 3.90501174 10.74254337 0.00310708 -0.00014339 -0.00481293
N 11.46272124 5.94403527 15.11762732 -0.00324543 -0.00107315 0.00166779
N 14.22547369 0.56752517 16.62020127 -0.00214470 -0.01009303 -0.00041913
N 13.23832296 8.38507793 12.60413446 -0.00189809 0.00367847 0.00016868
N 11.42631165 5.36295463 19.31748539 0.00584912 0.00096296 -0.00367958
N 12.27108232 4.19302606 24.06159818 0.00056734 -0.00332423 -0.00230315
N 13.77783667 8.66960999 26.46880306 -0.00175056 0.00358548 -0.00481640
N 14.29092376 0.40522159 21.65884411 -0.00395283 0.00821848 0.00493786
N 12.49480365 3.27815114 19.46295447 0.00173792 -0.00551555 0.00323639
N 11.17880864 6.24613910 24.28868347 -0.00307895 0.00164456 0.00483963
N 14.66665292 1.38595488 25.90780784 -0.00501251 -0.00345800 0.00643272
N 13.11044115 8.04368509 21.56685570 0.00822548 0.00112189 0.00128378
N 11.50281814 15.03277125 1.33992060 -0.00273902 -0.00249045 -0.00210627
N 13.06613152 13.81244548 6.04060931 0.00185985 0.00409286 0.00242298
N 13.37296123 18.82194995 8.30602107 0.00042419 -0.00451331 -0.00854799
N 14.56672055 10.13441992 4.06576584 -0.00180438 0.00184495 -0.00168887
N 12.48477814 12.92936524 1.63949471 -0.00758288 -0.00723863 0.00164356
N 11.77240844 15.71687461 6.24349959 0.00048089 -0.00002256 0.00151824
N 14.42185014 10.54369894 7.90137623 0.00700377 0.00087829 -0.00043024
N 13.61936220 17.90047871 3.06307219 0.00103923 -0.00228433 -0.00110920
N 10.95721322 15.37193588 10.20832835 -0.00146388 0.00242537 -0.00219874
N 13.07443799 13.77742337 14.95498278 -0.01079029 -0.00718268 -0.00417506
N 12.69855499 18.66900488 17.05781982 -0.00027106 -0.00027628 -0.00333411
N 14.38554052 10.41334493 13.22609597 -0.00057128 0.00297300 -0.00021259
N 12.14426369 13.39337434 10.74395914 -0.00236712 -0.00270641 0.00356533
N 11.49482974 15.49351411 15.21705547 0.00000859 0.00454918 -0.00321727
N 14.59221693 10.39491711 17.01032927 0.00318796 0.00341313 -0.00019759
N 12.86540516 17.93848885 12.27417416 0.00252328 -0.00325126 -0.00240981
N 11.80358244 15.06355373 19.15983436 -0.00833860 0.00156275 0.00215628
N 12.78678680 13.49217556 24.02773027 0.00142905 0.00369042 0.00237792
N 13.30649813 18.32478232 25.99542859 -0.00098828 0.00269759 -0.00118893
N 14.33209194 10.04831755 21.94350934 -0.00156085 -0.00183955 -0.00404182
N 12.54378274 12.97679390 19.55129157 0.00523077 -0.00630791 0.00218137
N 11.66743705 15.46713123 23.99765600 -0.00332968 0.00240096 0.00054290
N 14.45015481 10.85517359 25.92992614 -0.00164030 0.00808787 0.00288327
N 13.01222262 17.90377735 21.56918283 0.00326102 -0.00508067 -0.00672021
N 11.28678649 24.99064989 1.11159330 -0.00482016 0.00296620 -0.00164150
N 12.41695263 23.28972270 5.48416985 -0.00003488 0.00375860 -0.00102988
N 13.22487734 28.47356806 8.07688289 0.00230514 0.00048273 0.00475291
N 14.69648570 19.91334513 3.39881475 -0.00072377 -0.00540301 -0.00587694
N 12.51180816 23.07548786 1.30159246 -0.00089000 0.00410537 0.00394909
N 11.37078535 25.28637321 5.96383618 -0.00284256 0.00781119 -0.00720927
N 14.45888314 20.71894460 7.54473255 -0.00158071 -0.00138186 -0.00287119
N 13.43675894 27.78422665 2.94062954 0.00029371 -0.00116102 -0.00573254
N 11.00156282 24.75537253 10.03175496 0.00465792 -0.00223221 0.00223510
N 12.07789187 23.14498665 14.76580968 0.00224632 -0.00110250 -0.00281629
N 12.93412305 27.56473763 17.02099246 0.00472676 -0.00214346 -0.00695617
N 14.24248070 19.86323792 12.57840325 0.00859552 -0.00348426 0.00332898
N 12.37033031 22.83205887 10.25319326 0.00348124 0.00061573 0.00637559
N 11.04113971 25.17514722 14.92882869 -0.00491807 0.00183174 0.00077032
N 13.93371943 20.63234468 16.83684475 0.00206354 0.00990349 0.00537569
N 12.79812325 27.79632781 12.14233276 0.00430437 -0.00498652 -0.00209599
N 11.01191964 24.80783452 19.13814996 -0.00154680 -0.00480008 0.00236517
N 12.18016534 23.29905099 24.17733838 -0.00482443 -0.00828212 -0.00021929
N 13.05043921 28.58717374 26.00822653 -0.00031852 -0.00351601 -0.00293950
N 14.22322835 19.92293359 21.62579658 0.00426246 0.00329852 0.00479342
N 12.08012201 22.82900402 19.86262938 -0.00157748 -0.00261795 0.01057351
N 11.06372038 25.31753003 24.39469564 -0.00372790 -0.00202238 -0.00437630
N 14.07684989 20.48314707 25.55785680 -0.00489927 0.00533705 0.00033456
N 13.39764560 27.21398854 21.60787158 0.00208048 0.00501046 -0.00301030
N 14.87413271 5.29929922 1.39271426 0.00584244 -0.00071537 0.00182304
N 16.22028145 4.05737720 5.47796064 -0.00052011 0.00088299 -0.00077744
N 16.94127603 8.93820339 7.99548343 -0.00626870 0.00226580 -0.00090928
N 18.30057932 0.68995037 3.44205198 -0.00097685 -0.00101218 -0.00656913
N 16.34375262 3.43120307 1.42941096 0.00121386 0.00135757 -0.00397474
N 15.17833798 6.13293335 5.94491075 -0.01060243 -0.00302841 -0.00337215
N 18.08470503 1.36716720 7.58938282 -0.00006743 0.00076308 0.00422205
N 16.91543435 8.42219953 3.06548674 0.00539706 0.00708559 0.00104266
N 15.24105700 5.81588309 10.71535328 -0.00712695 -0.00616025 -0.00385333
N 16.37533287 3.90241701 14.96320280 -0.00324004 -0.00136758 -0.00161088
N 17.13202483 9.05994919 17.05640529 -0.00133259 0.00238455 -0.00400381
N 18.10130473 0.51115728 12.31931362 0.00223525 -0.00057476 -0.00337751
N 16.05332529 3.61288203 10.80540713 0.00404511 -0.00135238 0.00223597
N 15.41785272 5.93802681 15.32638766 -0.00174478 -0.00332955 -0.00726423
N 17.78984946 0.91576612 16.45094964 0.00163632 0.00300985 -0.00064140
N 16.99914454 8.51540727 12.25927476 -0.00381897 -0.00475895 -0.00089278
N 14.86885581 5.39572920 19.61268515 -0.00234462 0.00120433 0.00255798
N 16.21823873 4.06106479 23.87922827 0.00163962 -0.00447710 0.00071191
N 17.45700111 9.16467665 26.24517185 0.00023412 -0.00030922 -0.00202222
N 18.03316182 0.54221212 21.69773399 -0.00016115 -0.00195741 -0.00412023
N 16.15018958 3.46621194 19.64967238 -0.00286938 -0.00203150 -0.00378505
N 14.63320213 5.66389155 24.53797247 -0.00018976 -0.00746974 -0.00345924
N 18.12494533 1.14824712 25.97994998 0.00005127 0.00282947 -0.00294801
N 16.81892329 8.31983574 21.22609368 0.00439247 0.00232164 0.00230246
N 15.47172518 15.28085824 1.35578411 -0.00009076 0.00848148 -0.00434933
N 16.58271569 13.87606838 6.15956123 -0.00016626 0.00128342 -0.00038498
N 16.86738090 18.66762165 7.72885417 -0.00082111 -0.00581587 -0.00026051
N 18.31184536 10.30435087 3.60011276 0.00356768 0.00217413 -0.00221890
N 16.42314757 13.24435152 1.64524114 0.00614234 0.00296730 -0.00225490
N 15.38170232 15.80554335 6.28207061 -0.00662421 -0.00373894 -0.00207028
N 18.14425644 10.81398428 7.52292725 0.00558881 -0.01095300 0.00887635
N 17.20143624 17.99059285 3.12582528 -0.00124747 -0.00519605 -0.00158877
N 14.98481968 15.37849712 10.32804467 0.00076915 0.00815174 0.00863285
N 16.20756994 13.68838179 14.88080658 0.00193302 0.00164357 -0.00248455
N 17.14579338 18.43212616 16.96150056 -0.00798125 -0.00040395 0.00347528
N 17.93424865 10.58882907 12.64627762 0.00470693 0.00341777 -0.00228903
N 15.90503541 13.32169334 10.57448199 -0.00364031 0.00585699 0.00485523
N 15.34856316 15.82408808 15.09491412 0.00085419 -0.00027901 0.00045516
N 18.06783812 11.12710437 16.39950029 0.00441445 0.00356043 -0.00306903
N 16.59766756 18.02006200 12.14257834 0.00968941 -0.00083159 0.00248234
N 15.23280941 15.13592023 19.27062923 0.00340793 0.00191380 -0.00060739
N 16.22098549 13.94241352 24.01085327 0.00057388 -0.00732159 0.00704634
N 16.76982245 18.69294950 26.21954922 -0.00160849 0.00185619 0.00347412
N 18.26180683 10.16165482 21.54627890 0.00068107 -0.00040492 -0.00151402
N 16.30626275 13.12481129 19.62655939 -0.00131420 0.00554102 0.00037701
N 15.09607919 15.94706223 24.21115406 -0.00790922 0.00404503 0.00116840
N 18.28029019 11.35342914 25.99286838 -0.00553493 -0.00514834 0.00206272
N 16.97907902 18.11906032 20.96955188 0.00032402 -0.00454072 0.00114280
N 15.19576274 24.62011263 1.04136127 0.00455949 -0.00015463 -0.00369352
N 16.23635844 23.32037830 5.51387237 0.00361492 0.00650886 0.00031754
N 16.65818969 28.37543752 8.10111387 0.00157508 0.00783174 -0.00301821
N 18.37314529 19.96871280 3.15189616 -0.00050761 -0.00551100 0.00606544
N 16.27969287 22.53983136 1.34490256 0.00421592 0.00293104 0.00288882
N 15.22183189 25.26067384 6.17356298 0.00351312 -0.00153378 -0.00619376
N 18.07225258 20.65170247 7.57062090 -0.00028253 0.00304001 -0.00260396
N 17.00748349 27.76701698 3.40763194 -0.00257736 0.00825676 0.00209247
N 14.91908207 24.70797709 10.36468398 0.00400238 0.00491471 0.00161272
N 16.06192022 22.93806654 14.38657192 0.00713507 0.00165838 0.00324643
N 17.03159463 27.74159569 17.13271720 -0.00472030 0.01164505 -0.00058472
N 17.91777883 19.95051721 12.34904135 -0.00369787 0.00362374 -0.00193139
N 16.06924625 22.65800319 10.42007312 -0.00258165 -0.00800911 -0.00116671
N 14.93636188 24.91023896 14.85844052 -0.00456936 0.00265810 -0.00098531
N 18.23939791 20.45264433 16.57677887 0.00194222 0.00251325 -0.00166030
N 16.74690837 27.57852235 12.36149020 0.00276991 0.00792132 0.00114324
N 14.77274112 24.61977080 19.14193895 -0.00453576 -0.00403590 0.00205856
N 16.04528947 23.45101372 23.85404511 -0.00319996 0.00930532 -0.00080930
N 16.66153699 28.27264623 26.36006533 -0.00547599 0.00452132 -0.00394072
N 17.88403144 20.12931072 21.64049030 -0.00513849 -0.00536108 -0.00881263
N 15.69730118 22.53309301 19.47522409 0.00118915 0.00286353 -0.00121078
N 14.80380892 25.25832347 24.32586704 0.00062115 -0.00600471 0.00596819
N 18.06468340 20.55614079 25.82736085 -0.00155075 0.01492111 -0.00223675
N 16.86179284 27.46725918 21.54329834 -0.00412068 -0.00106906 0.00054360
N 18.96642485 5.35792016 1.28224029 -0.00064956 -0.00084754 0.00321695
N 20.30859770 4.18085244 6.02883972 0.00284132 0.00262638 -0.00047265
N 20.59070864 8.77534430 7.92394931 0.01196460 0.00729321 0.00471897
N 0.37341560 0.68042301 3.59016094 -0.00321772 0.00470744 0.00299843
N 20.14228196 3.42977557 1.66657102 -0.00106013 -0.00413323 0.00573792
N 19.04174902 6.02389893 5.88447001 -0.00799904 -0.00864897 0.00249900
N 21.80769583 1.38901069 7.88892254 0.00657638 -0.00748671 -0.00716040
N 20.89102219 8.58318308 3.02809871 -0.00490630 0.01270365 -0.00556008
N 18.48902097 5.45521832 10.20778866 0.00018247 0.00605214 0.00806222
N 19.54283304 3.81211927 14.60695874 -0.00337935 -0.00540207 0.00054593
N 20.55204640 8.70526522 17.18395967 -0.00501723 -0.00067797 -0.00223955
N 21.45001275 0.75819496 12.66722254 -0.00342151 0.00484602 0.00444411
N 19.97590862 3.73680442 10.69466462 -0.00333305 -0.00390042 0.00231665
N 18.97368300 5.98105296 15.10776624 0.00131168 0.00529815 -0.00197102
N 21.52472000 0.99773972 16.87637286 -0.00085290 0.00187788 -0.00277781
N 20.37997303 8.33343040 12.08797229 -0.00052098 0.00072998 0.00330381
N 18.76287013 5.21173459 19.39640359 0.00362090 0.00287814 -0.00806856
N 20.12602883 4.16510839 24.39881960 -0.00110759 -0.00149718 0.00371709
N 20.56183323 9.28981428 26.10885204 -0.00179475 0.00398032 0.00002747
N 21.64883639 0.54902720 21.84126227 0.00050689 0.00193929 0.00233610
N 19.97898655 3.31825153 19.53636613 0.00121023 -0.00105139 -0.00293850
N 18.61467495 6.03476807 24.29701683 0.00105942 -0.00583281 0.00002391
N 21.84941672 0.97818573 26.25709482 -0.00578139 0.00219553 0.00431657
N 20.88093247 8.54995395 21.37267812 0.00240048 0.00491794 -0.00038120
N 18.85238327 15.13413004 1.27796307 0.00478178 0.00146298 0.00551599
N 20.35065661 13.68096471 5.76536175 0.00487658 0.00138798 -0.00327286
N 20.93473056 18.61828061 7.97516751 0.00262331 -0.00046445 0.00180178
N 21.77211015 10.69994132 3.50561769 -0.00299796 0.00031983 0.00261631
N 19.98879673 13.04482742 1.41527195 -0.00278212 0.00218303 0.00051934
N 19.11546503 15.59745951 6.14337412 -0.00384526 -0.00038783 0.00158422
N 21.90491627 10.64528844 7.54873239 0.00505910 0.00052977 -0.00029627
N 20.73314075 18.38982953 3.20772503 -0.00491648 -0.00288910 0.00184704
N 18.22989336 15.20743102 10.19784800 0.00017437 0.00047165 0.00133669
N 20.11679148 13.79114259 14.92256357 0.00086877 -0.00039080 0.00164036
N 20.55983590 18.63552858 17.02411339 0.00024788 -0.00392493 0.00489857
N 21.33957940 10.31006059 12.60627963 0.00309649 -0.00607513 -0.00030312
N 19.36030458 13.27015867 10.75262466 0.00320391 -0.00148247 0.00232699
N 18.77278768 15.70236617 15.14534667 -0.00285733 -0.00340887 -0.00459372
N 21.63111273 10.69656113 16.68732722 0.00283418 0.00751371 0.00049375
N 20.49823289 18.11270303 12.15666012 -0.00382480 0.00095120 -0.00156671
N 18.50701546 15.05831935 19.36554967 0.00079287 -0.00450711 0.00523937
N 20.13238515 13.99463548 23.93950118 0.00511187 0.00069671 -0.00165637
N 20.60534026 18.97734368 26.38126530 -0.00090734 -0.00163757 -0.00190337
N 21.79804763 10.61128648 21.60168852 -0.00471492 -0.00112368 0.00154882
N 19.66345683 13.13600615 19.73009983 -0.00838531 0.00349840 0.00046606
N 18.88722389 15.93730831 24.36552400 -0.00903709 -0.00645849 0.00151409
N 21.86285453 11.14445739 25.93634529 -0.00499278 0.00220594 0.00076388
N 20.38002340 17.91803087 21.36056006 -0.00142813 -0.00292301 -0.00024837
N 19.15701282 24.85534965 1.14847773 0.00419524 0.00956683 -0.00192832
N 20.49507574 23.66999438 5.62515935 0.00167468 0.00088663 0.00055834
N 20.42996457 28.48138251 7.86638385 -0.00139135 -0.00302163 -0.00653901
N 0.37830882 19.90836487 3.47763153 -0.00079671 -0.00288826 -0.00250285
N 20.25785657 22.96102244 1.63562253 -0.00029380 -0.00209057 -0.00496650