1728
Time=26000.00000000 pbc="T T T" Lattice="22.02277852 0.00000000 0.00000000 0.00000000 29.03833854 0.00000000 0.00000000 0.00000000 27.33170518" energy=-10388.91879880 virial="5.40695255 1.64441305 -12.24524547 1.64441305 -0.56534755 6.83829994 -12.24524547 6.83829994 20.42760753" stress="0.00279824 0.00004509 -0.00074596 0.00004509 0.00248531 0.00042302 -0.00074596 0.00042302 0.00397825" Properties=species:S:1:pos:R:3:vel:R:3
N 0.17225474 5.53867671 1.21531192 0.00133336 0.00117886 -0.00718029
N 1.62765653 3.95708893 5.54021298 0.00506736 -0.00515360 -0.00351802
N 2.07083920 8.93027056 7.97445919 0.00458713 -0.00631674 -0.00795200
N 3.43470353 0.79465952 3.35775673 -0.00491392 -0.00538075 -0.00809699
N 1.35445659 3.52169418 1.65928794 0.00854963 -0.00674330 0.00327421
N 0.27057805 5.86121479 5.53820572 -0.00199733 0.00463321 0.00361504
N 3.54946515 1.48181087 7.70687852 0.01000851 0.00308836 -0.00780265
N 2.47280607 8.61467321 2.94497378 -0.00578095 -0.00780208 -0.00101464
N 0.16556503 5.47967122 9.80898401 0.00611083 -0.00007636 -0.00138644
N 1.69648906 4.25739911 14.76968575 -0.00707532 -0.00055466 -0.00606015
N 2.21669407 8.92511734 17.01715590 -0.00520172 0.00631594 -0.00524774
N 3.14170124 1.04723970 12.62108930 0.00187136 -0.00469481 0.00088899
N 1.47168896 3.66576778 10.43618129 0.00171691 -0.00437821 -0.00027837
N 0.26593522 6.11561762 14.98206720 0.00082394 -0.00179636 0.00381735
N 3.21914426 1.36376543 16.71229384 -0.00292008 0.00287606 0.00317481
N 2.41484870 8.43176577 12.24174180 0.00253685 0.00061220 -0.00226798
N 0.32500143 5.71694439 19.32144577 -0.00286698 0.00685586 0.00148986
N 1.32048899 4.56626791 24.11713418 0.00604096 -0.00596149 -0.00517345
N 1.96998765 9.16154499 26.51207931 -0.00118918 -0.00290802 -0.00456316
N 3.78268710 0.79372791 21.59775212 -0.00129627 0.00596110 0.00419731
N 1.28743726 3.67401154 19.60090797 -0.00193536 -0.00009969 -0.00395997
N 0.54735105 6.79918634 24.39016228 -0.00461079 0.00026533 0.00509771
N 3.44529891 1.47701294 25.77579931 0.00326914 -0.00158187 0.00231060
N 2.13065872 8.70049604 21.32897962 -0.00265313 -0.00277610 0.00345121
N 0.20025482 14.86438438 1.29023194 0.00042598 -0.00839318 -0.00461822
N 1.66323206 13.92751455 5.79134815 0.00210902 0.00237073 -0.00028342
N 2.37250733 18.21270578 8.22852593 -0.00091463 -0.00283732 0.00480285
N 3.55537783 10.59227855 3.45019016 0.00710218 0.00336322 -0.00155089
N 1.43270994 12.83399706 1.53536603 -0.00040793 0.00046910 -0.00506078
N 0.07316349 15.63033519 6.21415791 0.00674407 0.00417111 -0.00016548
N 3.02554274 10.98916519 7.49137522 -0.00054121 0.00509198 -0.00006052
N 2.30038628 17.89372693 3.30858314 -0.00037586 -0.00488430 -0.00535008
N 0.33539793 15.08798678 10.10910818 -0.00037984 0.00165765 0.00318583
N 1.75922124 14.02869184 14.69748820 0.00233525 0.00117115 0.00246278
N 1.91375789 18.85712691 16.71171698 0.00821567 0.00182261 0.00225981
N 3.63064609 10.37908352 12.60894845 0.00386364 0.00285414 -0.00133261
N 1.59477456 13.13058200 10.39662473 0.00226841 0.00024837 0.00010796
N 0.36527102 15.81673397 14.99347254 -0.00641065 0.00812422 0.00294503
N 3.32501324 10.91215074 16.66668871 0.00497316 0.00495210 0.00303169
N 2.33261192 18.11734701 12.23441685 -0.00167265 -0.00294326 0.00274707
N 21.80419086 15.19479340 19.04863014 -0.00562242 -0.00482123 -0.00598135
N 1.59969069 13.95605154 24.15412946 -0.00499923 0.00356725 -0.00449981
N 1.97105600 18.66924337 25.97281099 0.00384148 0.00197323 -0.00033007
N 3.25463547 10.72498144 21.45999350 -0.00116022 0.00355759 0.00003671
N 1.17531040 13.62487254 20.01464695 -0.00143986 0.00002364 -0.00591948
N 0.09163987 15.67648832 24.50178976 -0.00120563 0.00188727 0.00501750
N 3.29850552 10.84651858 25.67180978 -0.00562799 0.00087139 0.00714115
N 2.06318549 17.79053007 21.15392654 -0.00361577 0.00062365 0.00183134
N 21.97607625 24.81362849 1.52209016 0.00082035 0.00881184 0.00080147
N 1.81392667 23.44299202 6.12640729 0.00532064 0.00284466 -0.00313652
N 2.51116699 28.47159840 8.13496566 0.00099633 0.00191569 -0.00135583
N 3.38850853 19.95093995 3.28796136 -0.01462388 -0.00110060 0.00314301
N 1.19622973 22.86704151 1.71937538 -0.00473727 -0.00172695 -0.00017721
N 0.63888965 25.37280187 6.27352145 0.00617819 0.00615819 0.00162079
N 3.29797714 20.31440391 7.95113801 0.00165955 -0.00072860 0.00033637
N 2.62436186 27.70896231 3.12167721 0.00468876 -0.00320566 -0.00464764
N 0.06143124 24.68706080 10.67317860 -0.00125396 -0.00152938 0.00805165
N 1.12758934 23.66891588 15.08238123 -0.00030153 0.00145440 -0.00182098
N 1.91524198 28.44152534 16.86364025 -0.00282769 0.00013309 0.00347316
N 3.62374644 20.06064326 12.45087618 0.00468681 0.00871684 -0.00671423
N 1.53785764 22.91122553 10.95226579 -0.00355175 0.00045963 -0.00059034
N 0.17813909 25.73020546 15.08899756 -0.00354215 0.00312443 -0.00341857
N 3.46016550 20.57848836 16.77137219 0.00172612 0.00880593 0.00178963
N 1.88285234 28.15584405 12.22316714 0.00147247 -0.00319908 0.00399869
N 0.06241014 24.73129282 19.70718856 -0.00477431 0.00173700 0.00354200
N 1.15865229 23.60365977 24.15787239 -0.00821774 -0.00251570 -0.00114900
N 2.11065159 28.61968204 26.01256730 0.00051999 0.00143808 0.00256081
N 3.32106386 19.72320983 21.16180164 0.00164591 -0.00172986 -0.00234846
N 1.43998296 22.88753463 19.82670759 -0.00042501 -0.00437893 0.00251696
N 0.35634979 25.85144628 24.25818649 0.00349180 -0.00118498 0.00412902
N 3.16734927 20.56960207 25.66007528 -0.00282061 -0.00192821 -0.00166694
N 2.31256966 28.10024344 21.06955812 0.00104341 -0.00213198 -0.00203091
N 4.10884089 5.57497620 0.95262438 -0.00435952 -0.00276683 0.00016928
N 5.46908489 4.12004726 5.64477170 0.00145931 -0.00035806 -0.00235725
N 5.61863188 9.11472207 7.85807802 0.00436005 -0.00037837 0.00042851
N 7.38982979 0.58993197 3.55203081 -0.00567275 -0.00063627 -0.00848155
N 5.40540439 3.74807337 1.29729162 0.00290030 -0.00342721 0.00882803
N 4.25028726 6.11410459 5.97618561 -0.00316318 0.00626547 0.00175162
N 7.08892807 1.42348034 7.65627562 -0.00016994 -0.00832421 -0.00131347
N 5.95063105 8.27402564 2.82392122 -0.00406845 -0.00115265 -0.00573334
N 3.84038275 5.57605621 10.33492007 0.00119586 -0.00035069 0.00277197
N 5.36166530 4.06746367 14.84675160 0.00239937 0.00168894 0.00383057
N 6.00888895 9.09463893 16.92142374 0.00834170 0.00083544 0.00058339
N 7.00332733 0.85997023 12.54242991 0.01197400 0.00324671 -0.00015362
N 5.17182770 3.64467715 10.63790231 0.00288779 -0.00003752 -0.00013945
N 4.09889160 5.99321697 15.29873227 -0.00275038 0.00253893 0.00070300
N 7.02088321 1.13894565 16.71695431 0.00264071 0.00122955 -0.00344177
N 6.04644170 8.63205627 12.09879723 -0.00253129 -0.00275973 -0.00030259
N 3.90501600 5.65068135 19.21608155 0.00378562 0.00249001 -0.00651844
N 5.30271475 4.54100285 23.72892377 -0.00098407 0.00256600 0.00145337
N 6.31993060 8.84914528 26.08831157 -0.00020435 -0.00294125 0.00645035
N 7.21559462 0.92334650 21.63159825 0.00327121 -0.00502319 0.00081399
N 5.21906905 3.85249969 19.73475379 0.00128340 -0.00123121 0.00208512
N 3.91043590 6.31144650 24.41681842 -0.00007657 0.00382681 -0.00756535
N 6.98256584 1.50571913 25.95938010 -0.00585926 0.00137523 0.00573018
N 5.85649303 8.52599626 21.14161774 0.00125990 0.00540963 -0.00235026
N 3.98440005 15.32798794 0.18124781 0.00118153 0.00151742 -0.00449556
N 5.22208148 13.54229953 5.36714867 -0.00467869 -0.00151229 -0.00394562
N 6.04168571 18.55516848 7.68195354 -0.00478615 -0.00171824 0.00662645
N 7.11688073 10.35273770 2.87127706 0.00254355 0.00288231 -0.00206483
N 4.78716818 13.40236745 1.08724935 -0.00167634 -0.00326843 0.00120145
N 4.05463556 15.57507351 5.73815153 0.00622483 -0.00000972 -0.00390618
N 6.90484452 11.02792768 7.43561981 -0.00054714 0.00097859 0.00664326
N 5.93135018 17.92353171 2.83348089 0.00356735 0.00105097 0.00029346
N 3.62909140 15.39141240 10.19577846 -0.00165144 0.00360033 0.00478264
N 5.28647135 13.80305326 14.97964465 0.00337590 -0.00470938 -0.00340413
N 5.68936228 18.68671683 17.15438315 0.00365100 -0.00211977 0.00071703
N 7.19350309 10.64523655 12.14291033 -0.00461867 -0.01057964 -0.00031697
N 4.91623678 13.44471583 10.50611602 -0.00445504 -0.00055027 0.00835373
N 4.06326610 15.74405891 15.22095209 0.00014889 -0.00279537 0.00210212
N 6.97177972 11.13289521 16.86932548 0.00578270 0.00163382 0.00323305
N 6.22753113 18.16631407 12.20963797 -0.00199378 0.00186695 0.00700762
N 3.96466727 15.02364635 19.24868515 0.00384160 -0.00256919 0.00468853
N 5.13654506 13.50674245 23.48728851 -0.00521136 0.00430705 -0.00232464
N 5.60440590 18.50268893 26.09722325 -0.00449256 -0.00302074 -0.00704975
N 7.04584830 10.41527805 21.56964363 0.00039151 0.00025693 -0.00406919
N 4.72918612 12.94596388 19.88936453 0.00406033 0.00083972 -0.00218965
N 4.14035328 15.58293969 23.75074603 0.00488205 -0.00530045 -0.00030701
N 7.24017776 11.03323637 25.86474376 0.00883140 -0.00244301 0.00132454
N 5.94137985 18.24993759 21.40986125 0.00145446 -0.00038829 -0.00569298
N 3.61968136 24.93483678 1.05734498 -0.00662785 0.00249265 -0.00012798
N 5.01449115 23.41091759 5.70311227 -0.00387553 0.00432840 0.00137857
N 5.86710662 28.59670753 7.69660680 0.00412467 0.00390711 -0.00119170
N 7.06931245 19.83798379 3.28268477 -0.00144831 -0.00569913 -0.00349139
N 4.87854584 22.95229344 1.40148326 -0.00530432 0.00478463 0.00124220
N 4.19079273 25.51854022 5.99262105 0.00064911 -0.00631421 0.00393166
N 6.90900181 20.68606102 7.44125628 0.00023299 -0.00008964 -0.00405073
N 5.88203469 27.98907200 2.75808482 0.00068348 -0.00613274 0.00289530
N 3.72970130 25.02900956 9.78852075 -0.00053234 -0.00311776 0.00071524
N 5.19256075 23.66742737 15.04259255 0.00130235 -0.00468626 0.00130229
N 5.49676370 28.48643546 17.17981337 -0.00721123 0.00598962 -0.00353195
N 7.06818832 20.28290469 12.53443600 0.00129420 0.00284064 -0.00116762
N 5.03629589 23.26653880 10.54369976 0.00253146 0.00442841 0.00070844
N 3.91824025 25.53404315 15.05711939 0.00341475 -0.00488594 -0.00686415
N 6.91468743 20.63329823 16.71422523 -0.00072990 0.00182977 -0.00002882
N 5.49121302 28.14282090 12.42308618 -0.00357982 -0.00149472 0.00476720
N 4.35583384 25.22212037 19.53836741 -0.00208470 0.00020747 -0.00327590
N 5.18514122 23.61568041 23.83283785 0.00443863 -0.00107710 0.00156830
N 6.01483323 28.52116825 26.13172562 0.00229120 0.00134743 0.00632540
N 6.95436448 20.09003946 22.04626830 0.00662102 -0.00242796 0.00485413
N 5.06462144 23.00920524 19.96461859 0.00172614 -0.00185235 0.00215946
N 4.05650073 25.61194938 24.05687968 0.00354072 0.00171457 -0.00047251
N 6.67759392 20.54186212 25.95986176 -0.00182637 0.00155008 0.00596763
N 6.03634055 28.02285528 21.33230434 -0.00598344 -0.00558746 -0.00272392
N 7.99725007 5.48207697 1.22366812 -0.00463047 0.00001523 -0.00088148
N 9.07159159 4.23261011 6.07389987 0.00169343 -0.00306001 0.00562989
N 9.32992733 8.93505542 8.52464503 -0.00230993 0.00455092 -0.00337691
N 11.03194810 0.35191776 3.51579242 -0.00262942 -0.00751580 0.00283202
N 8.75791764 3.23179157 1.74731689 -0.00560157 -0.00418880 0.00363498
N 7.82703830 6.12725364 6.21515586 -0.00151575 -0.00257321 -0.00089739
N 10.74708077 1.24356206 8.01906061 0.00069034 -0.00476205 0.00508595
N 9.57693609 8.70438518 3.29235221 -0.00466617 -0.00484569 -0.00096759
N 7.86399563 5.86057066 10.24523002 0.00439879 -0.00204868 0.00458260
N 9.21453116 4.40763503 14.97957203 -0.00318532 0.00160580 -0.00462618
N 9.30976090 9.10708086 16.99968793 -0.00520597 -0.00593946 0.00308240
N 10.52752919 0.85831894 12.86962768 0.00262872 0.00392289 0.00310351
N 8.84527593 3.71576212 10.47549200 0.00222756 -0.00610838 -0.00029373
N 7.82554682 6.20711895 14.72589636 0.00339385 -0.00045190 0.00121082
N 10.42087255 1.29370849 16.78755249 -0.00354696 -0.00063348 0.00582714
N 9.62942673 8.75065483 12.26048208 0.00314066 -0.00088054 -0.00610393
N 7.63310457 5.68520569 19.03243195 -0.00064209 -0.00043970 0.00377861
N 8.91000020 4.21468417 23.85447051 0.00204726 0.00472836 0.00156974
N 9.56125956 9.11725093 26.28298308 0.00551776 -0.00103511 -0.00159904
N 11.25608905 0.61871996 21.69656596 -0.00008753 0.00967639 0.00005854
N 8.82508926 3.78661089 19.42277497 0.00202776 0.00007024 0.00416896
N 7.81305088 6.23564153 23.94674182 -0.00288011 0.00521025 -0.00177343
N 10.55647818 1.29731145 25.83848559 -0.00439342 0.00390263 -0.00215616
N 9.34848964 8.40197399 21.25028319 0.00880128 -0.00310471 0.00009555
N 7.27558562 14.91570984 1.53242753 -0.00586294 0.00237375 -0.00378563
N 8.98855573 13.88076202 6.06190761 -0.00235206 -0.00084778 0.00078355
N 9.54081230 18.55766247 7.85721926 0.00682750 0.00155410 -0.00093759
N 10.87746738 10.37645394 4.21366832 -0.00304846 -0.00472179 -0.00473951
N 8.79826416 13.16216657 1.36528577 0.00378912 -0.00002985 0.00303775
N 7.72364449 15.78975728 5.99827341 0.00687635 -0.00436871 0.00172967
N 10.07892986 10.94177115 7.67515368 -0.00415448 0.00598923 0.00134533
N 9.73069900 18.16536916 3.29710974 -0.00201740 0.00152870 0.00018034
N 7.40935615 15.54339061 10.41343475 0.00110245 0.00732392 -0.00381686
N 8.99666985 13.96719903 14.67262557 -0.00571641 -0.00382078 0.00259800
N 9.48618962 18.93762458 16.70441566 0.00103635 0.00124852 0.00250399
N 10.63935286 10.76047864 12.75810742 -0.00295068 -0.00152195 0.00434947
N 8.79832681 13.70641864 10.37414082 -0.00234084 0.00042036 0.00508126
N 7.80761138 15.86380970 15.23697132 -0.00118287 0.00150931 -0.00647118
N 10.45192914 11.08410835 16.71910553 0.00028715 0.00596397 0.00406308
N 9.79283218 17.91008911 12.52649915 0.00300231 0.00679559 -0.00148404
N 7.98387953 15.24179359 19.34421513 0.00035532 0.00465303 -0.00605472
N 9.02852045 13.90659007 23.98856239 0.00108879 0.00251475 -0.00371480
N 9.22440495 18.78689092 25.98649386 0.00376943 -0.00206561 -0.00034676
N 10.69720218 10.18677153 21.55708971 0.00415342 0.00019356 -0.00640841
N 9.03903797 13.26356798 19.68232164 0.00565891 -0.00061281 0.00396014
N 7.69192638 15.74395826 24.25756175 0.00592422 -0.01061316 0.00316102
N 10.49390221 11.19741184 26.01826815 0.00277396 -0.00230527 -0.00505274
N 9.58585189 18.18017757 21.28725159 -0.00548421 -0.00346460 0.00032889
N 7.32367112 24.80499511 1.06779624 -0.00870079 -0.00177561 0.00073125
N 9.01765234 23.57510274 5.70490933 -0.00191077 0.00732531 -0.00089634
N 9.30553766 28.39152057 8.03807597 -0.00449155 0.00162979 -0.00142733
N 10.85761884 20.15402970 3.58152950 -0.00254390 0.00043012 0.00411444
N 8.83476760 22.98135456 1.37883369 -0.00210469 -0.00762951 0.00097040
N 7.70218394 25.55370312 5.94388337 0.00269546 0.00501941 0.00141808
N 10.50374706 20.68328880 7.78844192 -0.00213990 -0.00288634 -0.00077587
N 9.53392764 27.70836197 3.09887727 0.00046197 0.00106591 -0.00138592
N 7.30208760 25.13749667 10.28051131 0.00709560 0.00308619 0.00189978
N 8.94039562 23.64684783 15.15464820 -0.00397238 0.00077678 0.00058082
N 9.47338178 28.34149054 17.41660195 0.00005689 -0.00101090 0.00207124
N 10.67373148 20.01035458 12.33210899 0.00447868 -0.00072904 0.00183149
N 8.60405091 23.32484115 10.68906916 -0.00233593 -0.00225432 -0.00052252
N 7.66111643 25.58404239 15.23777165 0.00074466 0.00025495 0.00549318
N 10.80694026 20.86206449 16.76981552 0.00574659 0.00326388 0.00077677
N 9.33551990 27.97516873 12.29108212 -0.00047339 -0.00201783 0.00149043
N 7.59664858 24.69059585 19.80939174 -0.00751355 0.00171334 -0.00552841
N 9.14906479 23.68425757 24.41796253 -0.00644839 0.00168126 0.00109226
N 9.18281438 28.50318494 26.13608743 0.00015112 0.00642895 -0.01078696
N 11.11736877 19.89507207 21.29041207 0.00450125 0.00460423 -0.00503499
N 8.95005019 22.83368458 20.00868686 -0.00154184 0.00034816 0.00294506
N 7.92083775 25.67512055 24.31615232 0.00527005 0.00890257 -0.00693054
N 10.71509359 20.57597271 25.91724978 0.00289674 -0.00249910 -0.00469176
N 9.71773768 27.89946381 21.49865666 -0.00111867 0.00253946 0.00301111
N 11.29146402 5.33097043 1.14909321 0.00013014 -0.00319191 -0.00326869
N 12.51363437 3.88425630 5.80375390 0.00255240 0.00386162 -0.00409693
N 12.82427834 9.12942822 7.57029972 0.00487790 -0.00743163 0.00006260
N 14.75354299 0.44075114 3.36549764 -0.00058446 -0.00555558 0.00147451
N 12.52053750 3.36038220 1.60616860 -0.00491433 0.00052354 -0.00326966
N 11.63229277 5.96942049 6.04299135 0.00391433 -0.00083868 0.00114389
N 14.12029629 1.13534768 7.63395372 0.00268042 -0.00453442 0.00994754
N 13.08487717 8.52009426 3.01707136 -0.00395438 -0.00812906 -0.00166673
N 11.12703398 5.48302885 10.22822057 0.00206751 0.00052932 0.00402663
N 12.60173007 4.18903527 14.87399072 0.00449242 -0.00004528 0.00221458
N 13.00785122 8.84090782 16.64882347 -0.00278371 -0.00135104 -0.00462184
N 14.48603447 0.84857645 12.32534212 -0.00169705 -0.00103606 -0.00160567
N 12.33728289 3.63440949 10.84923874 0.00508916 0.00209891 0.00181102
N 11.60656778 6.24157477 15.11624685 -0.00056622 0.00309871 -0.01040515
N 14.23601794 1.49693728 16.64114880 0.00474116 -0.00251099 0.00516566
N 13.31244954 8.24291068 11.81649565 0.00452982 0.00026642 -0.00333125
N 11.29256552 5.66652348 19.25047791 -0.00163262 0.00211976 -0.00450032
N 12.59925063 4.34201280 23.93210326 0.00336268 -0.00050615 -0.00059672
N 12.76597438 9.04637153 26.00720915 0.00261577 0.00219840 -0.00310125
N 14.48135626 0.76670830 21.45640860 -0.00133256 0.00165490 0.00294657
N 12.60817004 3.90152180 19.80171045 0.00042709 -0.00480077 0.00557054
N 11.06395448 6.11224874 24.19421119 -0.00656514 0.00611105 0.00341016
N 14.40189933 1.18952346 25.91243356 0.00745354 0.00261860 0.00081109
N 13.11791604 8.28432448 21.23623578 0.00068458 0.00238177 0.00694135
N 11.14087374 15.05657898 1.38964639 -0.00299818 -0.00030404 0.00008628
N 12.31522472 13.84220822 5.92334148 -0.00292570 0.00625457 0.00003266
N 12.90355527 18.91765984 7.95723269 0.00162833 -0.00521266 0.00010532
N 14.55982314 10.37923384 3.26373077 -0.00339770 0.00130255 -0.00335507
N 12.72117892 13.31525312 1.62624584 -0.00351563 -0.00399952 -0.00080375
N 11.22444326 15.86525679 6.35060344 -0.00175093 0.00179275 -0.00208781
N 14.09014840 11.02253967 7.53938880 0.00369776 0.00338944 -0.00162697
N 13.30335594 18.07204718 3.06219326 0.00170768 0.00046288 -0.00137877
N 11.72641806 15.41153092 10.18881172 -0.00022814 -0.00307935 0.00280220
N 12.72326167 13.88919338 15.08985756 -0.00588956 -0.00200032 -0.00615806
N 13.00981844 18.91029990 16.98380112 -0.01160603 0.00014551 0.00719975
N 14.66362489 10.12393939 12.35397121 0.00551989 0.00043979 -0.00634064
N 12.56728413 13.24660570 10.56445235 -0.00377509 -0.00189104 0.00216695
N 11.21969953 15.67202878 15.48172199 0.00360237 0.00606176 0.00213705
N 14.37501516 10.76040940 16.61812290 0.00565528 0.00902799 -0.00107103
N 13.31840903 17.99557375 12.35048977 -0.00157737 -0.00015661 0.00426334
N 11.23513650 15.16482095 19.53081157 0.00421742 -0.00105732 -0.00222898
N 12.63417473 13.80229408 24.16706810 0.00517132 0.00087423 -0.00469801
N 13.26110409 18.97260088 26.16265308 -0.00022237 0.00054798 -0.00223135
N 14.56618609 10.07597524 21.33991776 0.00824257 -0.00043077 0.00538528
N 12.41628889 13.21852316 19.67864777 0.00440250 0.00012135 0.00190042
N 11.26660110 15.60651292 24.47750144 -0.00074308 -0.00156043 -0.00833776
N 14.34662437 10.90613095 25.85760519 0.00545752 -0.00220044 -0.00292979
N 13.39787396 17.99081937 21.38522940 0.00793372 0.00039087 0.00018892
N 11.23934793 24.94400315 1.27295288 -0.00255399 -0.00238911 0.00053032
N 12.34707527 23.31545018 5.71735593 0.00297718 -0.00047863 -0.00437446
N 13.21755204 28.11619481 8.19895653 -0.00022969 -0.00326264 -0.00413089
N 14.50633966 20.03119702 3.19939995 -0.00146096 0.00544987 -0.00317130
N 12.47242215 23.07800939 1.32218519 0.00360175 0.00630943 0.00093189
N 11.39597332 25.45754762 5.68377083 -0.00143897 0.00258116 -0.00301305
N 14.39645716 20.73101386 7.74150385 0.00249132 0.00348114 0.00348343
N 13.34859343 27.73853743 2.95180738 -0.00269792 -0.00234243 -0.00028862
N 11.17550881 25.07408045 10.21697094 0.00397394 -0.00014891 0.00005433
N 12.47317659 23.48129063 14.58100949 -0.00087583 -0.01076894 -0.01052980
N 12.86764196 28.70789421 16.89067187 -0.00151198 -0.00386419 0.00361660
N 14.66217502 19.90383792 12.57282373 -0.00093074 -0.00339112 -0.00160628
N 12.21430530 22.97478169 10.38681897 0.00174876 -0.00152529 0.01012279
N 11.38510373 25.48858877 15.18258473 -0.00505701 0.00236352 0.00773287
N 14.25917341 20.76968899 16.44952875 0.00084510 -0.00006116 0.00206519
N 12.77849471 28.09477069 12.01983391 -0.00286124 0.00569860 -0.00035044
N 11.18472619 24.92724841 19.44135601 0.00361044 0.00270386 -0.00272936
N 12.43987905 23.39997258 24.37957437 0.00361499 -0.00137094 -0.01032445
N 12.99188137 28.43167048 26.06928276 -0.00162693 0.00569031 0.00884402
N 14.35561129 20.06752338 21.58878978 -0.00406378 0.00209269 0.00474911
N 12.46187895 23.08975896 19.24341317 -0.00472191 -0.00394770 0.00250696
N 11.55607985 25.48897692 24.52760248 0.00265524 0.00330632 0.00101830
N 14.34932450 21.05901857 26.09502703 0.00225672 -0.00001211 -0.00060031
N 13.42256794 27.90741601 21.24690737 -0.00574969 -0.00141355 -0.00447466
N 14.82535761 5.26320855 1.30802319 -0.00182460 0.00339616 0.00351233
N 16.40591569 3.78748407 5.72970231 0.00079934 0.00412492 0.00049041
N 17.25589366 8.84713722 8.08123315 -0.00191605 -0.00540499 -0.00520054
N 18.15893845 0.63180727 3.25824068 0.00155001 0.00534092 0.00019430
N 15.85143558 3.21541492 1.34818897 0.00087663 0.00098612 0.00143546
N 15.19632951 5.81920615 5.83016300 -0.00462475 0.00534354 0.00497513
N 18.03266980 0.83002913 7.62826839 0.00592512 0.00598705 -0.00279824
N 16.77103233 8.36745847 2.81004838 -0.00023661 -0.00079028 0.00104244
N 14.95174012 5.56441660 10.01116385 0.00754547 -0.00099755 -0.00533572
N 16.68064969 4.37957913 14.84610906 -0.00847841 -0.00841669 0.00258037
N 16.68880741 8.96021968 16.87971094 0.00111491 0.00120288 0.00265734
N 17.64765355 0.69395078 12.39976995 -0.00032997 -0.00033478 0.00370138
N 15.83343728 3.54223850 10.57355415 0.00088915 0.00042644 0.00474365
N 15.10700337 6.13871854 14.89855921 -0.00279148 0.00082706 -0.00121056
N 17.89596421 1.42433390 16.58727262 -0.00022569 -0.00585826 0.00331224
N 17.06894860 8.22248067 11.99729693 -0.00353280 0.00311887 -0.00690620
N 15.02217500 5.67312772 19.27505538 0.00014212 0.00442378 0.00374471
N 16.34177999 3.93118699 24.01217031 -0.00355988 0.00266453 0.00210076
N 17.05620853 8.68633489 26.20206905 -0.00637665 -0.00036190 -0.00524912
N 18.29862202 0.82202175 21.64593996 0.00114877 0.00174380 0.00350594
N 16.18863576 3.71422434 19.29287006 -0.00581536 0.00312573 0.00451916
N 15.20036272 5.95604738 24.22837955 0.00122874 0.00019636 -0.00644661
N 17.98309501 1.00112667 25.81105757 -0.00595738 0.00608081 -0.00178716
N 17.04269991 8.37289075 21.09302788 -0.00593077 -0.00376873 -0.00423607
N 14.94049904 15.29064611 1.20444056 -0.00094553 -0.00402149 -0.00530162
N 16.10087252 13.80251670 5.79123298 0.00287987 0.00140936 -0.00718456
N 16.76086292 18.49386618 7.89236446 -0.00708613 -0.00192731 0.00374095
N 18.36486308 10.11854185 3.18063296 0.00779826 0.00245832 -0.00413144
N 16.28297289 13.45820920 1.65364899 -0.00281999 -0.00574174 -0.00192374
N 15.12286726 15.74335323 6.29530873 -0.00392357 -0.00145613 -0.00052488
N 17.71112168 11.06047469 7.54902286 -0.00335498 0.00218504 0.00133173
N 16.90410249 17.98211563 3.23778018 -0.00532736 -0.00495862 -0.00081738
N 14.66481014 15.16890279 10.35676217 0.00310198 -0.00011828 0.00561366
N 16.12550661 13.91057641 14.82559225 0.00114887 0.00305530 -0.00039512
N 16.50869505 18.79695953 16.98862076 0.00263164 0.00227679 -0.00028412
N 18.37706246 10.09751999 12.14682120 -0.00408096 0.00051068 0.00044436
N 16.07665825 13.32656603 10.59075202 -0.00199498 0.00225437 -0.00141591
N 15.16887509 15.93135443 15.07209781 0.00465049 -0.00290007 -0.00345680
N 18.15722378 10.69315743 16.60976502 -0.00551715 0.00140793 0.00658809
N 17.01314095 18.10763754 12.24754690 0.00125703 -0.00072180 -0.00248228
N 14.80211146 14.79385279 19.63372454 -0.00476072 0.00155725 0.00133863
N 16.34877195 14.03950046 23.78313603 -0.01248417 -0.00190384 -0.00238080
N 16.50597029 18.92830232 26.09907178 0.00167706 0.00633412 -0.00341335
N 17.94434433 10.49489298 21.47918325 -0.00111502 -0.00106911 0.00035752
N 16.12081768 12.93494849 19.56274846 0.00235067 0.00645067 -0.00780517
N 15.02737798 15.61082988 24.75968745 0.00812433 0.00397488 0.00171403
N 17.72616764 10.85933674 25.56007703 -0.00348269 -0.00286759 0.00581631
N 16.83606772 17.89716854 21.46350325 -0.00694225 -0.00179574 -0.00225964
N 15.29910960 24.78168052 1.47884872 -0.00411337 0.01025711 0.00222442
N 16.20583588 23.56579121 5.96645445 0.00602583 -0.00188856 0.00276181
N 16.45931536 28.22148036 7.97828949 0.00764418 -0.00027967 0.00238533
N 18.27131882 19.84350409 3.30581626 0.00265617 -0.00788249 0.00676135
N 16.17497665 22.70016668 1.49909773 0.00127752 0.00080193 0.00101185
N 14.93357891 25.46753813 5.85283508 0.00121265 -0.00261932 0.00237186
N 17.72040387 20.65299676 7.94330257 0.00216635 -0.00633334 0.00105108
N 17.21592381 27.63154975 2.84806371 -0.00192335 0.00441854 -0.00395451
N 14.98591504 24.81790364 10.48094655 -0.00123737 -0.00471827 -0.00714205
N 15.93972200 23.58671423 14.98637999 0.00349171 0.00217232 0.00529674
N 16.49588823 28.68596323 17.14313681 0.00648166 0.00397296 -0.00362690
N 18.24202460 19.93842721 12.35520273 -0.00429091 -0.00214550 -0.00106726
N 15.79838480 22.60207370 10.66638987 0.00653641 0.00435522 0.00019703
N 14.87880691 25.66333139 15.20336456 -0.00672012 0.00186036 0.00230162
N 18.07742153 20.52841468 16.78025871 0.00555919 -0.00383913 -0.00096060
N 16.63255138 27.69540831 12.20170389 -0.00059043 -0.00418021 -0.00019272
N 15.58078132 25.15600030 19.52827405 -0.00197950 0.00133435 0.00284574
N 16.37019790 23.55703591 24.18064891 0.00283747 -0.00161322 0.00018758
N 16.88941859 28.07828801 26.29870973 -0.00637624 0.00277846 0.00166214
N 17.99820301 19.84689025 21.64175503 -0.00304787 -0.00089644 -0.00085959
N 15.70004920 22.84365006 19.91526097 -0.00166318 -0.00229018 0.00306849
N 15.26118471 25.58472325 24.33250877 0.00050097 0.00159867 0.00659160
N 18.14525608 20.52881973 25.93051794 -0.00631714 0.00070530 0.00207261
N 17.11025256 27.93232240 21.39684687 0.00408537 -0.00980403 0.00399771
N 18.12977710 5.31705826 1.30112001 0.00203477 -0.00101186 0.00159566
N 19.74518513 4.02223930 5.77000503 0.00446058 0.00004299 0.00520692
N 20.10035099 8.98635501 7.61169404 -0.00270694 0.00583792 0.00137292
N 0.12929769 0.64676013 3.39071150 0.00294549 -0.00281300 0.00408793
N 19.93703659 3.88879536 1.62963758 0.00563460 0.00117033 -0.00136147
N 18.55546789 6.07599575 5.85721573 -0.00019457 0.00198854 -0.00089044
N 21.98470754 1.20240147 7.67306395 -0.00019444 -0.00118879 -0.00104226
N 20.65238716 8.18251524 3.06065472 -0.00369580 0.00835899 -0.00013771
N 18.66447552 5.35047951 10.29275968 0.00652365 0.00434853 -0.00701307
N 19.97792702 4.29912762 14.89530723 0.00937572 -0.00484261 0.00259015
N 20.41485237 8.97266155 17.09087262 -0.00202409 0.00225633 0.00365984
N 21.56471969 0.72862061 12.55091961 -0.00203479 0.00323735 -0.00116951
N 19.81842286 3.37160764 10.70692926 0.00348568 0.00205364 -0.00317186
N 18.97823490 6.31609644 15.06302798 0.00486758 0.00813253 -0.00503051
N 21.53052018 1.64754721 16.56612632 -0.00079109 0.00005044 0.00790061
N 20.58275334 8.23778767 12.06313376 -0.00382047 -0.00992512 0.00061056
N 19.04094158 5.66799668 19.35203723 0.00219618 -0.00125532 0.00098516
N 20.09911655 4.05540876 23.93016094 -0.00441688 -0.00418785 0.00199363
N 20.05858084 9.02159985 26.19375176 -0.00552880 -0.00259974 -0.00700551
N 0.00751118 0.92235570 21.84739156 0.00045912 0.00103673 -0.00437408
N 20.01482715 3.59314893 19.47768064 0.00225809 0.00702126 -0.00460656
N 18.63482245 5.88951730 24.15750947 0.00173024 0.00570935 -0.00222475
N 21.48348751 1.15726818 25.99175721 0.01127231 0.00407038 0.00031791
N 20.55443564 8.38296640 21.27936254 0.00147845 -0.00165722 0.00150832
N 18.44377687 15.05238501 0.88499012 0.00343891 0.00005572 -0.00248041
N 20.07977445 13.46451043 5.34485423 -0.00060666 0.00051186 -0.00184935
N 20.01936474 18.54593145 8.02937560 -0.00712553 -0.00519781 0.00453487
N 21.73534421 10.27605311 3.24179165 0.00000017 -0.00266513 -0.00010799
N 19.59734746 13.09234651 1.05447654 0.00027242 0.00582416 -0.00262420
N 18.87978755 15.39308921 5.79264471 -0.00056746 0.00459280 0.00105623
N 21.60339822 10.82474957 7.53773874 0.00284521 -0.00145147 -0.00206827
N 20.52949616 17.98581631 2.95572192 -0.00137946 0.00311177 0.00137540
N 18.53185682 14.97351019 10.34303981 0.00294088 -0.00015085 -0.00080686
N 20.11191143 13.63574148 15.03115465 0.00168147 -0.00355603 -0.00355427
N 20.24812274 18.74468470 16.89708686 0.00035284 0.00600942 -0.00703966
N 0.07060408 10.06377145 12.19577682 0.00112984 0.00388629 0.00212226
N 19.86339887 13.15321195 10.50470464 -0.00232418 -0.00237389 0.00177265
N 18.96580304 15.64637939 15.12511660 -0.00805797 0.00917235 0.00539215
N 21.91060014 10.78052460 16.81829042 -0.00187325 -0.00539940 -0.00439286
N 20.91689795 17.90899175 11.97469889 0.00313249 -0.00312668 0.00295759
N 18.39659473 15.16233669 19.17536625 0.00210177 -0.00170910 0.00448125
N 19.94086840 13.77872999 23.32334943 -0.00319993 -0.00203357 0.00130460
N 20.28872300 18.42965020 26.23394865 0.00325668 -0.00475049 0.00328240
N 21.71190071 10.39631285 21.47366442 0.00569644 0.00663143 0.00079096
N 19.59777499 13.24714004 19.62210968 -0.00117151 -0.00020142 0.00351399
N 18.74072528 15.61317328 24.04356488 0.00087645 -0.00259023 -0.00380480
N 21.65815014 10.67176022 25.56295236 -0.00679117 0.00011173 -0.00735813
N 20.32569368 18.18838603 21.47246984 -0.01046391 0.00307331 0.00631332
N 19.10062909 24.89328207 1.24584886 -0.00975943 0.00045279 -0.00057203
N 20.10049022 23.61983884 6.26561317 -0.00331886 -0.00611663 0.00145986
N 20.61992672 28.39143528 7.69850873 0.00746643 -0.00621877 0.00423976
N 0.04425066 19.74817346 3.41413731 0.00002695 0.00443708 -0.00612517
N 19.83368968 22.69736221 1.64096620 -0.00525845 0.00235607 0.00275139
N 18.89669294 25.52257252 5.89698909 -0.00234990 0.00409425 0.00085953