1728
Time=58000.00000005 pbc="T T T" Lattice="22.09955554 0.00000000 0.00000000 0.00000000 28.79757197 0.00000000 0.00000000 0.00000000 27.35871248" energy=-10389.50843155 virial="24.04858508 12.44489801 -23.62508385 12.44489801 27.06398452 -26.18299378 -23.62508385 -26.18299378 25.35154238" stress="0.00378605 0.00066142 -0.00129466 0.00066142 0.00408380 -0.00147335 -0.00129466 -0.00147335 0.00439246" Properties=species:S:1:pos:R:3:vel:R:3
N 0.24322799 5.08075435 1.32649339 -0.00069100 0.00208313 -0.00212488
N 1.16641010 3.94407645 6.05136795 0.00395891 0.00060960 0.00235683
N 2.01668551 9.23305163 8.12554555 -0.00393364 0.00323221 0.00263669
N 3.50251617 0.28017225 3.76474386 -0.00704339 -0.00099041 0.01158364
N 1.63661422 3.36191629 1.72384788 0.00113874 0.00201984 -0.00230353
N 0.38543051 6.08921035 5.98538184 -0.00045756 -0.00315675 0.00035692
N 3.03932125 1.27183135 7.96500575 -0.00198330 -0.00380451 -0.00494192
N 2.03423047 7.92679651 3.07133904 -0.00299963 -0.00421820 -0.00416545
N 0.43019957 5.19752050 10.80936910 0.00605955 -0.00141486 0.00038742
N 1.42996693 4.01734857 15.09028160 -0.00066893 0.00527218 -0.00253432
N 2.03403496 8.90008321 17.32403810 -0.00258575 -0.00550388 -0.00120770
N 3.44553833 0.34944354 12.79018968 -0.00398516 -0.00142902 -0.00874178
N 1.80929423 3.28696797 11.07168678 -0.00228821 0.00475406 0.00213542
N 0.74136148 6.15254061 15.35511193 -0.00347642 -0.00522315 -0.00243927
N 3.26974963 1.40289857 16.97836168 -0.00183664 -0.00208302 -0.00124105
N 2.34073095 8.32968760 12.37398828 -0.00377969 -0.00213999 -0.00065232
N 0.28849285 5.33140699 19.47045935 0.00353251 0.00303560 0.00100124
N 1.61929995 4.07766063 24.07048786 -0.00379597 -0.00354405 -0.00302120
N 2.04222298 9.23235065 26.15731283 0.00398997 0.00150944 0.00677433
N 3.74115301 0.25904215 22.06220081 0.00215070 0.00217346 0.00498295
N 1.60146803 3.55418331 19.98749351 -0.00035224 -0.00555625 -0.00219479
N 0.31490006 6.02972762 24.55643411 -0.00000664 -0.00140363 -0.00176991
N 2.91838933 1.23443282 26.10340062 -0.00033475 0.00428879 -0.00440838
N 2.06038462 8.23380750 21.04386215 0.00359699 0.00310862 -0.00468948
N 0.37020850 14.98815364 1.23637581 -0.00277282 0.00455790 -0.00571892
N 1.89356588 13.92125007 5.72972321 0.00459602 -0.00792453 0.00341371
N 2.38814151 18.55979770 7.89930285 0.00047092 -0.00147149 0.00359096
N 3.17736021 9.89977144 3.37485602 0.00729559 0.00279006 -0.00067129
N 1.16008097 12.93464907 1.21425774 -0.00722421 0.00906700 0.00521744
N 0.27417218 15.53501970 5.91461808 -0.00530052 -0.00439781 0.00007644
N 3.50259049 11.10174974 7.94325153 0.01105025 -0.00162804 -0.00215256
N 2.44866397 17.92383039 2.97029284 -0.00310374 -0.00330533 0.00444045
N 0.44204445 15.01410931 10.37809743 0.00073970 -0.00219774 -0.00106039
N 1.98829002 13.79383680 14.90254232 -0.00587149 0.00066356 -0.00737808
N 2.14478976 18.37096821 17.25676038 -0.00052821 0.00320103 0.00431249
N 3.64042587 10.10816267 13.01544381 0.00178685 0.00133196 0.00397345
N 1.40403353 12.91243991 10.49597849 -0.00722376 -0.00130186 0.00046312
N 0.41788177 15.50970359 15.23708972 0.00088320 0.00812773 -0.00102528
N 3.21999090 10.83622314 16.88679454 -0.00022708 0.00017827 -0.00029440
N 2.35875951 17.97774401 12.43281309 0.00741865 -0.00301697 -0.00599231
N 0.14537073 15.04660556 19.46755432 0.00384925 -0.00551524 0.00303969
N 1.86548664 13.80748770 23.91625085 -0.00319072 -0.00650900 -0.00114819
N 1.84688466 18.51995390 26.33623288 -0.00262262 0.00029787 -0.00315555
N 3.50747598 10.07639516 21.51780074 -0.00367584 0.00165114 0.00168914
N 1.37177733 12.98320372 19.54254282 -0.00229057 -0.00144849 0.00284664
N 0.47301422 15.65585993 24.15335770 -0.00066470 -0.00076409 -0.00191536
N 3.46196442 10.95387180 25.89344177 -0.00193618 -0.00130494 -0.00018749
N 2.13455690 17.84843653 21.47196404 0.01142196 -0.00784011 0.00316769
N 0.06123292 24.81111819 1.44603565 -0.00108709 0.00191736 -0.00446086
N 1.55007722 23.48512950 5.72518961 0.00447586 0.00567393 -0.00292227
N 1.95804739 28.01562283 8.30706507 -0.00073437 0.00025356 0.00693333
N 3.69230578 19.85186498 3.11574865 -0.00596516 -0.00469384 -0.00815649
N 1.49734811 23.01675478 1.73348330 -0.00545527 0.00053467 -0.00222421
N 0.34330193 25.28789811 6.43165632 0.00163504 0.00326432 0.00136704
N 3.12186809 20.74733970 7.73543303 0.00328515 0.00218598 -0.00387743
N 1.94459565 27.41469122 3.49894020 -0.00176872 0.00315308 -0.00224892
N 0.04064623 24.57543755 10.47973964 0.00346614 0.00810579 -0.00350846
N 1.57694192 23.26198697 14.71301500 -0.00360920 -0.00220994 -0.00181917
N 2.38826337 28.17151734 17.39229959 -0.00192072 0.00165933 0.00555970
N 3.57391051 19.89430159 12.44462433 -0.00186456 0.00556161 -0.00386916
N 1.25302260 22.63620925 10.53722860 0.00824468 -0.00070191 0.00130626
N 0.34777095 25.00886254 15.66044152 -0.00094400 0.00057278 0.00473217
N 3.07366842 20.31730870 16.67806718 0.00058076 0.00351283 -0.00074853
N 2.13373400 27.24102262 12.62239164 0.00013701 -0.00160889 0.00126466
N 0.48150625 24.83390542 19.75111855 0.00062588 0.00070765 -0.01071833
N 1.69163356 23.36430602 24.12688479 0.00120930 -0.00389868 0.00282239
N 1.69601488 28.16510730 26.65999213 -0.00231819 0.00329468 0.00373927
N 3.23342450 19.84971770 21.75623222 0.00410670 0.00887483 0.00521375
N 1.76323966 22.82283296 19.83494312 -0.00634498 0.00733353 0.00454014
N 0.65432425 25.45618287 24.45704039 0.00405962 -0.00416094 0.00167050
N 3.28985925 20.31542430 25.96011412 0.00083117 -0.00249474 -0.00466457
N 2.12551250 27.32571245 21.83504528 0.00331602 0.00030764 0.00234498
N 3.95062805 5.05992103 1.27233892 -0.00775317 -0.00295250 0.00593595
N 5.27561123 3.88306324 5.71343927 -0.00216822 0.00696140 0.01019585
N 5.72541075 8.85369290 8.07573701 0.00542057 0.00438015 -0.00343861
N 7.08293308 0.62077314 3.58208382 0.00138665 -0.00134594 0.00005208
N 5.24194211 3.09151162 1.39295813 -0.00552069 0.00473931 -0.00509675
N 4.05945026 5.80614207 5.87668466 0.00070574 0.00262366 0.00586026
N 6.67917208 1.25081668 7.32858022 0.00179558 0.00563448 -0.00174274
N 5.62876478 8.12897258 3.28615234 0.00454249 0.00310467 -0.01018519
N 3.93834639 5.49982564 10.42602336 -0.00374376 0.00076505 0.00055315
N 5.39464602 4.15357954 15.06012401 -0.00655821 0.00119102 0.00011557
N 5.60988642 9.04749609 16.92252303 -0.00284131 -0.00220569 0.00138759
N 7.21134081 0.65631366 12.58586221 0.00448243 -0.00091012 0.00721338
N 5.20615724 3.46007786 10.71011545 -0.00066038 0.00149678 -0.00645578
N 4.16459386 6.14281175 15.29047002 0.00370349 0.00757990 0.00736526
N 6.85775517 1.30927594 16.96273702 0.00424376 -0.01200443 0.00586113
N 5.84592661 8.15531692 12.46402910 0.00055687 -0.00789123 -0.00187561
N 3.97675468 5.47054198 19.72596600 0.00284341 0.00003790 -0.00467491
N 5.31741371 4.50519474 24.35908223 -0.00210771 0.00204034 0.00724982
N 5.71173203 8.72054740 26.18233841 0.00303393 0.00005380 0.00017818
N 7.18871295 0.63892781 21.83530482 0.00108527 -0.00260732 0.00476835
N 5.02355157 3.43240624 19.99218290 -0.00450876 -0.00207604 0.00019371
N 3.91102406 6.29598937 24.24848970 0.00321060 0.00205976 -0.00563717
N 6.79617503 1.55581659 25.95884466 0.00341179 -0.00200171 0.00118667
N 6.07292564 8.43430943 21.23511246 0.00731228 -0.00546041 -0.00022523
N 4.03701406 15.26018546 1.02246500 -0.00207277 -0.00490982 -0.00141727
N 5.11623682 13.74460531 5.65240309 0.00068332 -0.00074453 -0.00254378
N 5.55202565 18.35343726 7.78824219 -0.00922862 0.00112984 0.00194499
N 6.94988254 10.14607416 3.48900868 0.00340463 0.00071109 0.00136154
N 4.91542383 13.23964038 1.58740708 0.00034701 -0.00911819 -0.00189332
N 4.16719488 15.82130103 5.81332172 -0.00451244 -0.00217742 0.00218016
N 7.13391423 10.74066014 7.70026992 -0.00279251 -0.00098163 0.00491465
N 6.11401784 18.11498403 3.25488409 0.00309836 -0.00148858 0.00718826
N 3.74722956 15.05230570 10.40068148 0.00281539 -0.00654284 0.00038441
N 4.86429987 13.88793024 14.82009407 0.00607842 0.00118453 0.00600290
N 5.66636091 18.56983005 16.76129315 -0.00764074 0.00615956 0.00532227
N 6.72585224 10.27799583 12.53236836 -0.00034253 -0.00457985 -0.00128570
N 4.99925864 13.21126695 10.78408759 0.00306449 0.00335288 -0.00235051
N 4.01492229 16.02893391 15.05988161 -0.00226159 0.00003159 -0.00489694
N 6.61644148 11.07305627 16.85094763 0.00175258 0.00106308 0.00203866
N 5.92595289 18.21707089 12.00434000 -0.00474579 -0.00539235 0.00222881
N 3.65477834 14.72649320 19.56221280 0.00332691 0.00414388 0.00668022
N 5.33258823 13.63339856 23.85287217 0.00461816 -0.00017275 -0.00066825
N 5.54728598 18.61253239 26.27021983 0.00001086 -0.00338956 -0.00052152
N 7.42867919 10.20520610 21.74167322 -0.00609530 -0.00252815 0.00407443
N 5.14080967 12.93519737 19.78439543 -0.00687761 0.00341201 0.00436688
N 4.38623847 15.64050801 24.43014186 -0.00676042 -0.00212589 0.00393115
N 6.88574429 10.70155049 26.14396424 0.00572918 -0.00184600 0.00850079
N 5.66735092 18.15094330 21.37671387 0.00055190 -0.00275637 0.00550247
N 4.22612632 24.74514939 1.03089155 0.00359934 0.00245467 -0.00237163
N 5.20096702 23.69877699 5.72335184 0.00250349 -0.00389821 0.00207926
N 5.29311549 28.31579504 8.05014095 0.00235694 0.00040209 -0.00561779
N 7.46947165 19.96151416 3.20457025 -0.00180070 0.00251265 -0.00229681
N 5.12577325 22.63194766 1.24051235 0.00041939 -0.00582330 -0.00007781
N 4.04872502 25.66653934 5.97149433 0.00382055 0.01047625 0.00422450
N 6.74480369 20.31627762 7.86296377 -0.00002945 0.00025042 0.00037680
N 5.90259837 27.55421263 2.95830954 0.00265977 -0.00450127 0.00641878
N 3.58322685 24.59701232 10.25543761 -0.00803656 0.00076695 -0.00814161
N 5.30787127 23.35066919 14.81568305 -0.00163568 -0.00062772 -0.00334794
N 5.77376495 28.05743333 17.02632521 0.00922243 -0.00092644 -0.00602053
N 7.18914707 20.09042552 12.22649481 0.00700649 0.00074297 -0.00194800
N 4.82722344 22.82232765 10.78372103 0.00055049 -0.00713716 -0.00259622
N 3.93658235 25.19806185 15.29875264 0.00910043 -0.00047657 0.00360800
N 7.01435690 20.45842595 16.68960287 -0.00540278 -0.00135705 0.00418729
N 5.84042310 27.55365038 12.49452440 -0.00131317 -0.00358762 0.00116660
N 4.46720473 24.85193692 19.28758642 0.00140571 -0.00748444 -0.00829942
N 5.09535298 22.95602624 23.76549512 -0.00443384 0.00527901 0.00359852
N 5.54845246 28.39451275 26.21638489 0.00527756 -0.00502119 0.00981349
N 7.09398967 20.02408441 21.66648371 0.00254790 -0.00323576 -0.00771069
N 5.18445600 22.71655227 19.82203209 0.00175225 -0.00201092 0.00714378
N 4.33746381 25.11938641 24.15790702 -0.00273078 -0.00294793 -0.01055449
N 7.06425708 20.27702669 25.74564671 0.00278729 -0.00510805 0.00940971
N 6.09497186 27.34352839 21.41253696 -0.00112464 -0.00443121 -0.00464386
N 7.69629877 5.21364417 1.16705233 -0.00209681 0.00103001 -0.00683875
N 9.01646526 3.79178626 5.75562961 -0.00124675 0.00363889 -0.00215825
N 9.45132600 8.76610204 8.19375450 -0.00241413 -0.00014041 0.00812284
N 11.02143460 0.55692205 3.23839760 0.00107679 0.00323592 -0.00178827
N 8.96384800 3.44453213 1.64042571 0.00022738 0.00039375 -0.00000659
N 7.73038358 5.66622661 6.24386946 0.00280624 -0.00165261 0.00433258
N 10.74401121 0.98440518 7.74956518 0.00760880 0.00342220 0.00463896
N 9.57434239 8.22424432 3.11684687 -0.00266459 -0.00113136 -0.00568343
N 7.54194962 5.32010179 10.29169765 -0.00571899 -0.00385198 0.00865026
N 8.90940615 4.02108894 15.14623894 -0.00285170 -0.00517837 -0.00070249
N 9.27098236 9.24630177 16.89263809 -0.00250729 -0.00243563 0.00167198
N 10.85536061 0.51078415 12.59454893 0.00838830 0.00268800 -0.00479853
N 8.90752438 3.49960621 10.33219942 -0.00047753 0.00149543 -0.00356141
N 7.75904072 6.03045845 15.35968949 0.00594745 -0.00324647 0.00341144
N 10.52140306 1.41208258 16.83187794 -0.00228772 -0.00480089 0.00398229
N 9.49077929 8.31588362 12.22359197 0.00217561 -0.00117214 0.00286867
N 7.49407601 5.63416344 19.66709813 0.00049142 -0.00180914 -0.00135576
N 8.83562715 4.06280441 24.10735970 -0.00723137 -0.00614166 0.00358833
N 9.37175712 8.96290767 26.06540195 -0.00128757 -0.00376481 0.00816171
N 10.90746875 0.93490638 21.82225198 -0.00020297 0.00291185 -0.00838539
N 8.70782738 3.62717228 19.92645274 -0.00307539 -0.00138799 -0.00594556
N 7.76233423 6.12011145 24.18729079 0.00385165 0.00288278 0.00262183
N 10.63770327 1.06695032 25.76367284 0.00385783 -0.00147141 0.00166981
N 9.66856910 8.23087412 21.35767905 0.00355994 0.00362823 -0.00377597
N 7.61658094 15.07692077 1.05799489 -0.00495324 -0.00123244 0.00315316
N 8.98543651 13.88670523 5.83410282 -0.00356209 -0.00268589 0.00507316
N 9.62591006 18.89492706 8.12273256 0.00045317 0.00618821 0.00810985
N 11.04997628 9.94603597 3.35108662 0.00531753 0.00736151 0.00073667
N 8.48730417 13.00554673 1.49145383 0.00621039 -0.00119331 -0.00549983
N 7.77367887 15.81404352 6.08923335 -0.00453749 -0.00199350 0.00333056
N 10.28350314 10.96775011 7.67634947 -0.00807282 -0.00132839 0.00223896
N 9.67556483 17.93353921 2.81456900 0.00591059 0.00571894 0.00295842
N 7.56855368 15.03706942 10.32264131 -0.00098509 0.00273364 0.00423266
N 8.64689646 13.69220556 14.46941310 -0.00041448 0.00044903 -0.00713672
N 9.24574905 18.48745156 16.95192963 -0.00254223 0.00245165 0.00017509
N 10.56135291 10.35907431 12.55753557 -0.00426307 0.00832325 -0.00745463
N 8.80747185 13.14131432 10.28226356 -0.00875527 0.00056479 -0.00403678
N 7.75208266 15.73248025 14.64183814 0.00360764 0.00541578 0.00025209
N 10.54995248 11.20682692 16.66788090 0.00015474 0.00067480 0.00256764
N 9.64931297 18.37381728 11.47275398 -0.00039633 -0.00600119 0.00024317
N 7.76195388 15.39441844 19.39263980 0.00498988 -0.00104377 -0.00153676
N 9.12522405 13.75971066 23.74643648 0.00711766 -0.00099765 -0.00056638
N 9.61779266 18.51914491 25.89929518 -0.00422872 0.00606663 0.01431554
N 10.91300623 10.20475096 21.53490232 0.00253834 -0.00016497 -0.00058084
N 8.99653691 13.41366312 19.36852928 0.00244055 0.00471591 -0.00679009
N 7.77082014 15.61512930 24.02649410 -0.00656823 -0.00415549 0.00091564
N 10.78082159 10.86564683 25.88521272 0.00358122 -0.00091533 0.00420992
N 9.47254523 18.31153353 21.38684493 0.00434816 -0.00114077 0.00647118
N 7.55780814 24.63882525 1.04264767 -0.00051825 -0.00773404 -0.00262709
N 8.86711590 23.30307017 5.56249747 -0.00365640 0.00148390 -0.00018655
N 9.03058614 28.19943083 7.60564895 0.01144221 0.00361560 0.00255631
N 10.84441071 19.78021998 3.17837895 0.00057621 0.00151333 -0.00842906
N 8.90125665 22.79797008 1.29954865 -0.00213905 -0.00052891 -0.00153806
N 7.55184846 25.14523854 5.64917557 0.00574372 0.00515994 -0.00227074
N 10.82400529 20.70814588 7.49482622 0.00455484 0.00643686 -0.00487256
N 9.58633476 27.59593775 2.95889491 -0.00256090 -0.00120464 -0.00435597
N 7.32726848 24.86175015 9.85453985 0.00318164 -0.00494949 0.00035276
N 8.87352242 23.42502622 14.45323937 -0.00182600 0.00431513 -0.00104851
N 9.20752220 28.24942506 17.13327124 -0.00112342 0.00180029 -0.00385932
N 10.94021733 19.74126562 12.76710623 -0.00521155 0.00639483 -0.00294774
N 8.46784245 22.94001065 10.32334272 0.00019097 -0.00315862 0.00171408
N 7.61149198 25.14053508 15.08762380 0.00152793 -0.00259121 0.00405383
N 10.60220502 20.38442020 16.94406581 -0.00041664 -0.00166983 -0.00331974
N 9.44365642 27.50709181 12.31397988 -0.00108630 -0.00255066 0.00073980
N 7.68474125 24.87471761 19.21894858 -0.00237855 0.00023673 -0.00626761
N 9.21253907 23.80895686 23.73226622 -0.00099875 -0.00192873 0.00023069
N 9.51541002 27.96704643 26.24910450 0.00545382 -0.00390204 0.00554236
N 10.47738458 20.29023642 21.73113606 -0.00351384 0.00038927 0.00436323
N 8.88085318 22.94395815 19.44898571 0.00579874 -0.00156519 0.00625630
N 7.85506764 25.51299938 24.13690353 -0.00342695 0.00331436 0.00386200
N 10.58242711 20.50978667 25.49840952 0.00561758 -0.00022632 0.00319993
N 9.60254854 28.02133479 21.30486908 0.00406898 0.00159855 -0.00600371
N 11.39959566 5.34538947 1.06199985 0.00108239 -0.00430282 0.00109861
N 12.53590075 4.04617920 5.58198646 0.00081940 0.00233615 -0.00092729
N 13.29831826 8.64004339 7.63147027 0.00126538 -0.00490133 -0.00206069
N 14.57145047 0.65618856 3.17779152 -0.00204236 0.00329950 -0.00157769
N 12.64619494 3.33018911 1.17136397 -0.00089520 0.00609037 -0.00104440
N 11.12336736 5.88564334 5.92220229 0.00665458 -0.00844314 0.00047315
N 14.17187785 1.47455772 7.58637920 -0.00296338 0.00660728 0.00056544
N 13.32369272 8.23214957 2.74134466 0.00405585 -0.00176878 -0.00218863
N 11.33477142 5.56892587 10.31290268 -0.00382435 0.00674012 0.00148818
N 12.74615446 4.19988606 15.08350012 0.00196806 0.00224723 0.00245261
N 13.05724446 9.06984520 16.67526392 0.00644270 0.00417392 -0.00442653
N 14.46735640 0.50484845 12.57938864 -0.00322427 -0.00170251 0.00172263
N 12.33817575 3.60927829 10.47426807 0.00598784 -0.00156684 -0.00614354
N 11.48348382 6.21219188 15.14508361 0.00575313 0.00112473 -0.00218160
N 14.37742209 1.11288901 17.06020289 0.00696449 0.00384586 -0.00217346
N 13.14984205 8.32569781 11.87969839 0.00102513 0.00074906 -0.00417126
N 11.08737700 5.64509414 19.53907783 0.00604754 0.00059618 0.00222552
N 12.25704287 3.73700680 23.78118646 0.00627851 -0.00153797 -0.00220797
N 13.21178959 8.66162065 25.92953287 -0.00230933 0.00277016 -0.00499537
N 14.79013233 0.95945572 21.71341066 0.00198991 -0.00271341 -0.00153738
N 12.44293557 3.67454418 19.73504831 -0.00536376 0.00125336 -0.00221648
N 11.32768522 5.79854981 24.19137683 -0.00269519 0.00400108 -0.01105107
N 14.47143902 1.11904690 25.54953235 0.00611737 0.00422210 0.00263455
N 13.29655751 8.78649083 21.20267459 0.00227381 -0.00017762 0.00468538
N 11.05035822 14.94655588 0.98314744 0.00265135 -0.00125085 0.00008030
N 13.04669608 13.56621772 5.08653132 -0.00576252 0.00017578 0.00194123
N 13.02067275 18.53546087 7.93137815 0.00389895 -0.00368852 -0.00219768
N 14.73405537 10.04439928 3.03719064 -0.00334242 0.00960998 0.00322029
N 12.35309210 13.13750686 1.34216770 0.00788176 -0.00458164 0.00130896
N 11.74026451 15.44733795 5.58322747 0.00225841 -0.00425176 0.00500527
N 14.41393570 10.70414688 7.18900060 -0.00512044 0.00232740 0.00139506
N 13.52255915 17.93266543 2.99486698 -0.00154737 -0.00368803 0.00103399
N 11.45320287 15.32792905 9.47213160 0.00959963 0.00211544 -0.00219606
N 12.87277445 14.00135066 14.71882460 0.00077786 -0.00561603 0.00498971
N 13.38695925 18.20413645 17.27111083 -0.00359373 -0.00164315 -0.00004165
N 14.31676719 10.23597501 12.02953109 0.00012863 0.00340509 -0.00392223
N 12.39047856 13.25765962 10.16162883 -0.00308062 0.00626015 -0.00270123
N 11.53885158 15.89382138 14.74015972 0.00566971 -0.00471511 -0.00188955
N 14.35876240 10.98435681 16.78391018 0.00767226 0.00131409 0.00290609
N 13.36052399 18.06636754 12.05135362 -0.00710375 0.00170314 -0.00257407
N 11.09972182 15.24177972 18.97241429 0.00039981 0.00204840 0.00075103
N 12.58125941 13.73945304 23.99244581 -0.00277143 0.00220523 0.00060211
N 13.22032180 18.38977869 26.18165293 0.00144850 0.00474991 -0.00086578
N 15.03485157 10.35272739 21.55403723 -0.00469400 0.00014952 -0.00148253
N 12.53911168 13.54149974 19.53898064 -0.00069833 0.00058696 -0.00234104
N 11.34847453 15.68520851 24.29657957 0.00207756 -0.00119654 -0.00196474
N 14.29825562 10.62504953 25.63854461 -0.00040475 -0.00013786 -0.00194062
N 13.11079248 17.88552737 21.06871408 0.00572159 0.00181332 0.00555685
N 11.34892525 24.84633198 0.79497225 0.00142108 -0.00543199 0.00302513
N 12.44267430 23.45304972 5.48364319 -0.00049783 -0.00717732 -0.00495988
N 13.25208589 28.18313449 7.78942880 -0.00309868 -0.00413555 -0.00717027
N 14.54872802 19.90718665 3.26532446 0.00196678 0.00602712 -0.00494495
N 12.61224448 23.03938530 1.46822668 -0.00572792 -0.00048054 0.00233156
N 11.42890832 25.39111290 5.97346264 0.00036358 -0.00681227 -0.00125812
N 14.23103116 20.46335231 7.60840634 -0.00075166 0.00050778 0.00039397
N 13.49006648 27.49655228 2.87916551 -0.00302691 -0.00354974 0.00108072
N 10.93264232 24.64669505 10.29378552 -0.00067675 -0.00057109 0.00712198
N 12.93547354 23.21522890 14.88478964 0.01168735 0.00446385 0.00235299
N 12.96287018 28.17125467 17.15264145 -0.00429080 0.00349039 0.00149295
N 14.73359617 19.76626038 12.79197852 -0.00479277 0.00697297 -0.00419616
N 12.33879619 22.76533889 10.33218984 -0.00017392 -0.00468525 -0.00327205
N 11.31526000 25.01436407 15.09239146 0.00430924 -0.00173481 0.00179445
N 14.24406107 20.39384800 16.93831448 -0.00877085 0.00022190 -0.00270672
N 13.02489738 27.50174911 12.30864974 0.00358416 0.00150640 0.00421243
N 11.12607268 24.88359100 19.37102209 -0.00152951 -0.00291728 -0.00418560
N 12.74832841 23.35546373 23.81231054 0.00179066 0.00196047 -0.00222416
N 13.19734591 28.08509587 25.91424367 0.00539459 0.00159840 0.00600221
N 14.64140401 19.70159537 21.20903824 -0.00257612 -0.00803680 0.00288117
N 12.54815011 23.08723278 19.76912983 0.00269084 0.00712128 -0.00334012
N 11.63261305 25.28807147 24.20781555 0.00622054 0.00145809 -0.00275719
N 14.47486258 20.29215339 25.88126189 0.00499317 -0.00195511 0.00243639
N 13.58172664 27.84275038 21.36237842 -0.00333846 0.00036169 -0.00390828
N 14.88418036 5.58812195 1.11680568 -0.00068826 0.00404430 0.00226786
N 16.39173255 4.16044879 5.59374628 0.00271565 0.00190773 0.00062619
N 16.75270511 8.47304822 8.20694390 -0.00487575 -0.00263036 -0.00105944
N 18.11388544 0.73323152 3.07846695 0.00392141 0.00511053 -0.00261358
N 16.26586246 3.72312595 1.20507330 0.00248405 -0.00050851 0.00158928
N 14.89786983 5.89255443 5.80910581 0.00238704 0.00313598 -0.00637253
N 17.86840862 1.40761709 7.55587839 0.00077943 -0.00344191 0.00754725
N 17.00240934 8.37507752 2.93918630 -0.00309077 0.00118453 0.00245610
N 15.12939125 5.50162311 10.10998264 -0.00537684 0.00233529 -0.00594669
N 15.77374919 4.15007825 14.88508797 0.00038841 0.00297437 -0.00117877
N 16.64760020 9.26512549 16.91161179 0.00035414 0.00295435 0.00028477
N 18.07112093 0.60333065 12.34415567 0.00354263 0.00092874 -0.00179410
N 15.72457444 3.31957931 10.76753428 0.00201916 -0.00240697 0.00131951
N 14.85261395 6.22874414 15.15512988 0.00337269 -0.00649451 -0.00693290
N 17.69838458 1.08467431 16.85028260 -0.00143393 -0.00109652 -0.00432077
N 16.88670604 8.14445849 12.50285048 -0.00874884 0.00005887 0.00006103
N 14.87805611 5.62072362 19.51009737 -0.00160402 -0.00042923 0.00734893
N 16.51070820 4.15456285 23.94171466 0.00217316 -0.00089924 0.00677959
N 16.67037793 8.90923637 26.13180582 0.00010510 -0.00188101 0.00094698
N 18.37542631 0.58325061 21.78494212 -0.00631128 0.00458413 -0.00322492
N 16.11294432 3.62920487 19.71723108 0.00120997 0.00025176 0.00104793
N 15.05033851 5.84031866 23.92315316 -0.00007361 0.00058869 0.00336236
N 18.03764915 1.59069877 25.91076709 -0.00145033 0.00441030 0.00186089
N 17.01610240 8.33608238 21.29009792 0.00472138 0.00569540 0.00081592
N 14.85233824 14.98970661 0.78102754 -0.00029793 0.00418287 0.00041192
N 16.40821671 13.72026129 5.69211065 0.00198272 -0.00349141 -0.00360386
N 17.28112098 18.46351733 7.94954658 -0.00807108 -0.01275431 -0.00420615
N 17.81701488 10.40884632 3.65475507 -0.00001680 -0.00463923 0.00753509
N 16.23793786 13.21463142 1.59542511 0.00349321 -0.00514278 0.00209207
N 15.48630054 15.82574189 5.93040362 0.00089337 0.00223545 0.00229241
N 18.03027313 10.29855492 7.70783170 0.00980483 -0.00153201 0.00165629
N 16.94211974 17.84080280 3.04735286 0.00405425 0.00149665 0.00112328
N 15.19582462 14.87006791 10.09478745 0.00071372 -0.00255455 0.00154143
N 16.43097325 13.84911583 14.55050978 -0.00232547 0.00526362 -0.00790899
N 16.61320935 18.58898279 17.21346649 -0.00198981 -0.00568697 -0.00030120
N 18.17513572 10.12025807 12.60120265 0.00815901 -0.00175700 -0.00146487
N 16.42343718 12.91786903 10.48631898 0.00453766 -0.00810797 0.00131356
N 15.09449129 15.56029756 15.13499644 0.00250268 0.00052667 0.00016878
N 18.16873681 10.95689581 16.80326766 -0.00358942 0.00735364 -0.00043995
N 16.88012424 18.12200444 12.31103691 0.00064517 -0.00293929 0.00785711
N 15.27865307 15.08196394 19.32476739 0.00191585 -0.00190773 0.00538022
N 16.48313619 13.66790809 23.85110636 -0.00450503 -0.00400764 -0.00268660
N 17.00450350 18.58446755 26.21287742 -0.00062136 -0.00037169 -0.00471803
N 18.21437389 10.33567652 21.63243368 -0.00189478 -0.00284467 -0.00803362
N 16.22065405 13.05580238 19.47613865 -0.00443739 0.00797126 -0.00358291
N 15.26034064 15.62787165 24.17946806 0.00024095 -0.00093457 -0.00506795
N 17.95399852 10.76136396 26.01771770 -0.00006872 -0.00241308 0.00179082
N 17.03209820 18.16270575 21.26579963 -0.00336945 0.00078951 0.00232469
N 15.16169950 24.67045240 0.80920149 0.00180390 0.00487810 -0.00094176
N 15.89993621 22.97418207 5.18271735 0.00140996 -0.00353143 0.00178483
N 16.66125777 28.20814962 7.70457006 0.00100357 -0.00030840 0.00582187
N 18.30045748 19.63399941 3.31015586 0.00250847 -0.00181353 0.00289585
N 16.22450251 22.75270349 1.56700669 -0.00001673 -0.00037718 -0.00898379
N 15.06395089 25.02988665 5.78488624 0.00068777 -0.00348433 0.00140210
N 18.09431509 20.60067360 7.67514230 -0.00172086 -0.00474622 0.00181449
N 16.90191476 27.64389993 2.84572387 0.00239235 0.00621491 0.00613032
N 14.66302734 24.49396580 10.23629154 0.00180979 0.00210966 -0.01157752
N 16.51094212 23.44050578 15.11859610 -0.00099026 -0.00837200 -0.00649037
N 16.63165835 27.87872349 17.26273550 -0.00894958 0.00131997 0.00056341
N 18.51964469 19.66805963 12.25034959 0.00722958 -0.00547440 0.00292891
N 16.02382510 22.65205086 10.79410627 0.00026433 0.00513449 0.00081701
N 15.27490226 25.50311589 15.31809202 0.00471792 0.00332013 -0.00146575
N 17.99919220 20.28613723 16.66696288 -0.00382762 0.00256619 0.00176000
N 16.86946628 27.48774026 12.49334186 0.00751853 -0.00374311 0.00352490
N 15.18576839 24.76827594 19.47690798 -0.00409318 -0.00578211 0.00077397
N 16.21175898 23.22255177 23.89512789 0.00237383 0.00317871 0.00020823
N 16.93375927 28.29956741 26.18829382 -0.00545942 0.00203051 0.00266225
N 18.18024403 20.08145233 21.79711992 0.00229445 -0.00370357 -0.00741668
N 15.98750700 22.60056003 19.95586993 0.00115137 -0.00025892 -0.00538842
N 15.73635542 25.48611813 24.19116742 -0.00723162 -0.00272191 0.00410978
N 17.95706671 20.61957179 25.93464565 0.00618860 0.00314099 -0.00161990
N 17.23298807 27.42249987 21.20057887 -0.00495340 -0.00564194 -0.00535045
N 18.57751163 5.38045249 0.98458545 0.00111733 0.00008928 0.00828059
N 20.18656061 4.27740509 5.75365942 0.00240407 -0.00511095 0.00701817
N 20.51037991 8.80035419 7.87286677 -0.00358610 0.00001785 0.00206755
N 21.96892069 0.73912294 3.69493361 0.00078378 0.00089677 -0.00086382
N 19.88013747 3.46837266 1.57862362 -0.00462338 -0.00062114 -0.00048486
N 18.78939513 6.09522120 5.80815408 0.00353245 -0.00048857 0.00141062
N 21.68275456 1.17279731 7.97158125 0.00327892 0.00281412 -0.00223928
N 20.36830451 8.34023183 3.09201598 -0.00742369 -0.00364542 -0.00184777
N 18.79769315 5.43763469 10.40852683 0.00788260 -0.00204619 -0.00327012
N 19.57280990 3.77398369 14.91085646 -0.00872842 -0.00239027 0.00168363
N 20.34912778 8.92769358 17.14428974 0.00346934 0.00360626 -0.00331711
N 21.93090949 0.39057856 12.98852617 0.00143220 -0.00181243 0.00266062
N 20.06040893 3.52362658 10.63868574 0.00735472 -0.00628876 -0.00291809
N 18.68793294 5.83387137 15.16292877 -0.00113085 0.00973258 -0.00182019
N 21.66091308 1.26108035 17.30363075 0.00234563 0.00560395 0.00274873
N 20.66353722 8.16080671 12.36933698 0.00456301 -0.00049341 -0.00196303
N 18.86536381 5.87874139 19.06328939 -0.00164883 0.00333746 0.00292182
N 20.07418546 4.14218951 24.05860758 0.00457671 0.00422236 -0.00335118
N 20.69369460 9.02342341 26.07323248 0.00126391 0.00514697 -0.00157705
N 21.91551266 0.88852002 22.33420906 -0.00152588 0.00278677 0.00641551
N 19.84906578 4.06854487 20.03044408 0.00298819 0.00021756 0.00591765
N 18.69787357 6.05177429 24.17102117 -0.00126780 0.00064548 0.00018076
N 21.76100069 1.29226676 25.97689398 -0.00384326 0.00292730 0.00679851
N 20.69199491 8.09264661 21.27406715 -0.00530237 0.00188675 -0.00089011
N 19.27511782 15.30970960 0.91771631 -0.00472100 -0.00221844 -0.00093431
N 20.05546630 13.76051583 5.65527965 -0.00564706 0.00401214 0.00078973
N 20.62813053 18.68824655 7.89619422 -0.00512724 -0.00510964 -0.00319358
N 21.82949892 10.15542875 3.11909408 0.00063174 0.00052949 0.00784409
N 19.96284021 13.24054081 1.61036825 -0.00140095 0.01042862 -0.00640583
N 18.71700565 15.59706914 5.98475093 -0.00515045 0.00392008 -0.00156188
N 21.61299726 10.88044063 7.67624949 0.00841755 -0.00420234 0.00037711
N 20.81887982 17.95159580 3.18603794 0.00320989 -0.00272345 0.00359390
N 18.82120817 15.19818633 10.31349287 0.00212382 0.00207863 -0.00111167
N 20.03521797 13.75729107 14.80907015 -0.00430118 -0.00066052 -0.00371194
N 20.40485680 18.46825571 16.95462553 -0.00501174 -0.00467809 0.00737684
N 21.55279841 10.28987267 12.70096881 0.00652156 0.00220501 -0.00670896
N 19.99259826 13.22058563 10.58952238 0.00143982 0.00492818 -0.00080526
N 18.64600035 15.67986138 15.13975968 -0.00094272 0.00643220 0.00178781
N 21.75254911 10.68683127 16.66053411 -0.00179683 -0.00021407 0.00028820
N 20.84801504 17.84793140 11.93449364 -0.00253710 -0.00043937 0.00110075
N 18.29171209 14.97457102 19.67105548 0.00111915 0.00091598 -0.00067854
N 20.06431163 13.97468770 24.03655675 0.00389811 -0.00192623 0.00343816
N 20.79065831 18.39394502 26.07516623 -0.00257952 -0.00417888 0.00188788
N 21.90346158 10.10908762 21.48814140 0.00045865 0.00343913 -0.00604258
N 19.82101247 13.20651897 19.87088323 -0.00359297 0.00220730 -0.00016708
N 18.81886941 15.91563896 23.96794271 -0.00055372 -0.00592776 0.00420782
N 21.74629036 11.03581819 25.57755617 -0.00153176 0.00274243 -0.00283145
N 20.67635455 18.02466765 21.31374973 0.00379913 0.00441230 -0.00200897
N 18.56645260 24.62301437 1.38609774 0.00188783 -0.00071336 0.00053704
N 19.84339649 23.53476803 5.73557697 0.00192765 0.00076575 0.00074685
N 20.30074547 28.18347612 8.39212110 -0.00275581 -0.00040168 0.00264421
N 22.05534986 19.88426270 3.41944472 -0.00022015 -0.00211165 -0.00336910
N 19.93376191 22.77076189 1.59495541 0.00254466 0.00101407 -0.00363536
N 18.64922168 25.44019242 6.08266668 -0.00638447 0.00189835 0.00025059