1728
Time=71000.00000007 pbc="T T T" Lattice="22.16008530 0.00000000 0.00000000 0.00000000 28.78557913 0.00000000 0.00000000 0.00000000 27.34277330" energy=-10384.23010015 virial="26.13297105 0.43142902 13.96170830 0.43142902 24.19505847 33.56248838 13.96170830 33.56248838 -15.50433149" stress="0.00399712 0.00005697 0.00089549 0.00005697 0.00385730 0.00182399 0.00089549 0.00182399 0.00192178" Properties=species:S:1:pos:R:3:vel:R:3
N 0.06246362 5.44491151 0.88378525 -0.00292248 -0.00522337 0.00819033
N 1.82401636 3.89840726 5.47829622 0.00237210 -0.00088891 0.00031779
N 1.78334867 8.98136890 8.14395229 0.00021745 -0.00323221 0.00135540
N 3.29568141 0.75613964 3.43381240 0.00179466 -0.00093904 -0.00328827
N 0.94380055 3.40857426 1.56907124 0.00581095 -0.00002804 0.00780801
N 0.86880876 6.04550722 6.06142440 -0.00094484 0.00170343 0.00445451
N 3.35691903 1.05412787 7.80996967 0.00192101 -0.00144616 -0.00293211
N 2.17818058 8.41666332 3.08645226 -0.00440104 -0.00324926 0.00848265
N 0.35412032 5.63211304 10.09158955 -0.00167404 0.00362212 0.00111831
N 1.38330316 3.70528036 14.77161269 0.00231768 0.00155091 -0.00117297
N 2.09560591 8.78519697 17.00818992 -0.00095318 0.00292604 0.00074599
N 3.45836185 0.12343877 12.48182295 -0.00112221 -0.00403008 -0.00443010
N 1.64942636 3.70250467 10.42159171 0.00045870 0.00635849 0.00315174
N 0.53864746 5.82798961 14.99258134 -0.00006160 -0.00602438 0.00894249
N 3.39705982 1.19864084 16.84984413 -0.00570047 -0.00525621 -0.00443665
N 2.67647743 8.26051778 12.04857848 0.00915278 -0.00583639 0.00293230
N 0.16814520 5.17550159 19.54001599 0.00116252 0.00890431 -0.00070693
N 1.61471047 4.45106239 24.25533729 -0.00156536 -0.00036004 -0.00598822
N 2.13650412 9.02915147 25.98696718 -0.00488189 0.00166239 0.00083810
N 3.65544175 0.75504713 21.77520434 -0.00486925 -0.00455249 0.00013616
N 1.36207369 3.25143500 19.85754982 0.00148478 -0.00122785 0.01080571
N 0.23633460 6.31783485 23.82852550 0.00317424 -0.00715821 0.00138216
N 3.12059329 1.03668141 26.17363573 -0.00165334 -0.00345998 0.00161267
N 2.29480535 8.44738554 21.13141874 -0.00246637 0.00239040 -0.00337840
N 0.41192261 15.08547365 1.16748678 0.00520320 -0.00181081 0.00343457
N 1.66383352 13.86575255 5.76644318 0.00660279 -0.00189457 0.00020249
N 1.79965546 18.56078415 7.77468125 -0.00122640 0.00308834 0.00231932
N 3.56378749 10.23432376 3.40308644 0.00442653 0.00581938 0.00265228
N 1.46501169 13.11259646 1.50340792 -0.00075849 -0.00652436 -0.00104214
N 0.25131562 15.72170873 5.82805655 0.00399177 0.00326251 0.00362100
N 3.43897478 10.43853895 7.41852536 0.00219995 0.00165827 -0.00099849
N 2.63546207 17.85034729 2.90570423 0.00273867 -0.00137310 0.00220632
N 0.40415544 15.09849245 10.44737944 -0.00368293 -0.00040898 0.00219247
N 1.82970396 13.80298074 14.90878883 -0.00444715 0.00302428 -0.00341039
N 2.30401878 18.47140912 17.57467467 -0.00601558 -0.00446636 0.00307572
N 3.71443823 10.25087232 12.38917229 0.00462658 -0.00959875 -0.00121791
N 1.57954307 13.18527862 10.62978751 0.00113180 -0.00363385 -0.00529131
N 0.85762443 15.81193600 15.36174750 0.00586994 -0.00240356 0.00743689
N 3.53914246 10.61142348 16.73430521 -0.00418324 0.01063343 0.00479787
N 2.25087336 18.14256624 12.44063888 0.00650141 -0.00262174 0.00108197
N 0.55770957 14.92871391 19.35822492 0.00001444 0.00676096 -0.00480224
N 1.96137100 13.47392684 23.95799615 -0.00059890 0.00432650 0.00193343
N 2.14944860 18.44824197 26.16332173 -0.00255451 0.00895718 0.00035086
N 3.38878778 10.41387946 21.64215054 -0.00124755 -0.00349884 0.00385262
N 1.75298825 12.96125062 19.91537521 0.00076467 0.00105928 -0.00343258
N 0.47635287 15.24275545 24.11770583 0.00784958 0.00520092 -0.00025538
N 3.78746920 10.66019668 25.77002699 0.00373146 -0.00245159 0.00218186
N 2.26243711 18.13121677 21.36482567 0.00226398 0.00939516 0.00382603
N 22.06890718 25.03930214 1.22629496 -0.00002096 -0.00350748 0.00536840
N 1.46092017 23.28328917 5.89586361 -0.00003636 -0.00549487 0.00061141
N 2.12266832 27.92339414 8.04470998 0.00015682 0.00259391 -0.00570490
N 3.78333284 19.94129740 2.97755688 -0.00142945 -0.00346023 0.00051151
N 1.21588394 23.04751164 1.57675289 0.00552048 0.00190202 0.00368004
N 0.11025818 25.09450777 6.23227452 -0.00073404 -0.00546185 0.00268882
N 3.24807198 20.34807642 7.72311311 0.00687668 -0.00026908 0.00214796
N 2.25175118 27.39128456 3.35669042 0.00482433 -0.00084386 0.00785519
N 0.27263384 24.92744764 10.17589556 -0.00363231 0.00053692 0.00159367
N 1.51976918 23.23008292 14.85121135 -0.00162365 0.00116644 -0.00449077
N 2.28072420 27.99544818 17.22197732 -0.00638408 -0.00049269 -0.00445709
N 3.02542145 20.27045524 12.83495386 0.00288828 0.00436984 0.00238087
N 1.52847906 22.98313122 10.59871473 -0.00421401 0.00165388 -0.00564801
N 0.62147871 25.22975418 15.44369768 0.00548260 -0.00440443 -0.00200611
N 3.55016313 20.28124745 16.86851249 0.00541275 0.00254176 0.00278506
N 2.25467170 26.97651000 12.28581106 -0.00097968 -0.00053612 -0.00306695
N 0.34996219 24.83392381 19.41150525 0.00174614 -0.00035953 0.00075802
N 1.54863936 23.57441882 23.91729222 -0.00344801 -0.00201421 -0.00992595
N 1.75623293 27.92845849 26.35522543 -0.00705211 0.00317297 0.00008720
N 3.98211374 19.77100630 21.38950532 0.00357041 0.00126600 -0.00015981
N 1.70824540 23.03368761 19.58292076 -0.00117078 0.00248821 0.00157003
N 0.21511868 25.40934570 24.19164025 -0.00323408 0.00222333 0.00386189
N 2.69891084 20.74273448 26.22660162 -0.00444677 -0.00406018 0.00398158
N 2.29302537 27.70094522 21.65526679 -0.00432722 0.00196337 0.00084766
N 4.00814958 5.46097824 1.16725881 0.00308016 0.00412346 -0.00184775
N 5.31081397 3.94689893 5.81907745 0.00104106 -0.00045703 0.00889616
N 5.89124732 9.14008868 8.21709586 -0.00732492 -0.00489339 0.00804774
N 6.98854535 0.88805466 3.31370025 -0.00080790 0.00175744 0.00399437
N 4.98413021 3.43229665 1.64711811 -0.00150750 -0.00070268 -0.00049720
N 4.04555330 5.90571197 6.29201439 -0.00329947 -0.00766664 -0.00628842
N 7.04046721 1.33470482 8.01955175 0.00138979 0.00076607 -0.00374245
N 5.86945017 8.19185798 3.19862609 -0.00155664 -0.00202990 0.00170766
N 3.96686401 5.55022090 10.32383957 0.00566432 0.00096496 -0.00519320
N 5.30344739 4.09661300 14.85205977 -0.00129850 -0.00193501 0.00089226
N 5.68944370 8.85399765 17.09854041 -0.00587916 0.00488324 0.00199160
N 7.01467168 0.69204479 12.97864140 0.00124997 0.00140216 -0.00143822
N 5.31984661 3.68193644 10.75780260 0.00607389 -0.01202205 -0.00315144
N 3.96008726 5.91403617 15.31285439 0.00148175 0.00214342 0.00124765
N 7.17799206 1.42168635 17.08575747 0.00111596 0.00034160 -0.00189357
N 5.90508039 8.48252522 12.15105556 0.00334016 -0.00158642 -0.00565017
N 3.89252299 5.73871214 19.41376496 0.00062574 -0.00142098 0.00274943
N 5.05360099 3.88251669 23.76626472 -0.00270306 -0.00402601 0.00195122
N 6.35431070 8.67785237 26.25441193 -0.00127436 0.00024350 -0.00090414
N 7.44987308 0.73823595 21.74896830 0.00101973 -0.00495238 0.00268136
N 4.98059776 3.73302817 19.85691405 0.00050870 -0.00409244 0.00389026
N 4.23376361 6.02370834 24.01652506 0.00220483 -0.00171439 -0.00192702
N 6.84661906 1.66362020 25.82746626 -0.00765539 -0.00105953 -0.00205241
N 5.96953171 8.38375622 21.19217539 -0.00369281 -0.00319369 -0.00839114
N 3.97471305 14.92219707 1.27077280 -0.00395640 -0.01617591 0.00601265
N 5.07003542 13.78761852 5.60714793 -0.00188122 -0.00450459 -0.00620336
N 5.43725611 18.63824030 7.80724483 -0.00139468 -0.00305570 0.00246734
N 7.09357104 10.08344801 3.49977990 -0.00077966 -0.00164515 0.00422670
N 5.28591061 13.08955574 1.19827193 -0.00144316 0.00070876 -0.00231227
N 3.84363482 15.69122608 5.95135099 -0.00462101 -0.00978640 -0.00037676
N 6.97395516 11.17772612 7.84165105 -0.00216191 0.00086575 -0.00403056
N 6.26804981 17.77453237 3.23458660 0.00159610 -0.00017131 -0.00114920
N 3.71706446 15.00530477 10.30690787 -0.00114228 0.00085230 0.00037669
N 5.41809795 13.87471533 15.00148955 -0.00752021 -0.00051358 0.00053913
N 6.16984155 18.36717099 16.92672912 0.00435112 0.00178527 0.00291493
N 7.25268463 10.43265893 12.58937702 0.00591877 -0.00544619 -0.00624162
N 5.04557861 13.11319541 10.63776119 0.00800569 0.00544543 0.00391639
N 4.27293541 15.79485737 15.40072817 -0.00904888 -0.00085293 0.00434356
N 6.87839001 10.85790142 16.75434893 -0.00385910 0.00144885 -0.00967148
N 5.86200654 17.88669554 12.52945804 0.00049936 0.00241315 0.00162967
N 4.05617329 14.89514297 19.60796657 -0.00121902 0.00082684 -0.00856420
N 4.94759828 13.66044033 23.94316146 -0.00294632 -0.00964387 0.00082328
N 5.29610346 18.48899323 26.20733627 -0.00321959 0.00189185 0.00225757
N 7.25585847 10.26329407 21.65544873 0.00306279 -0.00036185 -0.00234665
N 5.62356834 13.24400382 19.67957295 -0.00045220 -0.00100584 0.00252726
N 3.85749484 15.63525866 24.23653602 0.00283832 0.00649439 0.00265083
N 7.28702574 10.73442643 25.92094096 -0.00635986 -0.00726524 0.00470118
N 6.02605538 17.69088262 21.14354810 -0.00058503 -0.00257611 0.00480817
N 3.69749248 24.62236237 0.92002568 0.00560769 -0.00052261 0.00157218
N 5.27273838 23.34120404 5.48608010 0.00195172 -0.00341196 0.00178950
N 5.67473123 28.24176798 8.26268679 0.00096427 -0.00034845 0.00475612
N 6.80250615 19.97905301 2.94921160 0.00603974 -0.00153010 -0.00291572
N 4.98980701 22.82330701 1.24240163 0.00324552 -0.00176764 0.00180598
N 3.81721442 25.05039867 5.90186073 0.00570245 -0.00438410 0.00140603
N 6.77905645 20.50993718 7.71263513 -0.00212683 -0.00082178 0.00094606
N 6.00148414 27.60416237 3.00089898 0.00219419 0.00426516 -0.00384837
N 3.90241813 25.00643741 9.84561388 -0.00712193 0.00351215 -0.00226233
N 5.18364331 23.37243474 14.41559746 -0.00548438 0.00044055 -0.00148246
N 6.08564261 28.12764463 17.18037737 0.00132292 0.00390025 0.00034298
N 6.79087743 19.94222734 12.69550939 -0.00035799 0.00362413 0.00455616
N 4.80309324 22.96096647 10.22345017 -0.00494729 0.00002638 -0.00127823
N 4.00317498 25.23438945 15.04211811 -0.00406480 -0.00683287 0.00279818
N 7.04411365 20.44123934 16.59952078 -0.00521286 -0.00050717 0.00145982
N 6.14240012 27.44012685 12.32013446 0.00108224 -0.00090565 -0.00597968
N 4.08277427 24.70203250 19.11567132 -0.00021853 0.00234108 -0.00311562
N 5.09960190 23.16547014 23.81783916 -0.00044659 -0.00425559 0.00213559
N 5.65744634 28.44887605 26.00697800 0.00263254 -0.00161190 -0.00132715
N 7.03108349 19.69207280 21.58329627 -0.00273436 -0.00102794 0.00453028
N 4.89743823 22.62500194 19.60829519 -0.00208784 0.00188491 -0.00152250
N 4.15409456 25.21761566 24.31876889 0.00463167 0.00336413 0.00046095
N 6.69322542 20.24060804 25.61368748 0.00520653 0.00370409 -0.00209948
N 5.98177361 27.78733731 21.30195504 -0.00009557 0.00317553 0.00222793
N 7.40581591 5.58530497 1.14617137 -0.00092012 0.00822892 0.00419778
N 9.02480339 4.15705730 5.67528535 0.00171553 -0.00098369 0.00406335
N 9.10683890 9.28065034 7.88603286 -0.00641978 -0.00160090 0.00290436
N 10.12758308 0.79343974 3.36804103 0.00498922 0.00304147 0.00677592
N 8.71973932 3.67014662 1.05896488 -0.00049508 -0.00300940 -0.00179485
N 7.79002326 6.08586836 5.96216224 -0.00066486 -0.00169970 -0.00405518
N 10.50559430 1.04148682 7.58645784 -0.00660079 -0.00808692 -0.00338416
N 9.61604308 8.43921111 2.93409469 -0.00390516 -0.00048049 0.00312063
N 7.95803175 5.64195397 10.16245407 0.00246987 0.00160015 -0.00172649
N 8.41658956 3.75728594 14.53019841 -0.00116419 0.00068684 -0.00297368
N 9.62298006 8.78461116 17.04846910 0.00454753 0.00595670 -0.00235578
N 10.65510814 0.69816346 12.28987409 0.00310880 -0.00178850 0.00213530
N 8.90241119 3.59738053 10.70888111 0.00141024 0.00054467 0.00161693
N 7.59093733 5.91615541 15.02526764 0.00322989 -0.00328847 0.00112495
N 10.72162344 1.13230733 16.28989709 0.00216825 0.00244063 0.00091492
N 9.53055438 8.50839916 12.08384230 0.00268588 0.00140791 -0.00141613
N 7.62468232 5.21175483 19.49535852 -0.00439271 0.00118838 -0.00219163
N 9.32535902 4.43187388 24.07829646 -0.00360124 -0.00393322 -0.00053585
N 9.71048237 8.69594436 26.18369809 -0.00445577 0.00402802 0.00358918
N 11.07090426 0.85885636 21.29541752 0.00250549 -0.00165812 -0.00113756
N 9.11036092 3.44967564 19.73349710 0.00087597 0.00009138 -0.00018236
N 8.04081128 6.24040622 24.33972044 0.00121335 -0.00014519 -0.00336023
N 10.60729108 1.45739261 25.61932004 -0.00173285 -0.00302976 -0.00359386
N 10.03936556 8.37536499 21.52591208 -0.00479205 0.00012622 -0.00017363
N 7.62013532 15.00370609 1.24112243 0.00058626 0.00307194 0.00293908
N 8.78804206 14.10860111 5.84414155 -0.00512828 0.00146427 -0.00400069
N 9.06300634 18.58764441 8.13058444 -0.00103286 0.00337188 -0.00172015
N 10.60201363 10.46716394 3.31224845 -0.00519124 0.00538583 -0.00102087
N 8.56112392 12.96985007 1.68411371 0.00043020 0.00254649 -0.00085964
N 7.49323098 15.91336635 6.37177393 -0.00414007 -0.00614013 -0.00538979
N 10.48237086 11.24363713 7.45635354 0.00210553 -0.00725503 0.00766163
N 9.71353336 17.45894725 3.33814563 0.00519392 0.00123582 -0.00455898
N 7.59309411 15.18095644 10.47161671 0.00387261 0.00088476 0.00104270
N 9.28490351 13.61423536 14.97281341 -0.00060045 0.00005403 0.00356207
N 9.73818679 18.30296897 16.81296719 -0.00065568 -0.00351648 -0.00336749
N 11.05933164 10.25621381 12.35716799 -0.00309479 0.00050726 0.00468609
N 8.53297878 13.08613968 10.67896094 0.00287473 0.00026446 0.00624792
N 8.10419697 15.58626478 15.17508468 -0.00147109 -0.00557515 -0.00182196
N 10.60583613 10.73034339 16.77202032 0.00552795 0.00591317 0.00090849
N 9.75846709 18.06097764 12.52702665 -0.00364198 0.00249393 -0.00042817
N 7.78892671 15.12472121 19.60337381 -0.00153570 -0.00323270 0.00177703
N 9.02948030 13.72743076 24.23229836 -0.00180195 0.00444515 -0.00380468
N 9.20726339 18.40352438 26.15228711 -0.00099865 0.00197007 -0.00433988
N 10.83019910 10.40141481 21.75772131 0.00017509 0.00679875 0.00251740
N 8.99555533 13.30569922 19.91772984 -0.00418604 0.00273549 -0.00371618
N 7.74481864 15.63572499 24.16078990 -0.00426811 -0.00061299 0.00025467
N 10.93691919 10.62419119 25.79060853 0.00212375 -0.00266477 -0.00667038
N 9.52847171 17.86338675 21.19000556 0.00496378 -0.00147811 0.00349766
N 7.58559187 24.78592075 0.93621869 0.00376239 -0.00273437 0.00817612
N 8.75905616 23.40482788 5.67184262 -0.00620846 0.00402555 0.00648323
N 9.27845460 27.92596301 7.93932218 -0.00144395 -0.00025913 0.00017586
N 10.65050079 19.52064710 3.28164435 -0.00692235 -0.00050160 -0.00172466
N 8.65644962 22.78413478 1.40876451 0.00169673 -0.00459729 0.00647587
N 7.52734462 25.30684521 5.76623556 0.00183146 0.00140761 0.00256421
N 10.41057752 20.51211870 7.76956969 0.00332870 -0.00278262 0.00314492
N 9.55018641 27.31271110 2.97216388 0.00590612 0.00068245 0.00393748
N 7.50866134 24.41376116 10.20469758 0.00132087 -0.00004719 -0.00195621
N 8.82835063 23.16201632 14.96566946 0.00641470 0.00045824 -0.00013902
N 9.43281649 28.16140765 16.92584271 0.00522236 -0.00552664 -0.00187943
N 10.65725679 20.13264164 13.03454619 -0.00338211 0.00480703 0.00272919
N 8.79377595 22.44407363 10.72356210 -0.00375958 -0.00025924 0.00308257
N 7.54920360 25.09222148 15.13308986 -0.00843275 0.00034739 -0.00594725
N 10.94869038 20.37616735 16.73441019 0.00408303 -0.00819018 -0.00213488
N 9.32805188 27.54543782 12.26446254 -0.00091194 -0.00063549 -0.00264961
N 7.79733972 24.81521468 19.65852702 -0.00042645 0.00410865 -0.00569743
N 9.09174787 23.08539470 23.90659687 -0.00250302 0.00287834 -0.00096566
N 9.56681200 28.25190700 25.79311484 0.00053578 -0.00203496 0.00241264
N 10.56288840 19.85917753 21.49185609 0.00195952 -0.00246631 0.00181500
N 8.88420119 22.79029122 19.66088677 -0.00046725 -0.00547602 -0.00225221
N 7.75708757 24.96018434 24.31861810 -0.00520655 -0.00093093 0.00106748
N 10.74649835 20.07063666 25.72601735 -0.00427444 -0.00183661 0.00229132
N 9.70322214 27.77819142 21.10684512 -0.01001158 -0.00302541 0.00220432
N 11.45543381 5.46575338 1.24188415 0.00091104 0.00423284 -0.00016967
N 12.37942561 3.99311213 5.88384860 0.00309389 0.00238115 0.00384053
N 13.11143157 9.14899917 8.09760588 0.00465454 0.00190521 0.00151290
N 14.47090230 0.70980719 3.25013917 -0.00062781 -0.00280637 -0.00033094
N 12.44539404 3.39570869 1.64002976 0.00156117 0.00130596 0.00037848
N 11.56790107 6.11364008 6.07291506 -0.00451285 -0.00457107 0.00731782
N 14.42023337 1.15879039 7.69954671 -0.00166725 -0.00287507 0.00344079
N 13.11057834 8.26620265 3.02946583 -0.00021456 0.00432776 -0.00088998
N 11.41947704 5.27227659 10.68279938 0.00572432 -0.00423754 -0.00004227
N 12.86259920 4.08971721 14.71600549 0.00433601 -0.00216514 0.00012548
N 13.61007831 8.62833597 17.27863973 -0.00177302 -0.00261260 0.00616018
N 14.43317012 0.53589862 12.44868073 0.00653743 -0.00115313 0.00059696
N 12.41853821 3.25779989 10.77014310 -0.00429962 -0.00335382 0.00398353
N 11.60281932 6.02861913 14.73127391 0.00136845 -0.00401285 -0.00395093
N 14.78085846 1.21994080 16.74200757 -0.00366388 0.00104614 0.00225388
N 13.24717681 8.55798745 12.09395468 -0.00284119 0.00363950 -0.00675922
N 11.57978320 5.80392684 19.14728717 -0.00108686 -0.00203390 -0.00007002
N 12.87494648 4.00853579 23.72621538 -0.00014168 -0.00017061 0.00545708
N 13.26899150 8.73528578 26.21369405 0.00282549 -0.00286552 0.00049591
N 14.79427513 0.63504659 21.70985371 0.00452814 -0.00582071 -0.00374971
N 12.76761793 3.85343051 19.64057649 0.00434233 -0.00365475 -0.00090366
N 11.54708421 5.91853114 24.02950926 0.00290293 0.00136189 -0.00235521
N 14.01228581 1.10566401 26.16356914 -0.00015775 -0.00053619 -0.00212698
N 13.68085519 8.60221747 21.28612501 -0.00093480 -0.00073655 0.00553964
N 10.79541203 15.05984748 1.04652682 -0.00522975 -0.00566556 -0.00355170
N 12.56876807 14.05721244 5.78897217 -0.00366584 -0.00456843 -0.00069137
N 13.02488192 18.80463686 8.05796084 0.00487557 -0.00120002 0.00174405
N 14.21832037 10.21356562 3.42773895 0.00020859 -0.00042465 -0.00328029
N 12.36574592 13.45175835 1.03448583 -0.00800941 -0.00117506 0.00226805
N 11.28855088 15.84663936 5.82312696 -0.00625071 -0.00059370 -0.00763718
N 14.02149359 11.23079558 7.66818212 -0.00282096 -0.00122249 -0.00201747
N 13.56924257 17.88691529 3.24759371 0.00439338 -0.00504917 0.00078298
N 11.53271984 15.60189353 10.46025221 -0.00501274 0.00407636 0.00170964
N 12.83353025 13.62608213 14.96817313 -0.00149108 -0.00800991 -0.00435122
N 13.23728070 18.48671607 17.14460533 0.00421960 0.00338723 0.00727819
N 14.56345218 10.53226932 12.23910949 -0.00389699 -0.00148745 0.00162322
N 12.40351121 13.45528140 10.49474686 0.00420869 -0.00019568 -0.00326258
N 11.70800045 15.58059601 15.19112470 -0.00097325 0.00639299 -0.00120430
N 14.70425475 10.68688932 16.90125229 -0.00471012 0.00373959 0.00052804
N 13.53362425 18.45695202 12.19548138 -0.00311467 0.00283870 0.00179337
N 11.53335914 15.09146217 19.24808128 0.00296760 0.00015888 -0.00295186
N 12.73881410 13.67297858 23.97254247 0.00484865 0.00203437 -0.00095339
N 13.11787848 18.29999191 26.35290983 0.00790564 0.00095882 -0.00208623
N 14.82312417 10.37620688 22.25215389 0.00713062 -0.00964705 -0.00032565
N 12.70600563 13.19480954 19.67491296 0.00208257 0.00367980 0.00248109
N 11.50919200 15.63457270 24.28817324 0.00191704 0.00650669 -0.00729675
N 14.40382233 10.71022563 25.85896700 0.00658184 -0.00049968 -0.00734600
N 13.34651340 17.99308777 21.40321626 -0.00689350 -0.00267029 0.00252575
N 11.10424299 24.60242885 1.28111236 0.00364946 -0.00552727 0.00296384
N 12.63570016 23.18419380 5.39275706 -0.00025288 0.00236411 -0.00256421
N 13.15865890 27.93509135 7.76938717 0.00616327 -0.00829275 0.00753668
N 14.66741358 19.91925347 3.47101150 0.00446272 0.00189457 0.00451495
N 12.26527116 22.65680555 1.41514606 -0.00136163 -0.00240192 0.00311825
N 11.37148933 24.92901925 6.22366097 0.00565028 -0.00444076 -0.00167801
N 13.96134809 20.88141093 7.71356168 -0.00589068 -0.00604668 0.00343502
N 13.19668403 27.46523231 3.37174519 -0.00535738 0.00452872 -0.00383759
N 11.30939344 24.92003996 10.16284849 0.00076897 0.00381279 -0.00531988
N 12.53958715 23.49915310 15.33751933 0.00445812 0.00075804 -0.00614546
N 13.57592702 28.10513062 17.07968932 -0.00170258 0.00030822 -0.01001665
N 14.79132775 20.29846914 12.80926081 0.00359112 0.00345481 -0.00655318
N 12.56878962 23.06108348 10.76522967 -0.00079760 0.00042935 -0.00411178
N 11.17292597 25.36545095 15.42040373 0.00514837 0.00206665 0.00100710
N 14.41382615 20.51668286 16.82532887 -0.00332956 0.00658304 0.00029091
N 13.01550990 27.53263430 12.55275159 0.00396953 -0.00188377 -0.00438370
N 11.35452159 24.47904635 19.55158426 -0.00517683 0.00722880 0.00741458
N 12.72591041 22.98393149 24.28821491 -0.00019924 -0.00375921 -0.00223461
N 12.76768016 27.90891594 26.28835185 0.00204442 -0.00450429 0.00396270
N 14.57085765 19.94100748 21.66855538 0.00111438 0.00481274 0.00143815
N 12.56135786 22.52425731 19.56325766 -0.00331922 0.00310021 0.00389782
N 11.42756138 24.78398211 23.96569889 -0.00274194 -0.00405298 -0.01224203
N 14.39727828 20.16749663 26.17900452 -0.00314260 0.00071216 0.00466892
N 13.60199186 27.74096201 21.00677235 -0.00502745 -0.00044256 -0.00544912
N 14.95602072 5.61730703 1.42947875 0.00186468 -0.00718829 -0.00552780
N 16.18394786 3.82334504 5.27760441 -0.00262241 0.00252244 0.00521613
N 16.43765186 8.58763614 8.09258102 0.00303581 -0.00183503 -0.00427100
N 17.55672338 0.60251071 3.56191684 0.00223503 0.00102408 0.00430458
N 16.25136194 3.75569915 1.46412208 -0.00065135 -0.00398252 -0.00079680
N 15.42217619 6.00985431 5.79588069 0.00477681 -0.00106879 -0.00849709
N 18.00733057 1.38975653 8.20188466 -0.00182026 -0.00219214 0.00301306
N 16.85273280 8.31609984 3.03368403 -0.01225422 0.00013634 0.00063228
N 14.49675490 5.78288522 9.53003873 -0.00124755 0.00164614 -0.00299954
N 16.53253098 4.12004386 14.48822409 -0.00305883 -0.00402281 -0.00105395
N 17.03926728 8.88677704 16.48212132 0.00408127 -0.00191777 -0.00477517
N 17.88932750 0.75164509 12.51974571 -0.00503828 -0.00378322 0.00491150
N 15.36709912 3.71125259 10.37714604 0.00718696 0.00208109 -0.00134791
N 15.35659097 6.17048349 14.67453529 0.00326163 0.00226201 -0.00174763
N 18.07904831 1.36141801 16.88617816 0.00567526 -0.00105893 -0.00629480
N 16.91439461 8.62299263 12.27109951 -0.00390414 0.00252803 0.00317054
N 15.15519289 5.71605737 19.34963897 0.00369515 0.00482203 0.00130258
N 16.47000513 3.77707334 24.02740797 -0.00133044 0.00420251 -0.00547913
N 17.07716440 8.85755923 26.12646985 0.00812183 -0.00216104 -0.00038789
N 18.18565957 0.55406798 21.85531340 -0.00473693 -0.00049645 0.00275311
N 16.25392115 3.68145945 19.82341867 -0.00105959 -0.00242196 0.00447603
N 15.36837080 5.81104921 24.40665440 0.00015645 -0.00660273 -0.00324157
N 17.59714424 1.25187400 26.21629489 0.00172767 -0.00245155 -0.00082659
N 17.00121482 8.26776150 21.55417366 0.00517528 -0.00390595 -0.00087340
N 15.03091401 14.65956147 1.32587751 -0.00028923 0.00595848 -0.00655645
N 16.54949355 13.84503879 5.80112152 -0.00018144 -0.00235471 -0.00443927
N 16.90876913 18.95692848 8.01157912 -0.00076160 0.00205235 0.00186457
N 18.22895789 10.09328480 3.38886058 -0.00442821 -0.00394466 0.00504659
N 16.40584323 12.83337285 1.45400113 0.00172813 0.00904815 -0.00261753
N 15.43099566 15.83711757 6.24478416 -0.00387550 0.00501425 -0.00046724
N 17.68814215 10.38245741 7.75795046 -0.00254116 0.00532874 0.00048194
N 17.17624490 18.08005815 3.16204201 0.00416220 0.00124735 0.00116868
N 15.25320897 15.31477049 10.26010808 -0.00978946 -0.00011218 0.00440172
N 16.37544665 13.63628260 14.87199595 -0.00732487 -0.00138264 0.00005929
N 16.65035590 18.66856663 17.89594500 -0.00480642 0.00002131 -0.00244119
N 18.33718384 10.43945266 12.22211026 0.00467294 -0.00671373 -0.00469407
N 16.22101691 13.24798514 10.28265676 -0.00336021 -0.00580770 -0.00501849
N 15.33345726 15.61619584 15.44067839 0.00243485 -0.00197612 -0.00789803
N 18.30497196 10.90988267 16.20251262 -0.00280382 0.00327636 0.00075068
N 17.19392854 17.82843983 12.44914621 0.00442592 0.00103649 0.00257025
N 15.63781711 15.25584825 19.74788276 -0.00274901 -0.00414980 0.00169212
N 16.18251536 13.46271642 24.24993397 0.00037366 0.00544369 -0.00036947
N 16.83023835 18.32539612 26.99426431 -0.00437850 -0.00355993 0.00272811
N 18.22915298 10.21430734 21.66590142 0.00559423 0.00175708 0.00143058
N 16.58595308 13.15650424 19.68269368 0.00604900 0.00821330 -0.00229387
N 15.12406217 15.49560895 24.59481612 0.00228949 0.00230914 0.00125101
N 18.11594562 10.82781874 25.64972823 0.00874936 0.00323402 -0.00514284
N 17.33988729 17.75527405 21.68562474 -0.00501558 -0.00542278 0.00197952
N 14.70155466 24.57783462 1.39693818 0.00091225 0.00143087 -0.00519697
N 16.48083974 23.55163459 5.84647567 -0.00039763 -0.00527495 0.00302637
N 16.85760684 28.17151401 7.82523758 0.00052006 0.00376502 -0.00008858
N 18.28118500 20.07247750 3.22938161 -0.00282950 0.00483679 0.00208557
N 16.23732683 22.86887951 1.35157618 0.00045994 -0.00285440 0.00401988
N 14.84888867 25.11859197 6.41588646 -0.00452923 0.00564693 0.00306600
N 17.68130794 21.10417355 7.70047433 0.00139694 -0.00074697 0.00155787
N 16.94088646 27.22018173 2.90406982 -0.00760980 -0.00519373 -0.00335179
N 14.71051199 24.92256464 10.51557439 -0.00004699 -0.00422857 0.00114760
N 16.49184199 23.38480799 14.79173954 -0.00171523 -0.00171576 -0.00300692
N 17.02583540 28.07694647 17.11095523 -0.00286799 0.00269742 0.00634411
N 18.09245737 19.96187706 12.60840188 0.00054576 0.00802134 -0.00146304
N 16.20874639 23.05834522 10.76001520 -0.00032920 0.00261651 -0.00091027
N 15.12385423 25.15273601 15.12194735 0.00633533 -0.00069615 0.00125440
N 18.07451663 20.19625356 17.02098068 -0.00472974 0.00705572 -0.00139057
N 16.80392416 27.52388414 11.97374616 0.00008221 -0.00151723 -0.00076372
N 14.97601880 24.59283229 19.36579540 -0.00174636 -0.00326723 0.00590103
N 16.37964945 23.12843553 23.97195405 0.00639380 -0.00332250 0.01082862
N 16.38504658 28.04893505 26.13413958 -0.00109984 0.00768337 -0.00068623
N 18.43421517 19.87241560 22.18992016 0.00189757 -0.00219592 0.00381955
N 16.52188342 22.79901617 19.74515097 0.00956472 0.00267664 -0.00696280
N 14.99849031 24.94688664 24.25063930 0.00239516 -0.00030465 -0.00292577
N 17.85563239 20.12451922 25.97274773 0.00272628 -0.00068520 -0.00452154
N 17.28620377 27.34169530 21.35648538 0.00190845 0.00167178 -0.00542185
N 18.55504568 5.33466499 0.86081485 0.00873179 -0.00247990 0.00491018
N 20.27313761 4.06347997 5.46979474 -0.00285936 0.00399917 0.00526856
N 20.41391057 9.00149435 7.58057331 -0.00006931 -0.00008234 0.00138787
N 21.75146882 0.47076532 3.45808181 0.01001025 0.00395278 -0.00456010
N 19.65709177 3.30350288 1.32175992 -0.00196997 0.01018498 -0.00577901
N 19.12231467 6.11232916 5.85686507 0.00262886 0.00367482 0.00005998
N 21.93836993 1.33281773 7.36525786 -0.00537935 -0.00458293 0.00107964
N 20.71176604 8.62528467 2.63396253 -0.00297504 0.00528675 0.00246428
N 18.63931666 5.67988525 10.35229983 -0.00317456 -0.00121304 0.00433333
N 19.52230846 3.76535170 14.39621872 -0.00040600 0.00200764 -0.00402893
N 20.55899011 8.94418931 16.66363761 -0.00032377 -0.00456686 -0.00328575
N 21.64804699 0.77931200 12.49274606 -0.00031549 -0.00824819 -0.00047787
N 19.72372314 3.67014824 10.48173148 0.00414538 0.00254304 0.00038601
N 18.89026780 5.89781392 14.94688606 -0.00040012 0.00040031 -0.00087557
N 22.02550239 1.48855842 16.87438291 -0.00181414 0.00000984 -0.00170413
N 20.86905407 8.37512216 11.96223707 -0.00182443 0.00036706 0.00024294
N 18.88623793 5.54255587 19.07727873 -0.00481637 -0.00107862 -0.00124575
N 19.70098792 3.70239972 23.69557091 0.00826898 -0.00135699 0.00021426
N 20.61296592 8.94300012 26.09308447 0.00267327 0.00426569 0.00089215
N 22.15878246 0.90842765 21.68672778 0.00126489 -0.00039663 0.00364711
N 19.66078501 3.46031448 19.74116613 -0.00512905 -0.00616320 0.00025648
N 18.96826324 5.90969135 24.16713888 0.00268341 0.00171850 -0.00523293
N 21.46183068 0.96924564 25.93813611 -0.00539613 -0.00500622 -0.00084394
N 20.68563848 8.53600119 21.09814079 0.00640679 -0.00217485 -0.00315886
N 18.41118158 15.04835237 0.90290921 -0.00069802 -0.00109115 0.00071253
N 19.99565170 13.98891722 5.59228022 -0.00051574 0.00779325 -0.00484891
N 20.76726741 18.62134467 7.99411186 -0.00403531 0.00318669 0.00132422
N 21.62222947 10.48446611 3.71865249 -0.00099582 -0.00096877 -0.00675607
N 19.80072096 13.18702537 1.37182140 -0.00175827 0.00521283 -0.00250825
N 18.71057249 15.90055475 6.00109056 0.00102790 0.00491914 -0.00081971
N 21.42239049 11.07229453 7.50524579 0.00445132 -0.00157845 0.00412383
N 20.37811170 17.96811366 2.72512360 -0.00367753 0.00002228 -0.00069347
N 18.77044858 14.85591254 10.25669458 -0.00325429 0.00395955 -0.00063492
N 20.42541407 14.03962857 14.98210478 -0.00063492 0.00662610 0.00444094
N 21.06440455 18.31989380 17.20522357 -0.00633242 0.00007193 0.00877560
N 22.15650207 10.21224686 12.31273896 0.00052649 0.00040714 0.00258704
N 20.13598922 13.01152057 10.45204348 0.00477753 0.00314225 0.00440059
N 18.84207404 15.63708706 15.17249990 0.00116337 0.00663559 -0.00143258
N 21.86122391 10.89904660 16.40625578 -0.00240039 -0.00799123 -0.00355605
N 20.55816108 17.89942194 12.40240396 0.00174466 -0.00452807 -0.00633555
N 19.34890879 15.36742993 19.27302630 0.00446420 -0.00449578 0.00943849
N 20.01561714 13.64010321 23.73893952 -0.00007975 0.00223733 -0.00084114
N 21.22358674 18.49142332 26.24415118 0.00061130 0.00922358 -0.00072814
N 0.00247400 10.25676203 21.50272867 -0.00627705 -0.00652723 -0.00018694
N 20.28668431 13.15942068 19.59989190 0.00728449 -0.00225822 0.00563288
N 18.70819777 15.43616528 24.20365526 -0.00235960 0.00553822 0.00247975
N 22.10875249 10.67099634 25.61952961 -0.00041663 0.00143945 -0.00424371
N 21.13993235 18.02527722 21.22818020 -0.00350539 -0.00222942 -0.00158505
N 18.28584904 24.56622582 1.16672154 -0.00253860 0.00546671 0.00414092
N 20.01884755 23.32080240 5.33082130 -0.00151224 0.00160389 -0.00204698
N 20.45452874 28.43050911 7.96760658 0.00051143 -0.00244581 -0.00163466
N 21.54402022 19.81578005 3.34061072 0.00719592 0.00177767 -0.00816602
N 19.87554530 22.85596088 1.15315221 -0.00522073 -0.00552404 -0.00724542
N 18.75551250 25.06026892 6.15353159 -0.00044981 -0.00559607 -0.00355072