1920
Time=82000.00000008 pbc="T T T" Lattice="25.56991751 0.00000000 0.00000000 0.00000000 25.70350777 0.00000000 0.00000000 0.00000000 32.80131239" energy=-12253.47581875 virial="-68.09236668 26.65617481 7.30429275 26.65617481 -35.83502781 -19.59058266 7.30429275 -19.59058266 -28.54579065" stress="-0.00099872 0.00123700 0.00039512 0.00123700 0.00043423 -0.00088559 0.00039512 -0.00088559 0.00078488" Properties=species:S:1:pos:R:3:vel:R:3
O 5.77796957 2.64523654 7.06935283 0.00221923 0.00112970 -0.00285067
O 2.49172371 3.61746522 15.18936568 0.00663862 0.00145291 0.00027240
O 1.61729704 10.11201659 1.33134064 -0.00466666 -0.00362994 -0.00377531
O 7.13981905 9.26830502 9.58287383 -0.00135478 -0.00168077 -0.00045974
O 2.52272907 10.39512934 9.11720324 -0.00656452 0.00405806 0.00573499
O 6.32339277 8.86473728 1.13023543 0.00337164 0.00408377 0.00419396
O 6.98255726 3.00229788 15.22918293 -0.00803956 0.00371938 0.00219501
O 1.53008715 4.10822955 6.77387042 0.00175483 -0.00738114 -0.00637393
O 6.45208099 1.41258983 17.37841190 0.00167951 -0.00196967 -0.00587774
O 2.40457582 5.37791846 9.04009835 -0.00117489 0.00564499 -0.00238672
O 1.73506884 11.91802205 7.30099671 -0.00291095 0.00025539 0.00418582
O 6.65628507 7.59400921 31.72508798 0.00319474 0.00060523 0.00414128
O 2.39868448 11.47476665 31.94115635 0.00239249 0.00298402 -0.00439145
O 6.69692503 7.80722271 7.49926282 -0.00591616 0.00291216 -0.00429915
O 6.63589099 1.33541265 9.10770077 -0.00586408 -0.00293748 0.00030484
O 2.17795476 5.20863725 17.21234972 0.00068262 0.00073037 0.00104276
O 5.74147121 2.53330607 23.50675330 0.00403148 0.00274195 -0.00176377
O 3.20479114 3.93954940 31.30854293 0.00114733 0.00129378 -0.00227574
O 1.26099598 10.29885249 17.39840697 0.00202421 0.00870851 0.00644841
O 6.74855321 9.20253958 25.56524978 0.00085599 -0.00898996 -0.00284439
O 2.97023391 10.32724564 25.64353776 0.00269684 -0.00050929 -0.00059362
O 5.88742933 9.29133791 17.56355779 0.00140470 0.00154420 -0.00287512
O 7.49764088 2.37302041 31.36859568 0.00161283 0.00432249 -0.00622694
O 2.03735740 3.53399639 23.29864204 -0.00243322 -0.00440069 -0.00172236
O 6.74121595 1.25651764 0.81094632 0.00752731 -0.00237234 -0.00317686
O 2.29204511 5.06439703 25.25921392 -0.00257363 -0.00061139 -0.00277464
O 2.19637654 11.65558961 23.60020727 -0.00126080 0.00256672 -0.00525324
O 6.30362760 7.70383511 15.58253215 -0.00464897 -0.00467082 0.00408685
O 2.11890530 11.71344609 15.38475479 0.00207831 -0.00222442 0.00375333
O 6.47934848 7.56362402 23.67786705 0.00887604 -0.00213711 0.00220463
O 5.89356106 0.92984485 25.53720431 0.00000138 0.00033882 0.00360813
O 2.85285127 5.26601479 0.72198150 0.00047712 0.00070133 0.00604637
O 5.61433316 15.41706849 7.10625450 0.00136340 -0.00266128 0.00208803
O 2.58201310 16.64745767 15.24464020 -0.00009037 0.00001041 -0.00296787
O 1.87062980 22.82610211 1.17092488 0.00495002 0.00295069 -0.00139509
O 7.09458637 21.98223887 9.36974611 -0.00066099 -0.00598671 0.00113485
O 2.90611504 23.27444112 9.66323535 -0.00171237 0.00268230 0.00467934
O 5.44050941 22.08121433 1.36178673 0.00126823 -0.00523903 -0.00000824
O 6.53162826 15.89443342 15.29108955 0.00531733 -0.00238979 -0.00573884
O 1.59619604 16.76741759 7.14611671 0.00275884 -0.00019944 -0.00053316
O 6.75131741 14.21006149 17.13309323 0.00297496 -0.00414086 -0.00536629
O 2.28952942 18.31470745 9.26990311 0.00385368 -0.00442387 -0.00418458
O 2.37572727 24.34896085 7.30822244 0.00061659 -0.00246174 0.00146430
O 6.01080193 20.44628093 32.10088104 0.00015278 0.00324418 -0.00545255
O 2.24971431 24.68983707 32.21509828 -0.00568746 -0.00320422 0.00350241
O 6.12154990 20.54669618 7.39874054 0.00752747 -0.00229249 0.00511675
O 6.35522346 14.10910187 9.14248047 0.00156196 0.00375105 0.00365397
O 2.45686810 18.07279356 17.24668912 -0.00247901 -0.00175438 0.00697507
O 5.99886888 15.51205910 23.37496902 -0.00035054 0.01027542 0.00206336
O 2.24037946 16.47849329 31.64871075 0.00302802 -0.00483044 0.00125878
O 1.44921593 23.03393846 17.59868161 0.00183355 0.00899825 0.00161664
O 6.76633126 21.75307030 25.83270874 -0.00243485 0.00246836 0.00075338
O 2.09030666 22.78499707 25.99280854 -0.00379956 0.00017384 0.00582795
O 5.88236519 22.20943989 17.82039774 -0.00343314 -0.00036075 0.00521916
O 6.85365600 15.36589020 31.40009267 0.00803229 -0.00198333 -0.00019430
O 1.14771733 16.68977922 23.22516839 -0.00140744 0.00240205 0.00040426
O 6.64880973 14.28044093 0.92434126 0.00144156 -0.00128062 0.00077907
O 2.02692020 17.89070484 25.47516699 -0.00186361 0.00490659 -0.00609226
O 2.22545866 24.00787929 23.81391773 -0.00403196 -0.00283602 -0.00093058
O 5.96317557 21.01069690 15.41730817 -0.00366773 -0.00405336 -0.00063083
O 2.04655280 24.78677039 15.72417887 0.00297283 0.00621680 0.00275541
O 6.36381055 20.12738303 23.95831415 -0.00156072 0.00345966 -0.00125895
O 6.62307508 14.00568289 25.36738085 -0.00352532 -0.00100434 -0.00266794
O 1.79729352 17.93081953 0.90003374 0.00041004 -0.00061641 -0.00559872
O 14.83534619 3.22595872 6.61394386 -0.00266186 -0.00302242 -0.00654864
O 11.37829101 3.87730926 15.33071954 -0.00355548 0.00689410 0.00570546
O 9.69353558 10.32211749 1.43464089 0.00489431 -0.00321033 -0.00155011
O 15.66822380 9.40152264 9.77496252 0.00506124 -0.00387432 -0.00365660
O 11.09446104 10.04345340 9.44594624 0.00900120 -0.00067567 0.00551037
O 14.33348148 8.95666461 1.34641839 -0.00008249 0.00713031 -0.00136839
O 15.13917968 2.55843910 15.15039617 0.00430435 0.00618660 -0.00005175
O 9.97733514 3.90065679 7.11236397 -0.00261341 -0.00348825 0.00092010
O 14.34334744 0.92381476 16.90154887 -0.00007427 -0.00105571 0.00007142
O 10.77822652 5.21767526 9.21311148 0.00314924 -0.00142731 -0.00538075
O 10.33247089 11.80021052 7.44379826 -0.00083250 -0.00650886 0.00530742
O 15.07987099 7.37562175 32.20280266 -0.00158087 -0.00021980 -0.00340540
O 10.59673507 11.34245910 31.98462414 0.00213863 -0.00584961 -0.00641335
O 15.13599110 8.02935771 7.68957615 -0.00409657 -0.00337247 0.00326621
O 14.97214858 1.55670349 8.70169648 0.00346422 0.00234183 -0.00070397
O 10.44613526 5.01307022 17.47099766 0.00280206 0.00260630 -0.00633401
O 14.31999596 2.80116088 23.00575117 -0.00213776 -0.00505527 0.00095739
O 11.34594688 3.53559401 31.89139489 0.00294787 0.00423685 -0.00160583
O 9.89223147 10.19271800 17.68316697 0.00189293 0.00288279 0.00102387
O 15.77829954 8.40390958 26.01279056 0.00457900 -0.00371647 -0.00081535
O 11.11901921 9.74398638 25.87036691 0.00176855 0.00730574 -0.00259939
O 14.45978070 9.44672313 17.97820372 0.00589726 0.00008979 0.00202122
O 15.39809333 2.44580979 31.22819640 0.00715341 -0.00200159 -0.00056254
O 10.06498958 3.27908417 23.53407493 -0.00600626 -0.00193667 0.00644869
O 14.81184383 0.93685750 0.64489165 0.00060537 0.00077177 0.00034479
O 10.51262226 4.90465254 25.49678749 -0.00814198 -0.00388720 -0.00110914
O 10.93794072 11.38983861 23.77908245 0.00384651 -0.00183481 -0.00952460
O 14.73495199 7.82192394 15.84800684 -0.00747547 -0.00409574 0.00138863
O 10.32296497 11.71975157 15.70962222 0.00655872 -0.00101630 -0.00282692
O 14.72498799 7.52859162 23.99891614 0.00170151 -0.00313256 -0.00567434
O 14.63782217 0.90278137 24.90927387 0.00011691 -0.00047964 -0.00155954
O 10.63381953 5.05493995 1.12863018 0.00102760 -0.00416523 -0.00081628
O 14.07219975 15.58415082 6.82301698 -0.00584135 -0.00194909 -0.00041527
O 10.85712737 16.62220741 14.91469095 0.00123096 0.00467660 0.00506943
O 10.28786841 22.66034768 1.07272495 0.00819258 -0.00342154 0.00513557
O 16.23706734 21.90230969 9.51148665 0.00258950 -0.00543614 0.00340151
O 11.80816075 23.44825826 9.40629996 0.00281661 -0.00144017 0.00299918
O 14.08757700 21.63713180 1.13326388 -0.00238212 0.00302882 0.00346703
O 15.31482979 15.53026604 15.09995682 0.00246894 -0.00933087 -0.00345672
O 9.94414587 17.16933512 7.11711117 -0.00020126 -0.00077834 0.00322501
O 15.15315600 14.35029178 17.34042311 -0.00307948 -0.00281122 0.00260216
O 10.80275965 18.73111610 8.88616745 -0.00246105 -0.00868090 0.00010960
O 11.48135052 24.78541891 7.09206878 -0.00650931 0.00260326 -0.00057796
O 14.90566642 20.44113099 31.86763099 -0.00685811 -0.00029310 -0.00520300
O 10.35022203 24.01069087 31.64009264 0.00003212 0.00450934 0.00282990
O 15.35045528 20.82112995 7.28488880 -0.00025888 0.00106018 0.00527134
O 14.92553685 14.12361655 8.91460674 -0.00013892 -0.00233946 0.00032669
O 10.71450164 18.20886718 17.03441432 -0.00377482 -0.00033750 0.00192111
O 14.38212904 15.54807229 23.62027020 -0.00484483 0.00217453 -0.00989356
O 11.44125197 16.00367429 31.47735934 0.00041761 -0.00023570 -0.00671926
O 9.91096086 23.10915484 17.60163614 0.00477182 0.00708356 0.00276667
O 15.77036633 21.74900425 25.75034095 0.00663078 0.00047179 -0.00143376
O 11.45894370 22.68067812 25.63379366 -0.01017222 0.00355699 -0.00343060
O 14.25316990 22.31317919 17.56516009 -0.00422056 0.00104816 0.00818860
O 15.39831148 15.21671164 31.70074518 -0.00185655 0.00164136 0.00443591
O 10.34363349 16.31101474 23.29297096 0.00299354 -0.00017785 0.00134640
O 14.79772483 13.80375972 1.07425256 0.00164487 -0.00083168 -0.00137439
O 10.55568180 17.76449515 25.39086450 -0.00047764 -0.00121013 0.00252463
O 10.75607817 24.20875822 23.70885327 -0.00105875 -0.00630137 -0.00115704
O 14.80296184 20.76092183 15.47714663 0.00051518 0.00685335 0.00576091
O 9.87965375 24.35149901 15.48051412 0.00081377 -0.00189867 0.00154254
O 15.29112477 20.33448106 23.72006771 -0.00845845 0.00338715 -0.00168886
O 15.44433870 13.91668149 25.48390767 -0.00385989 -0.00191436 -0.00756801
O 11.45160152 17.54453655 0.72903684 0.00443233 -0.00074389 0.00177677
O 22.93380259 3.26982332 7.01203492 -0.00754871 -0.00739514 0.00441131
O 19.50068730 3.86346337 15.04783557 -0.00109098 0.00187571 0.00544593
O 19.08170355 9.93333403 1.38165470 0.00434296 0.00075953 0.00506436
O 23.83128090 9.45926769 9.41321085 -0.00264463 0.00040728 -0.00188539
O 19.93469389 10.52720562 9.81892235 -0.00790498 0.00173134 0.00628148
O 23.28890263 9.03524877 1.24801628 0.00521465 0.00025759 0.00173412
O 23.62530971 2.93822477 15.30154552 0.00068206 -0.00218136 0.00160173
O 18.82066886 4.06681838 6.88243966 0.00135824 0.00480521 -0.00095646
O 23.25611905 1.29714855 17.63374051 -0.00705274 -0.00029509 0.00327076
O 19.37679848 5.53796335 8.80643527 -0.00266049 0.00066509 0.00103326
O 19.56641119 11.66527834 7.51439315 0.00772033 -0.00369409 0.00337670
O 22.79826769 7.74380264 31.87652855 -0.00151633 -0.00149316 0.00067115
O 19.02141781 11.51694388 32.09983754 0.00159627 -0.00078014 0.00060460
O 23.56784860 7.66405051 7.61926973 -0.00272717 0.00135465 0.00139042
O 23.23569505 1.66907748 8.89164008 -0.00452756 0.00158919 0.00274357
O 18.73470645 5.41529915 16.97463968 -0.00800143 -0.00476548 -0.00423617
O 22.81013266 2.72329588 23.68046162 0.00300053 -0.00660885 0.00967787
O 19.90381149 3.39260618 31.40040746 -0.00203263 0.00433364 -0.00335917
O 18.61613273 10.32894600 17.94936268 0.00324737 -0.00132312 0.00306988
O 24.18527964 8.69460559 25.84044370 -0.00614541 -0.00048420 0.00048585
O 19.41363357 9.52036230 26.11111986 -0.00084340 -0.00444994 0.00471647
O 22.85486017 8.94743475 17.48600256 -0.00127585 -0.00199127 -0.00272598
O 23.70799897 2.73663850 31.84777041 0.00397755 -0.00039730 0.00013233
O 17.99835232 3.56240580 22.94747542 -0.00040163 0.00093236 -0.00293428
O 23.09029511 1.31004338 0.97863240 0.00209560 0.00185983 -0.00138727
O 18.63666801 4.63300180 25.27101746 -0.00080078 0.00736697 0.00167743
O 19.74445558 11.15683629 24.23809689 -0.00072654 -0.00759903 -0.00281275
O 23.74763788 7.65118510 15.43575512 -0.00129159 0.00139689 0.00551816
O 19.18646184 11.81786402 16.07124063 0.00307685 -0.00363530 -0.00178205
O 23.45635894 7.63003193 23.60353614 0.00744861 0.00184449 -0.00162318
O 23.66692850 1.10664385 25.57658535 0.00252252 -0.00321316 0.00227875
O 19.25779826 5.13707023 0.51926934 0.00479644 -0.00004684 0.00163215
O 23.24232936 15.94247736 6.68591232 -0.00361803 0.00074335 -0.00665492
O 19.49005437 16.57279312 15.07533439 0.00394069 0.00106994 0.00105611
O 18.88882676 22.81591539 1.22523876 -0.00720664 0.00084703 -0.00625095
O 24.02496694 22.38541571 9.94740678 -0.00137044 -0.00497891 0.00293068
O 19.93100491 23.48469291 9.52062756 -0.00193746 0.00011610 -0.00775387
O 22.72688968 21.76731648 1.51459237 0.00252300 0.00123839 -0.00529868
O 23.81410812 15.64972615 15.12439690 0.00323699 -0.00301777 -0.00584726
O 19.08588785 16.77322314 6.84214839 -0.00414265 0.00516163 -0.00133750
O 23.14960354 14.31839313 17.19114345 0.00015466 0.00066232 0.00353675
O 19.63372989 18.26701918 8.78468431 -0.00156052 0.00157651 -0.00086096
O 19.67154288 24.70259452 7.34990021 -0.00004293 -0.00348728 0.00129682
O 23.26350109 20.12642508 32.40016245 -0.00269877 0.00082844 0.00871179
O 19.23412258 24.19798519 31.76919828 -0.00301174 -0.00637324 0.00217389
O 23.93925162 20.86878112 7.75862324 0.00395096 0.00347849 0.00125889
O 22.89874766 14.65615302 8.90725440 0.00258301 -0.00122895 -0.00255525
O 18.91566085 17.97245884 17.10269484 -0.00067870 -0.00123155 0.00488496
O 23.46038776 15.61001281 23.47321059 -0.00021472 0.00083630 -0.00075682
O 19.61729596 16.40553581 31.22723098 -0.00311972 -0.00225086 -0.00285585
O 18.58791006 23.18838871 17.53788441 -0.00511622 -0.00041523 -0.00398323
O 23.53334729 22.05257327 26.26989142 -0.00365080 0.00053003 -0.00456366
O 19.90404893 22.92682567 25.61356611 0.00421391 -0.00528594 -0.00318083
O 22.45914888 21.82061920 17.96447480 0.00237663 -0.00139889 0.00034139
O 24.18799525 15.14524120 31.48716902 0.00202980 0.00249042 0.00044081
O 19.09475032 15.91903449 23.14001759 -0.00410549 0.00071001 -0.01154262
O 23.55022100 13.82399754 0.66263813 0.00066165 0.00283928 -0.00350256
O 19.33569478 17.91552067 25.10167085 0.00184983 0.00488203 0.00016723
O 19.12817565 24.54817020 23.74080572 -0.00520875 0.00356860 0.00688741
O 23.19805855 20.57506939 15.93128018 -0.00470353 -0.00228817 -0.00307435
O 18.79621733 24.79949389 15.61117053 -0.00181960 -0.00132498 0.00175140
O 23.51588630 20.47392358 24.09689466 0.00308036 0.00560278 -0.00185190
O 23.63523003 13.88752081 25.30517835 -0.00272971 0.00110311 0.00281561
O 19.57152819 17.91854212 0.49613140 -0.00081324 0.00217580 0.00617451
N 7.49333223 12.95865066 2.53502514 -0.00586001 0.01079288 -0.00955834
N 1.16793002 6.51851515 10.64832882 0.00872287 -0.00323803 0.00568100
N 3.19081113 25.65442933 5.64369005 -0.00134018 0.00289655 0.00513593
N 5.07510578 6.57772120 14.01011446 -0.00118832 0.00153704 -0.00410078
N 0.67555027 25.67656602 14.10554449 -0.00139442 0.00371302 0.00213970
N 7.58465545 6.47611264 5.88754276 0.00243841 0.00355294 -0.00052967
N 5.22262873 12.99594153 10.78027115 0.00038986 -0.00332416 0.01133200
N 3.44609185 6.71714469 2.37301976 -0.00186129 0.00316215 0.00668810
N 7.50438348 12.77605981 18.81347995 0.00449363 0.00372575 -0.00146860
N 1.05882744 6.30284767 26.74560009 -0.00436312 0.00656731 0.00115452
N 2.95369289 25.51713177 22.26821953 0.00199950 -0.00875582 0.00312762
N 5.41534482 6.47495633 30.20560345 -0.00332719 0.00284280 0.00326521
N 0.80980786 25.54884944 30.51348786 -0.00336715 0.00396093 -0.00154047
N 7.67881146 6.53130127 21.96063663 0.00108886 0.00252413 0.00463056
N 5.23090409 12.90829450 26.75460620 0.00363747 0.00080926 -0.00214334
N 3.30700400 6.36380003 18.80873975 -0.00167898 0.00645244 0.00228995
N 7.69824761 0.11102281 2.54139544 -0.00150087 0.00140499 0.00428053
N 0.73059835 19.20218881 10.67911480 0.00124047 -0.00083921 0.00588637
N 3.22662701 12.75837196 5.82004766 0.00260174 -0.00063632 0.00379239
N 5.09592891 19.59744430 13.83745313 0.00284695 -0.00425065 -0.00060522
N 1.05260393 12.92491132 13.83903784 0.00191368 0.00102150 -0.00899295
N 7.40481946 19.51492358 5.78031507 -0.00134243 0.00241882 -0.00063062
N 5.16626678 0.38384167 10.63707729 -0.00242580 0.00311640 0.00088682
N 3.01293085 19.08976769 2.38835119 -0.00455383 -0.00535507 0.00331478
N 7.45303687 0.01873282 18.90749501 0.00036190 -0.00522577 -0.00053654
N 1.01562071 19.16808443 26.99922704 0.00774081 0.00285057 -0.00217926
N 3.35219644 12.78229207 21.98512273 0.00228278 0.00666966 0.00870849
N 5.15339425 19.09806549 30.45944497 -0.00032315 0.00602111 0.00531311
N 1.12394899 12.55596538 30.38521400 0.00656739 -0.00428970 -0.00801071
N 7.50362616 19.20970399 22.21639649 0.00379831 -0.00482290 0.00179244
N 5.02141614 25.47342969 27.19069307 0.00038603 0.00446085 -0.00871431
N 3.00943053 19.49082421 18.97705539 -0.00502005 -0.00187194 0.00362919
N 16.32670450 13.14879021 2.50451725 -0.00864921 0.00068214 -0.00347263
N 9.39261779 6.30394188 10.75102271 -0.00558730 -0.00016529 -0.00550570
N 12.09699884 0.19468687 5.20011626 -0.00243914 -0.00032058 0.00278430
N 13.69398358 6.70127864 14.21298117 0.00396595 0.00187873 -0.00059736
N 9.46004049 0.12655917 13.81200445 -0.00200807 0.00644215 -0.00470485
N 16.07787877 6.59768368 6.14584522 0.00256524 0.00015379 0.00148803
N 13.86360546 12.92063474 10.52849915 -0.00000799 0.00023309 -0.00262844
N 12.12947543 5.97959962 2.57997316 -0.00300935 0.00229122 -0.00239849
N 15.87844295 12.88796755 18.97706807 0.00514523 0.00174365 -0.00399744
N 9.19658722 5.76476213 27.20514404 0.00224752 -0.00280778 -0.00726291
N 11.83559091 25.53936152 22.16413040 -0.00037255 0.00276476 0.00540717
N 13.67415244 6.38778009 30.72066009 0.00161314 -0.00740342 -0.00096591
N 9.12157221 25.18944676 30.18099822 -0.00109127 -0.00685863 0.00127843
N 15.90261798 6.40378586 22.30186921 0.00182613 0.00016103 0.00181229
N 14.17387496 12.64575501 26.97425188 0.00160067 0.00014470 -0.00215662
N 11.77741636 6.03508841 19.07027634 0.00427236 0.00434570 0.00228775
N 16.02591780 25.59972340 2.31201231 -0.00497150 -0.00102027 -0.00084118
N 9.63853801 19.82305776 10.55927198 -0.00401015 0.00058270 0.00091641
N 11.88097567 12.67984550 5.88035226 0.00046125 0.00244732 0.00576860
N 13.62923923 19.69424714 13.84207638 -0.00049784 -0.00764981 0.00467686
N 9.21525835 12.72020174 13.98794092 -0.00674689 -0.00075194 0.00254629
N 16.22960448 19.50126950 5.64538085 -0.00168624 0.00244059 -0.00338648
N 13.98037307 0.20776030 10.29090953 0.00697191 -0.00301547 -0.01190891
N 11.69345376 19.18507584 2.31990332 0.00123066 0.00393406 0.00638700
N 15.94958421 0.14869184 18.38213049 0.00068246 0.00017356 0.00703977
N 9.42022012 18.72961186 27.12034465 0.00321318 -0.00269595 -0.00308889
N 11.95505859 12.64165956 22.19584463 -0.00344333 0.00124364 -0.00302338
N 13.83824997 19.25031668 30.20600989 0.00399210 0.00036062 0.00018289
N 9.62926285 12.61582134 30.32859293 0.00441838 -0.00003051 -0.00484736
N 16.23176204 19.41585255 21.88553796 0.00676691 -0.00212378 0.00211184
N 13.76011893 25.44114170 26.66463238 -0.00279052 0.00258136 -0.00422120
N 11.86775383 19.22246551 18.76921491 -0.00357064 0.00987835 -0.00840171
N 24.85965217 12.90959804 2.27014327 -0.00360015 -0.00211148 -0.00098618
N 18.25840348 6.71020451 10.43612394 -0.00380496 0.00267607 -0.00359023
N 20.41859646 0.14916448 5.52972242 -0.00129398 0.00233677 -0.00483670
N 22.21009604 6.75613192 13.99376955 -0.00187535 -0.00008958 0.00034573
N 17.94571465 0.40153506 13.93183540 -0.00216100 -0.00652393 0.00846556
N 24.67555600 6.40238519 6.02986032 0.00536885 0.00388180 0.00015227
N 22.15621665 13.18145297 10.44271389 0.00450376 -0.00284916 0.00034274
N 19.98295351 6.67996382 2.05674033 -0.00347968 0.00286360 0.00041507
N 24.26056548 12.94572938 18.71513364 0.00415685 0.00351930 -0.00062363
N 17.90999524 5.99723896 26.95143781 0.00640715 0.00568705 -0.00563956
N 20.39490222 25.64430952 22.19121380 -0.00544057 -0.00426641 -0.00349997
N 22.35174268 6.18154506 30.31327152 0.00623599 -0.00044208 0.00003045
N 17.91035818 25.33482854 30.24887472 0.00230298 0.00416261 0.00149966
N 24.75737679 6.55279378 22.15602863 0.00052056 -0.00261967 -0.00514716
N 22.63222031 12.57881903 26.96393648 -0.00348763 -0.00373961 -0.00193386
N 20.13598836 6.27075677 18.62595898 -0.00354813 0.00401932 -0.00042267
N 24.38344176 0.27409030 2.57871676 0.00589008 -0.00686740 -0.00149795
N 18.29069126 19.34208326 10.46834348 0.00026014 0.00222655 -0.00627070
N 20.22175685 13.07105472 5.77722046 0.00455995 0.00392552 -0.00008716
N 22.27274585 19.42558416 14.26416021 -0.00282833 -0.01151147 -0.00243574
N 18.14856125 13.07386348 14.41571014 0.00093296 0.00308440 0.00300526
N 24.72567715 19.49157830 6.10717842 0.00424426 -0.00113473 -0.00492174
N 22.39430148 0.33181281 10.51363382 -0.00091445 -0.00305573 0.00225831
N 20.33991505 19.27303821 2.11499405 -0.00759954 -0.00545401 -0.00082544
N 24.56585423 0.15611572 19.12426774 -0.00012761 0.00428805 -0.00103634
N 18.29513066 19.20859069 26.77250884 -0.00292626 0.00886535 -0.00537813
N 19.71687812 12.83721693 22.69144815 -0.00310231 -0.00178696 -0.00063229
N 22.27438153 18.92756218 30.74372674 0.01008918 0.00834828 0.00272701
N 18.16520250 12.67447829 30.41535602 -0.00024066 0.00278858 0.00024492
N 24.60232013 19.35959638 22.42288211 0.00346386 -0.00838825 0.00362748
N 22.41798177 0.07515374 27.19490843 -0.00201530 -0.00173759 -0.00390823
N 20.12034628 19.11320934 18.76087259 -0.00447633 -0.00123435 0.00432013
C 7.60297131 0.40254572 4.88575070 0.00048185 -0.00015370 -0.00067087
C 0.93300302 6.13337425 13.00171460 -0.01022031 0.00036054 -0.00639237
C 3.40922180 12.45273146 3.47747871 0.00246347 -0.00349267 0.00451403
C 5.18291632 6.86156967 11.60239658 -0.00279627 0.00061366 0.00634827
C 0.77165715 12.55976432 11.48174665 -0.00291211 0.00353618 -0.00271681
C 7.78896425 6.65540347 3.52285408 -0.00287677 -0.00898023 0.00006502
C 5.10069371 0.69650134 13.04893392 -0.00399827 0.00112284 0.00431329
C 3.55442011 6.40794975 4.74126201 0.00344859 -0.00452876 0.00410423
C 7.18294900 0.98942616 6.03205502 -0.00154894 -0.00306092 -0.00062652
C 1.21003583 5.38881854 14.17181518 0.00399249 -0.00204501 -0.00395293
C 2.97188060 11.79750558 2.29184626 -0.00125432 0.00135272 0.01082918
C 5.64372475 7.60919256 10.49321597 0.00652770 0.00913750 -0.00886472
C 1.08265073 11.91566748 10.28884864 0.00021494 0.00053108 -0.00040079
C 7.48595816 7.21337357 2.32320572 0.00025217 -0.00708699 0.00141639
C 5.65406426 1.23258814 14.20345900 -0.00230886 0.00611998 0.00039390
C 3.15577410 5.72209854 5.87318417 0.00104605 0.00486376 0.00374689
C 6.27778389 2.11190813 5.96418846 0.00215597 0.00341071 0.00118376
C 2.12332285 4.28188037 14.05380722 -0.00474834 -0.00497565 -0.00356953
C 2.23041488 10.62739349 2.39959895 0.00431881 -0.00261313 -0.00154491
C 6.52536559 8.74681322 10.64839607 0.00125704 -0.00383467 -0.00457559
C 2.00230980 10.84914089 10.30927556 0.00384836 0.00163190 0.00188244
C 6.72142285 8.40529583 2.30132184 -0.00266305 -0.00294603 -0.00112701
C 6.49678074 2.36004547 14.09803567 0.00245024 -0.00870441 0.00724818
C 2.25305239 4.64528308 5.70352745 0.00549612 0.00529839 -0.00167175
C 6.10230924 2.64808059 4.61889430 -0.00044235 0.00061973 -0.01048482
C 2.42783318 3.74744407 12.75681272 -0.00780408 -0.00922608 -0.00080138
C 2.04363431 10.06601278 3.66070966 0.00148960 -0.00208734 0.00654587
C 6.67811768 9.23889300 11.92101417 -0.00392321 0.00440986 0.00319768
C 2.27342331 10.26272800 11.56712045 0.00429605 0.01072034 0.00053032
C 6.28255532 8.97872243 3.51456994 0.00699312 0.00391247 -0.00428735
C 6.72327901 2.96662813 12.84413572 0.00924441 0.00349649 0.00126675
C 2.10123959 4.06226422 4.43239456 0.00972791 -0.00136664 0.00158106
C 6.49265553 2.06936302 3.44735917 0.00458758 0.00019561 0.01034824
C 2.07150301 4.44591614 11.64780211 -0.00172764 -0.00197816 0.00219017
C 2.52816493 10.59085992 4.81630623 0.00128836 -0.00199043 -0.00005298
C 6.22466220 8.53376338 13.01129969 0.00325072 -0.00634145 0.00382831
C 1.91568388 10.88826073 12.74429914 0.00717135 0.00286921 -0.00281679
C 6.70819120 8.41771561 4.69149948 0.00034293 0.00149556 -0.00587301
C 6.41530837 2.26250315 11.70468886 -0.00610716 -0.00186353 -0.00086644
C 2.70270350 4.62086197 3.32788218 0.00158315 0.00512909 0.01366460
C 7.18172780 0.77516191 3.61626279 -0.00521352 -0.00154478 0.00267015
C 1.35362377 5.68329503 11.77015925 0.00297366 -0.00070183 -0.00661131
C 3.10130482 11.92641423 4.71152446 -0.00534656 -0.00103777 -0.00627491
C 5.46992084 7.31305842 12.89416478 0.00477237 0.00278625 -0.00072637
C 1.22669617 12.12264933 12.68201720 0.00341871 0.00204558 0.00155394
C 7.36773031 7.21917522 4.71945562 -0.00204581 0.00283035 0.00419880
C 5.50787455 1.18001554 11.70773063 0.00377341 0.00814876 0.00130153
C 3.16946870 5.91660939 3.49892289 0.00484100 -0.00075569 0.00204624
C 7.17616431 0.19039952 1.30397861 -0.00327363 0.00048251 0.00657532
C 1.72591559 6.34091121 9.40177679 0.00346691 0.00228616 -0.00014768
C 2.61934014 12.73333637 7.01765629 0.00575103 -0.00052403 0.00323920
C 5.67853274 6.71997432 15.28500998 0.00182758 -0.00528760 -0.00290578
C 1.44216329 12.67035537 15.08213228 -0.00313163 0.00577471 -0.00072801
C 7.13939583 6.70010360 7.20463999 -0.00107010 -0.00200644 -0.01227498
C 5.89139497 0.40460062 9.46753644 0.00145069 0.00017427 0.00764115
C 3.07148302 6.42948612 1.10946913 0.00045663 0.00067517 0.00070582
C 7.07311375 11.90882401 16.63606373 0.00300989 -0.00068427 0.00012347
C 1.55401102 7.55937530 8.56534171 0.00526078 -0.00101788 -0.00125655
C 3.02274864 0.99283594 7.89024269 -0.00023930 -0.00290899 -0.00069972
C 5.74887404 5.48861408 32.49001688 0.00260858 0.00599094 -0.00264692
C 1.10117021 1.01759705 32.57385930 -0.00084656 -0.00327037 0.00407953
C 7.12628141 5.46811746 8.11533708 0.00759622 0.01009297 0.00160722
C 5.46217654 11.96034670 8.58252476 -0.00469624 -0.00470356 0.00831903
C 2.76657283 7.41898408 16.58843580 0.00595434 0.00169421 -0.00162287
C 7.09967966 0.11630291 21.24814173 -0.00776104 -0.00056370 -0.00110178
C 0.98191048 5.93710625 29.10223341 0.00033870 -0.00347776 0.00041931
C 3.20288620 12.53198904 19.54594982 0.00080055 0.00350011 -0.00322293
C 5.45845099 6.67495798 27.84236464 -0.00299088 0.00741556 0.00470599
C 1.02947843 12.31177616 27.98363882 -0.00031564 -0.00464549 -0.00515170
C 7.66617458 7.03885262 19.60881561 0.00396105 0.01193454 0.00187377
C 5.27462789 0.19139342 29.48801559 -0.00676460 -0.00010436 -0.00751599
C 3.65461042 5.91834029 21.17269620 0.00298153 -0.00177155 -0.00032869
C 6.78770044 0.79138520 22.41870951 0.00090559 -0.00165391 -0.00430500
C 1.57676236 5.38714374 30.24232526 -0.00617304 0.00096623 0.00074525
C 2.67671910 11.89638495 18.43931927 0.00437483 0.00305284 -0.00184833
C 5.87981839 7.35908560 26.69725611 -0.00146200 0.00121613 0.00073656
C 1.39799622 11.83556828 26.78310279 -0.00048309 0.00608340 0.00647091
C 7.34143059 7.69299217 18.48677303 -0.00467912 -0.00246649 -0.00369395
C 5.72655329 0.97797198 30.55033405 -0.00305536 0.00596563 -0.00228344
C 3.28569462 5.30248787 22.34802423 0.00855445 0.00210490 0.00105311
C 6.19150829 2.07315048 22.34878299 0.00175146 -0.00230283 0.00795659
C 2.49943549 4.36882015 30.24145267 -0.00195181 -0.00586887 0.00603122
C 1.87442937 10.76984463 18.52756770 -0.00032267 -0.00808997 -0.00462152
C 6.49289624 8.61247632 26.69201979 0.00511452 0.00046889 -0.00349768
C 2.31631420 10.75645696 26.73431617 0.00195075 0.00106700 0.00193793
C 6.39903448 8.73219720 18.63057724 0.00227171 0.00360804 0.00314671
C 6.67766267 1.99542623 30.33468197 -0.00293645 -0.00218342 -0.00121926
C 2.44834056 4.11513033 22.24917730 0.00587016 0.00336966 0.00201167
C 5.97838080 2.69643290 21.09845789 0.00086506 -0.01108307 0.00095362
C 2.59969027 3.74082470 28.95994793 0.00480130 -0.00678187 0.00481469
C 1.74827363 10.15723592 19.77703113 -0.00315417 -0.00639621 -0.00531199
C 6.65706304 9.17916000 27.98182262 0.00214901 -0.00006263 -0.00226571
C 2.62295679 10.10503246 28.00318374 0.00206910 0.00523449 -0.00770469
C 6.06878777 9.17005107 19.91188613 0.00401666 0.00000865 -0.00078630
C 6.80294324 2.42812673 29.00935640 0.00306505 -0.01154332 0.00447914
C 2.06692228 3.71796046 20.95819819 -0.00606006 -0.00612474 0.00206825
C 6.47913385 2.02333180 19.97876990 -0.00690172 -0.00542626 -0.00093434
C 2.15010350 4.28631258 27.79940889 0.00301509 0.00144913 0.00169188
C 2.42828382 10.73418924 20.89443006 -0.00120157 0.00197190 0.00038638
C 6.34573612 8.46722204 29.17677868 0.00469734 -0.00527698 0.00181613
C 2.21899882 10.61656325 29.23694068 0.00138485 0.00088414 -0.00020685
C 6.48405648 8.50417425 21.05603175 -0.00672673 -0.00224786 -0.00490573
C 6.20014107 1.81513772 27.95234165 0.00414529 0.00617464 -0.00067516
C 2.35292269 4.37069932 19.81705175 -0.00330304 -0.00253132 0.00239852
C 7.05358524 0.70406901 20.05138851 0.00534138 0.00102182 -0.00240267
C 1.40094502 5.51293862 27.85206743 0.00348158 -0.00433655 -0.00411823
C 3.00830668 12.03370950 20.86032774 0.00713743 -0.00702639 -0.00352475
C 5.80572888 7.19276823 29.11997781 -0.00728802 -0.00247144 -0.00582600
C 1.43832548 11.78196783 29.22476735 -0.00106405 0.00129745 0.00099062
C 7.30945263 7.34913557 20.91475003 -0.00701433 -0.00837895 0.00558421
C 5.48142186 0.63893040 28.15881973 0.00548297 0.00246158 -0.00392865
C 3.15516363 5.57646601 19.85550095 0.00149181 0.00033398 0.00139766
C 6.89370960 0.27035196 17.72418264 0.00389813 -0.00551618 -0.00475059
C 1.75422879 6.17018615 25.62868984 0.00075372 0.00077381 0.00170653
C 2.80275535 12.67086096 23.20940763 0.00372592 0.00310376 0.00462597
C 5.95501397 6.62979179 31.48700352 0.00416986 -0.00642455 -0.00928104
C 1.82060527 12.50897034 31.49090631 -0.00552976 -0.00056757 -0.00024695
C 7.06049733 6.57697464 23.20792385 0.00429188 -0.00679448 -0.00424259
C 5.42600804 25.55482470 25.88315027 -0.00107092 -0.00609037 -0.00656090
C 2.68376740 6.25011534 17.54970497 0.00582497 -0.00311708 0.00729918
C 6.73985352 11.89218597 0.52162013 0.00416313 0.00446782 0.00348319
C 1.71220638 7.35726753 24.73628015 0.00299981 0.00449139 0.00213459
C 2.58040542 0.67876977 24.44899168 0.00357953 0.00265283 -0.00830587
C 5.62246742 5.56532525 16.20178836 -0.00262888 -0.00075938 -0.00099829
C 1.12589871 1.21795802 16.17955404 0.00421116 0.00169535 0.00625042
C 7.06924603 5.27874923 23.89518258 0.00393547 -0.00683921 -0.00346408
C 5.66641239 11.89890987 24.61254597 -0.01205862 -0.00253438 0.00662615