1920
Time=81000.00000008 pbc="T T T" Lattice="25.58657106 0.00000000 0.00000000 0.00000000 25.55144546 0.00000000 0.00000000 0.00000000 32.94671630" energy=-12250.75383544 virial="-38.08071024 -15.38882357 5.16471466 -15.38882357 -24.37667498 -29.87209343 5.16471466 -29.87209343 -50.44013577" stress="0.00039790 -0.00075406 0.00018235 -0.00075406 0.00102070 -0.00148797 0.00018235 -0.00148797 -0.00022939" Properties=species:S:1:pos:R:3:vel:R:3
O 6.28890678 2.73459090 6.62885132 -0.00045917 0.00249667 -0.00000510
O 3.10819100 3.68312067 15.37277955 -0.00072733 0.00756836 0.00063486
O 1.68243592 10.14207412 1.60643221 0.00422203 0.00512200 -0.00038753
O 6.93672375 9.00335025 9.62946214 0.00312312 -0.00388738 0.00148329
O 2.73490054 9.86539067 9.95422038 -0.00089360 0.00427575 0.00213650
O 5.94438709 9.02249658 1.45836320 -0.00400425 0.00562232 -0.00026574
O 6.42068917 2.62012491 14.81488385 0.00077262 -0.00341461 -0.00983524
O 1.40918330 3.83164060 7.08447464 -0.00525508 -0.00200914 -0.00490048
O 6.61740859 1.37650385 17.05890416 -0.00031992 0.00622702 0.00072158
O 1.71487133 4.96926389 9.35385355 -0.00141894 0.00317692 0.00290320
O 2.25482027 11.39346219 7.80889418 -0.00538090 -0.00553495 -0.00322693
O 6.57681742 7.45757070 32.51797634 0.00380643 -0.01037570 0.00425577
O 2.32725816 11.75704606 32.63031999 0.00116964 -0.00508406 -0.00086473
O 6.67441453 7.60428027 7.48850301 -0.00017736 -0.00504955 -0.00118784
O 7.03843811 1.20653006 8.78694687 -0.00136525 -0.00145105 -0.00209802
O 2.25409869 4.87931770 17.42604963 -0.00180486 0.00292345 -0.00147501
O 6.08845639 2.54651716 23.27018386 -0.00424754 0.00335330 -0.00132200
O 2.61164893 3.78134390 31.83509500 0.00268863 0.00521943 0.00742906
O 1.54693101 10.40444569 18.03426344 0.00092733 -0.00679212 -0.00193590
O 6.77902303 9.49552167 26.26399592 -0.00172274 -0.00124905 -0.00398522
O 2.93384694 10.27892216 26.31965478 -0.00121794 -0.00295581 0.00098721
O 6.06278697 9.17892587 17.72683793 0.00139145 -0.00223758 0.00005574
O 6.80457405 2.86063565 31.24818424 -0.00336373 0.00159614 0.00101448
O 1.82489201 3.93401099 23.76731093 -0.00231936 0.00341428 0.00207586
O 6.33721957 1.28730061 0.45751250 0.00783996 0.00174563 -0.00479635
O 2.42703306 5.64149306 25.60962326 -0.00047503 0.00123107 0.00237980
O 2.29478529 11.66129452 24.24650821 0.00290671 0.00329015 0.00469286
O 6.69898361 7.46555728 15.78418957 0.00266343 -0.00190192 0.00760162
O 2.25669528 11.75395571 15.94907016 -0.00048916 -0.00179423 -0.00419650
O 6.77352398 7.76888181 24.05418167 -0.01115394 -0.00164676 0.00194265
O 6.77957492 1.06879950 25.27693300 -0.00180610 0.00293590 -0.00275819
O 2.36009105 5.15168956 1.08910788 0.00287369 -0.00331315 -0.00196430
O 5.72808892 15.36738073 7.23073110 -0.00548488 0.00438188 -0.00099140
O 2.26925827 16.16860095 14.69677657 -0.00334520 -0.00957799 0.00010630
O 1.63309880 23.09749728 0.74831722 0.00310498 0.00327764 0.00245084
O 7.11308871 21.62639421 9.36583480 -0.00096479 0.00366499 0.00023112
O 3.15483231 23.23028871 8.97451257 0.00007046 0.00385634 0.00002759
O 6.00278845 22.07888316 1.33886638 -0.00133352 -0.00755362 -0.00008843
O 7.08381254 15.67221378 15.26555256 -0.00317874 -0.00023586 -0.00098025
O 1.79974705 16.16221821 6.79296127 -0.00056454 0.00509174 0.00164803
O 6.59201992 14.26699785 17.34538396 -0.00300246 0.00220810 0.00004189
O 1.97062792 17.99092897 8.63797343 -0.00019938 0.00064135 -0.00459051
O 2.14109823 24.27580611 6.99115181 0.00282426 0.00524946 -0.00622709
O 5.98291786 20.52888382 31.98290637 0.00477167 -0.00121062 0.00609537
O 2.09109681 24.11362681 31.55601447 0.00091798 -0.00191167 0.00078443
O 6.27180035 20.22887233 7.38659005 0.00127083 -0.00641790 0.00303602
O 6.38913204 13.90798726 9.26369067 -0.00352421 0.00179230 -0.00200134
O 2.52251643 17.83797046 16.76962223 -0.00148420 -0.00534692 -0.00098321
O 6.22111996 15.27354545 23.58249420 0.00028770 0.00163850 -0.00304800
O 2.44590991 16.37428072 31.67049165 -0.00092790 0.00107869 0.00126981
O 1.60556477 22.89786907 17.22451539 0.00020413 0.00183703 0.00138073
O 7.08902150 21.51729919 25.86214125 -0.00186701 0.00234922 0.00260127
O 2.62233625 22.95523891 25.37527078 0.00308722 0.00149600 -0.00500837
O 5.64723211 22.33082822 17.99020652 0.00132113 0.00148986 0.00171845
O 6.85810600 15.60471342 31.83796364 -0.00181708 -0.00054914 0.00691312
O 1.48821593 16.13717517 22.95434983 -0.00127442 -0.00101599 0.00373854
O 6.49947464 13.88325971 0.91980024 -0.00521250 0.00505607 0.00209398
O 2.00421151 17.65600582 25.12513577 -0.00876353 -0.00459466 -0.00306192
O 2.31354719 24.60438123 23.39556936 0.00244193 0.00231560 0.00045942
O 5.98493277 20.89236767 15.76402412 0.00187091 0.00611274 -0.00196205
O 2.33465020 24.34207786 15.19924661 0.00010598 -0.00221178 -0.00310701
O 6.44795084 20.14515884 23.81166405 0.00355067 0.00488582 0.00138920
O 6.76134796 13.81614951 25.62716572 -0.00318131 0.00134825 0.00402609
O 1.75378574 17.99888487 0.55552562 0.00114207 0.00555894 -0.00214748
O 14.57217798 3.03011147 6.77126797 0.00572782 -0.00427150 0.00111875
O 11.28394220 3.79494539 15.43563334 0.00033523 0.00220893 -0.00702477
O 10.20204049 10.13298460 1.38633855 0.00324551 -0.00370983 0.00098288
O 15.09212607 8.97763390 9.61754415 0.00402130 0.00204635 -0.00114840
O 11.70213610 10.33709509 9.92937098 0.00843954 0.00074532 0.00328758
O 14.66284164 9.48816367 1.63003637 0.00649842 0.00096918 -0.00035550
O 15.41148904 3.02849363 15.24056111 -0.00006454 0.00400221 0.00160524
O 10.48468455 3.37947226 7.32383386 -0.00308928 0.00142272 0.00251543
O 15.43978148 1.54101590 17.36202005 -0.00105640 -0.00272363 0.00274933
O 10.86953647 5.16598357 9.25309020 -0.00356409 0.00026612 0.00106370
O 11.02838998 11.40049409 7.52039678 -0.00061599 0.00118247 -0.00272323
O 14.60894305 7.90965308 32.45871571 0.00120601 0.00024882 0.00434596
O 10.47815843 11.47254217 32.17275727 0.00416287 0.00088358 0.00348202
O 14.33473577 7.33074386 7.56187367 0.00130238 0.00458068 -0.00249187
O 14.62057822 1.45901559 9.09931234 0.00210826 0.00907412 -0.00033261
O 10.47176473 5.29637580 17.38421421 0.00348696 -0.00043341 -0.00478204
O 14.16009893 2.58041638 23.43224454 0.00647022 -0.00466312 0.00392314
O 11.02765959 3.71448052 31.92629729 0.00013778 0.00259582 0.00278052
O 10.25237894 10.28990163 17.74147683 -0.00013324 0.01024728 0.00010154
O 15.22603896 8.93278699 26.20489780 -0.00466197 -0.00489938 0.00300096
O 11.69773507 10.30459878 26.11105541 -0.00910523 0.00046934 0.00695877
O 14.07591644 8.96867077 18.00988652 0.00171510 0.00088331 0.00006667
O 15.30271635 2.67352250 31.80741747 -0.00157054 -0.00655334 0.00513201
O 10.17281876 3.61643505 23.52769308 -0.00006278 -0.00384630 -0.00274249
O 14.68083004 1.02954453 0.73568879 -0.00264118 0.00036799 -0.00023617
O 10.14893531 5.03930788 25.72095070 0.00040314 0.00387726 0.00000456
O 10.77306285 11.13706692 24.06527047 -0.00402820 0.00393841 0.00675453
O 15.07199536 7.72656680 15.76777878 0.00469683 0.00028596 0.00999703
O 10.96624222 11.78650741 15.59929561 0.00434424 -0.00069303 0.00202722
O 15.25844023 7.52395096 24.10271798 -0.00021077 -0.00319376 0.00753593
O 14.39279288 1.23995372 25.66444009 0.00033930 -0.00036402 0.00439139
O 11.14302936 5.15201257 1.26199107 0.00115964 -0.00309127 -0.00039919
O 14.42488206 15.40471441 6.89837023 0.00518902 -0.00014386 0.00253090
O 11.14147582 16.76637530 15.20704311 0.00689110 0.00564856 0.00260111
O 10.11800960 23.11877582 1.21466510 0.00265732 -0.00016297 0.00036831
O 15.14255541 21.94873828 9.36318381 -0.00055834 0.00220709 0.00187462
O 10.88831847 22.14485465 9.48668016 0.00287155 0.00297665 -0.00161104
O 14.20429932 21.74940093 1.03192473 -0.00268280 0.00427195 0.00481641
O 15.41554300 15.24465773 15.28979843 0.00596736 0.00119780 0.00531346
O 10.14718704 15.96375114 6.60826241 -0.00292785 0.00126148 -0.00575519
O 14.69201791 13.89343215 17.28578382 -0.00505665 0.00092022 -0.00430702
O 10.53892494 17.43248310 8.78802293 0.00390034 -0.00324625 -0.00640273
O 10.68728666 23.85857325 7.52031913 0.00049317 0.00162285 -0.00312334
O 14.79966299 20.06077147 32.16673720 -0.00273285 -0.00107753 -0.00853308
O 10.82650388 24.42242946 32.01252603 -0.00307951 0.00106667 0.00299813
O 15.16749546 20.60408402 7.11318747 0.00663235 0.00182972 -0.00791905
O 14.98936935 14.12916252 8.94998101 -0.00000967 0.00248320 0.00131071
O 10.73780781 18.05320249 17.26378206 -0.00171979 -0.00032689 -0.00117501
O 14.84995908 15.66351800 23.21063505 0.00139526 0.00763889 0.00109249
O 10.65932792 16.54479247 31.67052476 0.00074640 0.00112943 -0.00471898
O 10.53711750 22.50998699 17.60454246 -0.00147215 0.00300388 -0.00258213
O 15.30781990 22.24666695 26.26412289 0.00508202 0.00383296 0.00107197
O 11.10120206 22.85665800 25.87333537 -0.00380301 -0.00635297 -0.00408914
O 14.49451468 22.16264074 17.70957375 -0.00146764 -0.00163498 -0.00052440
O 15.62415725 15.69994973 31.35185436 0.00846951 -0.00020621 -0.01005131
O 10.37631290 16.19088041 23.38379048 -0.00499669 0.00248884 -0.00179434
O 14.88021677 14.31584987 0.48654127 0.00277798 0.00053491 -0.00494617
O 10.68502363 17.86788781 25.43180757 -0.00173051 0.00018459 -0.00409903
O 10.41256870 24.16096635 23.86130525 -0.00501710 -0.00502667 0.00364362
O 14.82074550 20.45335037 15.64998581 -0.00069061 0.00018496 0.00181743
O 10.27885052 24.23963868 15.59655278 -0.00249150 0.00285960 0.00516310
O 15.63310393 20.86304668 23.97170770 -0.00701302 0.00135305 0.00202869
O 14.45680374 13.98546032 25.15649570 -0.00570112 -0.00561416 0.00061157
O 10.62262756 18.26562157 0.61465522 -0.00030950 0.00194742 0.00301872
O 23.00093815 2.99391424 6.95354521 0.00238261 0.00430380 0.00176774
O 20.06606298 3.67660543 15.31270448 0.00049146 0.00193443 -0.00348741
O 18.36153622 9.97362939 1.69705017 0.00193549 0.00896617 0.00355882
O 23.77387479 9.13509926 9.93906560 -0.00293519 -0.00795894 0.00165680
O 19.69474230 10.19103955 9.44639744 0.00222564 0.00019123 -0.00326273
O 23.02759420 8.67404755 1.48205372 -0.00153962 -0.00227239 -0.00337705
O 23.84240148 2.90982244 15.09247490 0.00273659 -0.00613164 -0.00113655
O 18.45230672 4.08560473 6.99263513 -0.00011311 0.00362766 0.00098237
O 23.31030444 1.33936331 17.35059146 -0.00235023 -0.00036142 -0.00159505
O 19.06603923 5.36450414 9.12278024 -0.00162267 -0.00319347 0.00130238
O 19.19841778 11.86802112 7.62949575 -0.00282927 -0.00394526 -0.00394725
O 23.49497060 7.36624565 32.41162230 -0.00031916 -0.00446016 -0.00128373
O 18.78311894 11.27049405 32.35998925 -0.00276066 0.00325652 0.00232428
O 23.63305110 7.66324179 7.81576613 -0.00245129 -0.00033222 -0.00445305
O 22.95015961 1.26540994 8.93227006 -0.00591192 -0.00167588 -0.00046544
O 19.46441857 5.11585371 17.35341775 0.00139198 0.00059923 -0.00373193
O 22.54008863 2.90745076 23.40423031 0.00335914 -0.00322495 -0.00032628
O 19.79619871 3.53593764 31.49067300 0.00840287 0.00064091 -0.00070377
O 18.39553615 10.08568148 17.68028946 0.00099192 0.00132015 0.00219805
O 24.04478082 9.19229104 26.45940614 0.00148075 0.00193965 -0.00306747
O 19.89158740 10.06244462 26.28698054 0.00126945 0.00304542 0.00203556
O 22.91466931 9.30678428 18.15635695 -0.00391742 0.00255897 0.00059098
O 23.81354305 2.82035523 31.61498779 0.00844690 0.00146590 0.00542826
O 18.36861760 3.62412284 23.36364064 0.00165501 -0.00610817 -0.00479289
O 23.37707377 1.36217684 0.83400618 0.00805956 0.00124775 0.00805429
O 19.24112976 5.19298269 25.58831288 -0.00729533 0.00074810 0.00082430
O 19.31145801 11.38458007 24.01320673 -0.00060300 -0.00034028 -0.00169280
O 23.51997267 7.79842025 16.03958195 0.00061616 -0.00746841 0.00031540
O 19.28924564 11.43772839 15.70563177 -0.00344527 -0.00322867 0.00126074
O 23.66237989 7.77132739 24.20779530 -0.00913656 0.00328224 -0.00342967
O 23.44709695 1.65419665 25.31202075 -0.00562260 0.00049288 0.00185505
O 19.46603288 4.93422754 0.69937146 -0.00084237 -0.00519524 0.00201427
O 22.72227528 15.22585138 7.15187735 -0.00420989 0.00009068 0.00218636
O 19.64215632 16.24565574 14.89383116 0.00741246 0.00166521 0.00374130
O 18.72883208 22.92265869 1.04387732 0.00418882 0.00273810 0.00063635
O 23.95710922 21.71985150 9.29786171 0.00022494 -0.00474347 0.00547337
O 19.88010626 22.79470169 9.25991483 0.00524602 0.00124908 -0.00794950
O 22.54897129 21.95007515 1.26120829 0.00204670 0.00271379 -0.00418635
O 23.95577549 15.54597404 15.30012185 0.00904365 -0.00740979 -0.00288897
O 18.39407746 16.38261692 6.74120441 0.00254627 -0.00135709 -0.00138465
O 23.63226961 14.01696055 17.33421147 0.00133204 -0.00014637 0.00207738
O 19.13882393 17.82386085 8.77946524 0.00364864 -0.00072936 0.00333806
O 19.29277248 24.32316296 7.38589889 0.00495792 -0.00078676 -0.00905923
O 23.27392372 20.76821600 31.96100378 0.00028422 -0.00621931 0.00551942
O 19.20661293 24.54520957 32.01070365 0.00218609 -0.00220226 0.00129005
O 23.60043541 20.10289435 7.32780693 -0.00080493 0.00078491 0.00349520
O 23.56611564 14.01366557 9.17242514 -0.00257047 0.00026932 0.00129575
O 19.51412323 17.81649076 17.04277423 0.00238491 0.00191375 0.00156591
O 22.95389380 15.47451609 23.45201198 -0.00154686 0.00219246 0.00323091
O 19.74804049 16.24063013 31.63752583 -0.00017043 -0.00270650 0.00109039
O 18.62030273 22.86045329 17.63232002 0.00059383 -0.00060099 -0.00586136
O 24.43185935 21.84801020 25.83703281 0.00339687 0.00269612 -0.00538091
O 19.74109876 23.12271368 25.85434399 -0.00394745 -0.00007226 -0.00313913
O 22.62857023 21.73193987 17.41647571 -0.00257579 0.00045523 -0.00663449
O 23.96489993 15.49653877 31.88348290 0.00379354 -0.00275938 -0.00172899
O 18.51573459 16.33102905 23.20626354 -0.00601834 -0.00080863 0.00122527
O 23.27500338 14.19075251 0.99834215 0.00977138 -0.00235469 -0.00788563
O 18.95798257 17.83902797 25.58570707 0.00168801 -0.00033317 0.00356444
O 18.82083506 24.58108678 23.83399185 0.00768515 -0.00030650 0.00495099
O 23.85095853 20.28681171 15.50168254 -0.00092380 0.00989655 0.00414349
O 19.39504424 24.53450288 15.68852545 0.00363475 0.00032456 -0.00154612
O 23.78611431 20.55238808 23.70516366 -0.00020821 -0.00029723 -0.00450215
O 23.74791539 14.00315953 25.60618526 0.00025749 0.00414045 -0.00237218
O 19.36967662 17.80791382 0.60837154 -0.00611116 0.00396831 -0.00348989
N 7.56694935 12.82058288 2.64296030 -0.00555061 -0.01001215 -0.00323168
N 0.96336886 6.26278020 11.10245678 -0.00525268 -0.00485609 -0.00690801
N 3.32641199 25.47202210 5.49367379 -0.00299564 -0.00269163 -0.00543862
N 5.30088315 6.44021412 14.30583259 0.00266085 -0.00241673 -0.00469477
N 0.77181587 24.84679727 13.61486371 0.00083305 -0.00185190 -0.00780722
N 7.58159532 6.24804196 5.84006885 -0.00182764 -0.00214118 -0.00097373
N 5.02766682 13.06941984 10.88353902 -0.00686957 0.00418247 -0.00596068
N 3.50683302 6.41392605 2.59757792 0.00213778 -0.00275470 0.00033720
N 7.67322952 12.97912825 18.83794168 -0.00246138 -0.00138307 0.00448833
N 1.21375626 6.76964395 27.24492285 0.00488093 -0.00546047 -0.00021393
N 3.52723166 0.01016483 21.73372775 0.00747526 0.00290655 0.00376353
N 5.44738462 6.48812265 30.73462865 -0.00090488 0.00864908 -0.00292244
N 0.79861440 25.18808887 30.01725585 0.00302775 0.00051391 -0.00572425
N 7.35834107 6.43293363 22.34611525 -0.00893232 0.00379190 0.00753427
N 5.35758891 12.85935145 27.12050959 -0.00078560 -0.00679873 -0.00086162
N 3.29762577 6.17238384 18.92141623 -0.00253269 0.00157970 0.00535865
N 7.16944635 25.38361141 1.99747980 -0.00243178 0.00063376 -0.00460872
N 1.13793814 19.36151769 10.22615400 0.00084015 0.00090159 0.00141280
N 3.25362894 12.72507825 6.15658086 0.00301737 0.00440187 0.00618526
N 5.43294917 19.41571373 14.06473281 -0.00814531 0.00039005 0.00621874
N 1.28076990 12.89247580 14.21423827 0.00052011 -0.01064535 -0.00577703
N 7.09281727 18.93777533 5.74195373 0.00110752 0.00586320 -0.00130938
N 5.66663136 0.01293787 10.09835815 -0.00142483 -0.00606993 0.00837404
N 3.05455195 19.04396023 2.16718192 -0.00342241 -0.00520346 0.00586040
N 7.88166193 0.19202241 18.61319830 -0.00095418 -0.00082965 -0.00398082
N 0.73606287 18.55191508 26.91934219 0.00006586 0.00260913 0.00602794
N 3.16995716 12.90857988 22.65994386 0.00002262 -0.00190166 0.00877583
N 5.09025181 19.18203822 30.34794201 0.00030717 0.00015947 -0.00309626
N 1.13167407 12.65170519 30.93563310 -0.00831052 -0.00464938 0.00005440
N 7.50133558 19.09486803 22.07781072 0.00028511 0.00329161 -0.00109801
N 5.38324084 0.01701163 26.76351255 0.00690244 -0.00195085 -0.00099535
N 3.37232203 19.07207593 18.60094549 -0.00588630 -0.00408813 -0.00109108
N 15.46925820 12.81417737 2.11958156 -0.00429489 0.00291977 0.00300200
N 9.50180266 6.24188278 10.80258536 0.00491247 -0.00152497 -0.00290319
N 11.69871864 25.21059072 6.02193363 -0.00409259 -0.00041548 0.01024466
N 13.88618535 6.37164745 14.39477552 0.00234491 -0.00184214 0.00141459
N 9.27425982 25.30485793 13.76241027 0.00265715 0.00287969 -0.00252614
N 15.85704998 6.36514544 6.13659960 -0.00145241 0.00785835 0.00518835
N 13.85510724 12.96780431 10.45191444 0.00179189 0.00341255 -0.00498991
N 11.89086836 6.52421235 2.95245480 -0.00103746 0.00253127 0.00029586
N 15.76916675 12.65926573 18.83426257 0.00322349 0.00863088 0.00030459
N 9.44463659 6.44942170 27.37301742 0.00553793 -0.00052469 0.00033637
N 11.52623323 25.39329039 22.34004714 0.00322766 0.00424849 0.00029735
N 13.65039995 6.52120467 30.96212432 -0.00357659 -0.00085868 0.00020918
N 9.31922249 25.19034147 30.53690235 -0.00536815 -0.00709343 -0.00083296
N 15.97134945 6.25759203 22.39507810 0.00322184 -0.00195686 0.00438803
N 13.80210142 12.71521721 26.99319788 -0.00039102 -0.00093863 -0.00017718
N 11.70509404 6.35467286 19.01385413 0.00411242 -0.00067294 0.00209093
N 15.92876948 25.46733447 2.27460970 -0.00030735 -0.00196386 0.00057585
N 9.53466353 18.92644288 10.32124545 -0.00911770 0.00391341 -0.00346001
N 11.68855490 12.86671607 5.88927024 -0.00592944 0.00653075 -0.01052753
N 13.94332762 19.13112892 14.00696527 -0.00314340 0.00214664 -0.00432049
N 9.32612890 12.57213014 14.13456530 0.00409258 -0.00177137 0.00434734
N 15.87454430 19.09350545 5.55128231 0.00251777 -0.00305178 -0.00006113
N 13.97957477 0.00498387 10.79521640 0.00003128 0.00176264 0.00362177
N 11.61299205 19.31121516 2.40794456 0.00050358 0.00175667 -0.00727366
N 16.10745835 0.03998321 18.96792446 -0.00565169 -0.00568615 -0.00075156
N 9.54629757 19.15681003 26.88202459 0.00275093 -0.01224441 0.00054244
N 11.95785604 12.45405848 22.56808196 0.00301408 -0.00720844 -0.00121428
N 13.85690743 18.94310160 30.43266460 -0.00156718 0.00166997 0.00102867
N 9.61853313 12.77386327 30.51115245 -0.00303000 -0.00593827 -0.00218491
N 16.17129643 19.44182963 22.24159747 -0.00138503 -0.00447351 0.00262055
N 13.72563746 25.42601362 27.31405121 -0.00505286 0.00028784 -0.00381813
N 11.89235522 19.17314524 18.86338429 -0.00195478 -0.00017558 -0.00032550
N 24.42677736 12.91639695 2.51070599 -0.00008119 0.00014554 -0.00237205
N 18.32375670 6.54719145 10.92122561 0.00438540 -0.00392258 -0.00206622
N 20.51104197 25.26632536 5.61588968 0.00687560 0.00091621 0.00269702
N 22.65940830 6.37204404 14.49488287 0.00073208 -0.00040513 0.00499179
N 18.15253298 25.36738504 13.96192385 0.00057747 -0.00154327 -0.00327750
N 24.61027111 6.37028740 6.12541679 -0.00185696 0.00908710 -0.00537644
N 22.40059819 12.81195732 10.65612479 -0.00096212 -0.00333500 -0.00139039
N 20.16602707 6.42010181 2.30617624 0.00794125 0.00014641 -0.00036710
N 24.55989288 12.69810258 18.91679858 -0.00411670 0.00494089 -0.00283166
N 18.16566763 6.29250345 27.18290864 -0.01008131 0.00197754 0.00531309
N 20.15827245 25.54778404 22.34757390 0.00120713 -0.00156062 -0.00000210
N 22.22421210 6.43368528 30.85527090 -0.00042265 0.00583849 0.00532528
N 17.98184264 0.14828101 30.47658780 0.00170695 0.00122086 0.00599972
N 24.49138902 6.41974777 22.52910639 -0.00596007 -0.00156320 -0.00262044
N 22.53712797 12.81330986 27.24157958 -0.00446837 0.00541368 0.00167479
N 20.50423324 6.36852372 18.90225838 -0.00732946 0.00298894 -0.00448988
N 24.48880189 0.20085596 2.36154795 -0.00519900 -0.00105707 0.00567820
N 18.29170471 19.10707359 10.45512874 -0.00141038 0.00553036 0.00079175
N 20.03765666 13.10352199 5.84718585 -0.00222525 0.00211189 -0.00235461
N 22.40574614 19.12576398 14.13216031 0.00005599 0.00408150 -0.00019717
N 18.10147134 12.62944892 14.19160498 0.00161218 0.00183349 -0.00240366
N 24.82214586 19.26687900 5.61693729 0.00402607 0.00542551 0.00411078
N 22.35873609 25.41408260 10.68554041 0.00286783 0.00248621 0.00118434
N 20.42391086 18.92413126 2.29343408 -0.00036404 -0.00117032 -0.00137288
N 24.43166233 0.17907169 18.93789145 -0.00571754 -0.00363276 -0.00538733
N 17.95499622 19.06718419 27.17887905 -0.00177144 -0.00080948 0.00485102
N 20.42176909 12.39276019 22.33449957 0.00255767 0.00149440 -0.00232669
N 22.09650541 19.75908249 30.29373474 -0.00358684 -0.00784563 0.00391458
N 18.04185825 12.63198748 30.70939526 -0.00049944 0.00072486 -0.00642052
N 24.85536016 19.55739609 21.93347014 -0.00195164 0.00058292 -0.00401458
N 22.49450285 0.29254699 26.89076773 -0.00860012 -0.00336308 0.00858331
N 20.49524109 19.03523510 18.77474177 -0.00654619 -0.00714154 -0.00390065
C 7.58334928 0.20465726 4.44032242 -0.00264410 0.00876181 0.00548968
C 1.00742243 5.75537219 13.42205077 -0.00181703 0.00075876 -0.00793472
C 3.29847255 12.42487392 3.78220165 0.00206233 -0.00181450 -0.00136631
C 5.16884906 6.73998783 11.86307033 -0.00199568 -0.00583756 0.00719705
C 0.98194532 12.27597905 11.95920397 -0.00977762 0.00029110 0.00061110
C 7.39600789 6.41124416 3.48477606 -0.00086151 -0.00141836 -0.00311403
C 5.17485890 0.16983074 12.48014274 -0.00103607 0.00898143 0.00398117
C 3.23890124 6.13683207 5.00778796 0.00555977 -0.00450185 -0.00672006
C 7.37353408 0.96168640 5.53577694 -0.00136111 -0.00130430 0.00475642
C 1.33288022 4.98579546 14.53868233 -0.00227649 -0.00284664 -0.00002776
C 3.01210019 11.76221383 2.60864475 -0.00195087 -0.00344969 -0.00201493
C 5.60690634 7.36311524 10.72346282 0.00629742 -0.00133887 0.00034591
C 1.34211022 11.51038523 10.89717689 0.00306091 0.00615003 0.00914078
C 7.10757956 7.14691950 2.35255854 0.00173623 -0.00390966 0.00702980
C 5.37913153 0.89588825 13.62161549 0.00264056 0.00249746 -0.00278654
C 2.98393467 5.44647335 6.17377398 -0.00476444 -0.00266724 0.00318977
C 6.58119470 2.09886603 5.46863983 0.00321011 -0.00005894 0.00770363
C 2.38983557 4.05841237 14.28766800 0.00398112 0.00265846 -0.00076026
C 2.21008457 10.59112626 2.71843326 -0.00241045 -0.00370147 -0.00145741
C 6.45791326 8.50300602 10.75001318 0.00027485 -0.00005319 0.01070638
C 2.21183476 10.41146223 11.04200352 0.00270258 0.00386252 -0.00541277
C 6.45941198 8.40787918 2.54703709 -0.00421195 0.00450796 -0.00238672
C 6.14120551 2.01742467 13.66402086 0.00725025 0.00210035 -0.01038466
C 2.16647445 4.30743158 6.10075565 0.00595578 0.00363923 -0.00175872
C 6.09404470 2.54147343 4.25144139 0.00341039 0.00201012 0.00002572
C 2.65891333 3.57861160 13.02551861 -0.00614370 0.00407725 0.00085656
C 1.90666575 10.07595609 3.91564131 0.00231359 -0.00149938 0.00135761
C 6.65781638 9.05161561 12.04191774 0.00086150 -0.00626284 -0.00007548
C 2.47304745 9.98489780 12.37979774 0.00322353 -0.00354933 0.00642487
C 6.29832124 8.94535204 3.78132422 0.00142352 -0.00162559 -0.00160495
C 6.55092802 2.61496397 12.45046534 -0.00042257 -0.00268860 0.00196086
C 1.99924691 3.69197503 4.77988771 0.00011162 0.00171279 0.00345694
C 6.41672211 1.86256771 3.09173515 -0.00027122 -0.00118352 -0.00560632
C 2.13729430 4.20210239 11.89289777 0.00424175 -0.00276138 0.00213711
C 2.29278099 10.69405278 5.10878864 0.00225874 -0.00641112 0.00603002
C 6.29257076 8.32033278 13.18156955 0.00414901 -0.00865792 0.00354526
C 2.13627321 10.76063478 13.48753392 0.00487374 -0.00543103 0.00261677
C 6.64005710 8.25121742 4.90820765 0.00102789 -0.00275433 0.01258755
C 6.18957451 1.97785401 11.26458515 0.00841266 0.00157903 -0.00300358
C 2.50005647 4.36111292 3.62573515 -0.00856498 0.00172545 -0.00761499
C 7.10666949 0.62957795 3.19606018 -0.01629867 0.00225888 0.00021183
C 1.35508624 5.42825225 12.10455754 -0.00195313 -0.00570115 0.00622315
C 2.93594529 11.91214577 5.01034120 0.00629261 -0.01006035 -0.00395950
C 5.55580229 7.14903050 13.13807400 -0.00260173 0.00610854 -0.00084406
C 1.44584449 11.98725316 13.24789160 -0.00294250 0.00552897 -0.00102548
C 7.20524548 6.95256704 4.76538160 0.01063530 -0.00242871 0.00058661
C 5.66419992 0.69894812 11.25126551 -0.00099035 -0.00501736 -0.00254365
C 3.05319988 5.64459021 3.74596343 -0.00310068 -0.00404997 0.00016906
C 6.75065796 0.16433876 0.78892107 -0.00202898 0.00067825 -0.00394185
C 1.28933062 6.04164497 9.75058850 -0.00257837 0.00185712 0.00073536
C 2.65459948 12.50604134 7.40090782 -0.00740856 0.00266572 0.00272868
C 6.07215423 6.48482588 15.45784308 -0.00253556 0.00328919 -0.00151292
C 1.63993146 12.71672188 15.52332243 -0.00298940 0.00150076 -0.00058502
C 7.05865226 6.48082607 7.11877579 -0.00103031 0.00521509 -0.00310931
C 6.50105993 0.13451135 8.98778526 -0.00375714 0.00707927 -0.00682573
C 2.78136024 6.28105875 1.45230379 -0.00147184 0.00134506 0.00479631
C 7.10358073 11.95848171 16.76860474 -0.00144506 0.00080748 -0.00715173
C 1.26489069 7.30165799 8.90577534 -0.00038005 -0.00182382 -0.00770478
C 3.12538947 0.81939651 7.65482042 -0.00190636 0.00040565 -0.00248017
C 5.66281745 5.30056922 32.87470076 -0.00470135 0.00354330 -0.00448207
C 1.19098839 0.62297930 32.28717535 0.00368871 0.00299769 0.00147111
C 7.22909504 5.35651709 8.06257649 -0.00489458 0.00047258 0.00225100
C 5.46709124 11.73932878 8.81938173 -0.00071392 -0.00967969 0.00208202
C 2.97506747 6.92266923 16.53836174 -0.00066598 0.00174264 0.00128951
C 7.51576665 0.19647166 20.93633672 -0.00435871 -0.00257849 0.00967294
C 1.15900617 6.29649169 29.63150787 -0.00144610 -0.00346038 -0.00337067
C 3.23116253 12.66460859 20.29332143 -0.00416445 -0.00302193 0.00265116
C 5.42431335 6.87135151 28.39158776 0.00191471 0.00678977 -0.00164595
C 1.13462950 12.41321513 28.65598351 0.00122143 0.01063573 -0.00129811
C 7.59547069 6.71725387 20.05217189 -0.00271886 -0.00800672 -0.00236319
C 5.11367344 0.39064355 29.13135080 0.00771731 -0.00147419 0.00279230
C 3.35278436 6.05585842 21.33579516 -0.00284780 -0.00196535 0.00266072
C 7.17420294 0.78431231 22.10181219 0.00168207 -0.01008288 -0.00425668
C 1.46883922 5.64045718 30.80212655 -0.00267456 0.00189250 -0.00162522
C 2.85096840 12.03976503 19.11586125 0.00175068 -0.00269954 -0.00348643
C 5.74922119 7.61319662 27.27607319 0.00474672 -0.00723133 -0.00609115
C 1.46972277 11.80621237 27.49445050 -0.00351080 0.00365942 -0.00793677
C 7.29307357 7.38851613 18.90432608 0.00076313 0.00200720 -0.00001138
C 5.39082210 1.14143727 30.25013094 0.00817959 0.00260470 0.00031693
C 3.03426706 5.53954456 22.57727014 0.00185692 -0.00767975 0.00765029
C 6.49137753 2.04704615 22.11340550 0.00354374 -0.00715479 -0.00224383
C 2.17950471 4.41739229 30.69499998 -0.00099200 -0.00298622 0.00036263
C 2.11135701 10.82020681 19.16450380 -0.00028367 0.00103182 0.00606065
C 6.46693566 8.79443243 27.37797531 0.00451505 -0.01183220 0.00157159
C 2.38254749 10.71207981 27.50159870 -0.00045899 0.00519879 -0.00402581
C 6.48517611 8.58461834 18.90705090 0.00057067 -0.01112580 -0.00318914
C 6.34056315 2.19726689 30.19390503 0.00077141 0.00612376 -0.00226222
C 2.21267110 4.41391519 22.62653435 -0.00169245 -0.00144021 -0.00116863
C 6.41981340 2.68275549 20.89093252 0.00003056 -0.00377463 -0.00540781
C 2.47111889 3.94891439 29.38518107 -0.00021218 -0.00710991 0.00288607
C 2.03542884 10.16786419 20.44113266 0.00648912 -0.00278578 -0.00157401
C 6.78046915 9.32334494 28.65139671 0.00319386 0.00169089 0.00034304
C 2.52608569 10.07778103 28.73077657 -0.00834329 -0.00124156 -0.00123158
C 6.20740956 9.13041592 20.12531768 0.00200696 -0.00326599 -0.00098305
C 6.92378179 2.55385306 28.96841573 -0.00267703 -0.00335149 0.00484634
C 1.84846130 3.74395310 21.42732297 0.00223109 0.00018966 -0.00774114
C 6.94706225 2.10680551 19.68631416 -0.00203211 -0.00376381 -0.00740688
C 2.13105709 4.65013203 28.24668029 0.00363722 0.00365704 -0.00121555
C 2.35369864 10.85933778 21.60873309 -0.00161339 0.00451269 -0.00957197
C 6.46719532 8.56479895 29.80305857 0.01109841 0.00887052 -0.00409954
C 2.23207493 10.63143387 29.94993245 -0.00393827 -0.00009188 -0.00264887
C 6.45212411 8.46829201 21.31044496 -0.00894189 -0.00416594 -0.00198245
C 6.49555341 1.90758493 27.82179690 0.00204928 0.00424626 0.00027989
C 2.22990822 4.27190801 20.12269650 -0.00055412 0.00232268 0.00396675
C 7.41649757 0.82506587 19.72531682 0.00733016 0.00173849 0.00016325
C 1.44705127 5.87659178 28.27791969 0.00336884 0.00247048 -0.00133667
C 2.87966354 12.13281157 21.55686405 -0.00270984 0.00204667 0.00322013
C 5.73440176 7.31898881 29.65738624 0.00111351 -0.00350856 -0.00008879
C 1.52498493 11.88893407 29.92331893 0.00458271 -0.00172185 -0.00070580
C 7.20195496 7.27536252 21.24855878 0.00139366 0.00028732 0.00447904
C 5.66790974 0.76114986 27.88824231 -0.00712395 0.00582058 -0.00693434
C 2.94036006 5.47590756 20.09415864 0.00597793 0.00197017 0.00064299
C 7.14510256 0.33336180 17.45318297 -0.01189379 -0.00585386 0.01395134
C 1.75668927 6.64370689 25.96550994 0.00823191 0.00316647 0.00890920
C 2.88328734 12.72450843 23.92117348 -0.00297850 0.00147376 -0.00157906
C 5.94347084 6.50955051 32.05737464 -0.00310590 0.00032220 0.00002191
C 1.60253136 12.66475484 32.22687317 0.00118325 -0.00287696 -0.00986980
C 7.09447846 6.66131747 23.67652941 0.00009785 -0.00595506 0.00155026
C 5.94329102 0.16470632 25.53853861 0.00885397 -0.00736617 0.00363660
C 2.82323454 5.89683486 17.67950599 -0.00251477 0.00210921 -0.00473987
C 6.99625224 11.65437864 0.56020469 -0.00155121 -0.00115976 -0.00058458
C 1.49773151 7.89910887 25.15523382 0.00351631 0.00592804 0.00979889
C 3.06044614 1.26522939 23.77197028 0.00459635 -0.00980274 0.00601109
C 5.95234573 5.31925838 16.35012638 0.00324981 0.00197295 0.00509365
C 1.18274645 0.94409410 15.44766382 -0.00813482 -0.00029085 0.00194658
C 7.08292110 5.42151250 24.59345182 -0.00363658 -0.00484215 0.00044312
C 5.73364616 11.73562232 25.02571869 0.00071879 0.00090248 0.01253827