1920
Time=84000.00000008 pbc="T T T" Lattice="25.52089527 0.00000000 0.00000000 0.00000000 25.83836871 0.00000000 0.00000000 0.00000000 32.98443561" energy=-12249.68216741 virial="-70.77284004 -1.90289203 13.55090367 -1.90289203 -95.55413501 13.54733295 13.55090367 13.54733295 -14.20499958" stress="-0.00124129 -0.00010797 0.00069021 -0.00010797 -0.00225815 0.00060168 0.00069021 0.00060168 0.00145862" Properties=species:S:1:pos:R:3:vel:R:3
O 6.10436736 2.90237765 7.21480805 0.00428053 0.00166343 0.00557586
O 2.73514614 4.05583884 14.81674122 -0.00167138 -0.00163470 -0.00300902
O 1.55647196 10.08557774 1.40251241 -0.00827448 -0.00526299 0.00251095
O 6.71873988 9.03334548 9.42990980 0.00566162 -0.00257375 -0.00099938
O 3.02911783 10.30138036 9.42563141 -0.00560422 0.00450994 -0.00204747
O 6.65993517 9.21043899 0.87602341 0.00037221 0.00085544 -0.00652290
O 6.08783841 2.75052985 15.64299208 -0.00614793 -0.00570222 0.00110058
O 2.25524424 3.56044503 6.89320861 -0.00392250 0.00492072 -0.00396692
O 6.18106277 1.19246325 17.72430462 -0.00251273 0.00235888 0.00019545
O 2.32281273 5.46608095 8.61675345 0.00007323 0.00246715 0.00167868
O 2.25810454 12.10563667 7.47504636 0.00131477 0.00519913 -0.00156286
O 6.20504381 7.52223487 32.10697091 -0.00534989 -0.00379133 0.00149941
O 1.77331648 11.73546579 32.33902652 -0.00220877 0.00193569 0.00068949
O 6.04643485 8.07537002 7.26828462 -0.00371334 -0.00052030 -0.00290097
O 6.32987830 1.27446374 9.37114121 -0.00098485 0.00963344 0.00005543
O 2.08559340 5.46798105 16.99883817 0.00389734 0.00231858 0.00133376
O 6.50000289 2.49514350 24.03040556 -0.00161457 0.00059399 0.00132292
O 2.70595633 3.31424655 31.67398749 -0.00342179 -0.00275131 0.00398908
O 1.37929577 10.39057778 17.72173479 0.00049991 -0.00009229 -0.00202433
O 6.78530877 9.30142851 25.94881966 -0.00344787 -0.00480984 0.00181218
O 2.66563487 10.17110531 26.22955329 0.00131137 -0.00044887 0.00667249
O 5.85413258 9.58088954 17.78689373 0.00164261 0.00000908 0.00182134
O 6.83397951 2.54179770 31.85956776 -0.00012711 0.00393152 -0.00451825
O 2.04674200 3.44368530 23.13789641 -0.00627361 0.00327426 -0.00225860
O 6.27191336 1.20868203 1.00230708 -0.00566481 0.00696496 0.00193389
O 1.88858938 4.98135377 25.50397216 0.00083602 -0.00605347 -0.00128570
O 2.53113167 11.50164298 24.05597308 -0.00615265 -0.00344256 -0.00463039
O 6.03982231 7.93603756 15.75225719 -0.00333241 0.00905924 -0.00312667
O 2.15155009 11.53073581 15.57578677 0.00151100 0.00070904 -0.00295860
O 6.36646470 7.83289590 23.76091751 -0.00243108 0.00354623 -0.00486638
O 6.78170466 0.80307464 25.87000773 0.00076333 0.00446742 -0.00387724
O 2.25366008 5.12410396 0.72994137 0.00196807 -0.00105602 0.00185102
O 6.13817088 15.61344709 7.18271515 0.00321416 -0.00092645 -0.00036715
O 2.24860921 16.72321731 15.30166861 0.00496846 -0.00451370 -0.00046747
O 1.50404211 22.83765351 1.82517706 0.00141886 -0.00555010 0.00025563
O 7.03812524 22.15807115 9.52380160 -0.00132685 0.00100068 0.00711529
O 2.64985581 22.94901446 9.95148390 0.00590876 -0.00615191 0.00372741
O 5.99172132 21.83297120 1.37210478 0.00115288 0.00378390 0.00133399
O 6.65694805 15.92195937 15.02109168 -0.00147564 0.00019340 -0.00289183
O 1.59120611 16.85730932 6.85958200 0.00010470 0.00099130 -0.00523073
O 6.45190581 14.51300285 17.17865952 -0.00504645 0.00339665 -0.00283048
O 1.83022969 17.94139325 9.07108231 0.00283957 -0.00452314 0.01134204
O 2.63836782 24.64785857 7.89586627 0.00401188 0.00873640 -0.00419109
O 6.48571771 20.61484668 31.91378147 0.00099363 -0.00850565 -0.00438421
O 1.95045780 24.19535926 32.48803774 0.00310949 0.00147995 0.00527740
O 6.62156915 20.57930982 7.51068036 -0.00082141 0.00490637 0.00594920
O 6.45775986 14.00341357 9.05293456 -0.00073249 0.00337602 0.00357939
O 2.10618669 18.45274436 17.27296176 0.00559885 0.00208467 -0.00348493
O 6.07773596 15.41685440 23.50682282 -0.00325119 -0.00118627 0.00821954
O 2.79355824 16.90496188 31.91325103 0.00265706 0.00358291 -0.00271281
O 1.55588247 23.24244016 17.97300820 -0.00330673 0.00180949 -0.00416987
O 6.77304467 21.93058384 25.82843748 0.00482846 -0.00383235 -0.00057906
O 2.13683262 23.18389381 26.11337714 -0.00210380 -0.00221397 0.00671425
O 6.23334206 22.15691901 17.85076827 -0.00247780 -0.00302118 -0.00388439
O 7.02884952 15.42035669 31.83260360 -0.00864901 0.00597381 -0.00032839
O 1.70501342 16.68074454 23.43114305 0.00479317 0.00126173 -0.00123682
O 6.27455894 14.16409415 0.87685007 0.00453254 0.00556462 0.00409104
O 2.01868531 18.35112991 25.43066563 0.00383019 -0.00097964 0.00345733
O 1.79327163 24.79287195 24.13039374 0.00034236 0.01320782 -0.00072221
O 6.47708866 20.78669313 15.59982845 -0.00028361 -0.00170492 0.00050222
O 2.20289484 24.76281542 15.97153445 0.00633309 0.00359628 -0.00003916
O 5.99961730 20.26280859 23.99371064 0.00014139 0.00648613 -0.00291501
O 6.77611442 14.06462102 25.56735064 0.00340468 0.00287954 -0.00379921
O 2.02729445 18.35332992 1.00480294 -0.00159380 -0.00413712 -0.00741355
O 14.88788990 2.96556487 7.22557974 0.00195030 0.00360072 0.00082674
O 11.03395117 3.69406951 15.33410989 -0.00323680 0.00262128 -0.00234328
O 10.18630994 10.50640743 1.41540096 -0.00011164 -0.00288333 0.00370710
O 15.69022827 8.84320033 9.08885842 -0.00303923 0.00741804 -0.00665342
O 10.67513661 10.01292678 9.88974950 0.00114305 0.00103330 -0.00322939
O 14.33125873 9.21699092 0.91280258 0.00198597 -0.00504522 -0.00004274
O 15.58591980 2.53165354 15.30877535 -0.00472099 0.00230607 -0.00573294
O 9.77674333 3.74691538 6.66700808 -0.00615759 -0.00196142 0.00346203
O 14.67296737 1.08245081 17.30884198 -0.00523223 0.00702475 -0.00661989
O 10.04198125 5.01252186 8.98772797 -0.00029298 -0.00027888 0.00136494
O 10.34223188 11.52319433 7.67783346 0.00187446 0.00639137 0.00000114
O 14.73590807 7.83545790 31.58055641 -0.00713563 -0.00149956 0.00293589
O 10.53267748 12.10764402 32.28684337 0.00666630 0.00116779 0.00916922
O 14.55038357 7.98076952 7.03910555 -0.00563347 -0.00729020 -0.00178979
O 14.99080614 1.33859330 9.21077256 0.00145222 0.00079776 -0.00097568
O 10.24270973 5.17440615 17.26135707 0.00308707 0.00219124 0.00109309
O 14.04216953 2.38267989 23.53161323 0.00057618 0.00198096 -0.00213907
O 10.93669406 4.01568409 31.69503121 0.00070024 -0.00305180 -0.00035205
O 9.81399027 9.71339351 18.29427356 0.00153040 0.00918056 -0.00404630
O 15.06646721 9.07891625 25.43236190 0.00221439 0.00207561 0.00062299
O 10.84683755 9.48756537 26.43287746 0.00228752 -0.00163003 -0.00350004
O 14.79116362 9.10558198 17.32529363 -0.00366198 0.00059501 0.00450763
O 15.37517359 2.87628566 31.84811091 0.00447577 0.00764199 -0.00106318
O 9.83834498 3.48542668 23.19735511 0.00459049 -0.00067552 -0.00266374
O 14.96944416 1.25916459 0.86810692 -0.00298600 -0.00381398 -0.00130848
O 10.14351751 4.84741608 25.38545924 -0.00162157 0.00290562 -0.00424444
O 11.05423235 12.00399429 24.20236138 0.00529922 0.00278136 0.00022184
O 15.13819177 7.74915608 15.18771032 -0.00375961 -0.00293433 0.00432421
O 10.07333295 11.41924589 16.10747326 -0.00080991 -0.00286875 -0.00039086
O 14.41844879 7.47036605 23.45934451 -0.00109425 0.00591338 0.00203460
O 14.47024916 1.33892050 25.79730644 0.00009913 0.00265564 0.00126552
O 10.65242620 5.41304651 0.80080808 0.00039319 0.00240690 -0.00149465
O 13.88348706 14.85548884 7.02131475 -0.00159097 -0.00013671 0.00124799
O 10.76062256 16.24533689 15.33073702 -0.00516632 0.00413271 -0.00302075
O 9.96008361 23.25071617 1.04780874 -0.00369466 -0.00258683 -0.00120211
O 15.24988898 22.02083093 9.50334729 0.01027796 0.00460932 -0.00081259
O 11.31507160 22.99945247 9.57590211 0.00063340 0.00886266 0.00010374
O 14.21954867 21.85231759 1.22991953 0.00087797 0.00216112 -0.00664000
O 15.05968250 15.68685037 15.24961595 -0.00396577 0.00317556 0.00025829
O 10.59957968 16.70240476 7.18753422 -0.00136981 -0.00054524 0.00520246
O 14.54531770 14.12446100 17.29306516 0.00484901 0.00221305 0.00216426
O 10.98770517 18.18375565 9.32020062 -0.00462580 0.00370972 0.00060792
O 10.91531612 24.44616044 7.33868678 0.00539777 0.00372071 0.00017917
O 15.03272078 20.58251470 32.18603898 0.00582056 -0.00000071 0.00883375
O 10.86817780 24.85487413 32.19069587 -0.00365771 0.00022908 0.00447852
O 14.88527908 20.47985411 7.36100881 0.00111619 0.00512097 0.00400004
O 14.85793894 13.92248029 9.08907822 0.00048050 0.00424816 -0.00350421
O 10.25714188 17.76227719 17.26063123 -0.00289515 -0.00514382 -0.00347486
O 14.45315073 15.79120214 23.34977506 0.00302983 -0.00249590 -0.00648550
O 11.36468611 17.19621762 31.38639566 -0.00598103 -0.00632197 0.00372775
O 10.37493643 22.42620440 18.04356513 0.00096748 -0.00303208 -0.00618432
O 15.35633657 22.18925871 25.97016664 0.00362293 -0.00036783 0.00207346
O 10.72256594 22.77155091 26.10741012 0.00115769 -0.00358724 0.00101930
O 14.03281533 22.13221067 17.77609652 0.00220412 -0.00113309 0.00207066
O 15.44187695 15.81262681 31.68903546 -0.00329729 0.00424942 0.00354338
O 9.87425396 16.92368183 23.55624598 -0.00244679 0.00264552 0.00626412
O 15.16399028 14.38582771 0.92217851 -0.00293252 0.00727801 0.00115934
O 10.84967992 18.59008398 25.43995265 0.01118255 -0.00159840 -0.00591936
O 10.80036780 24.40488588 24.13433783 0.00551758 0.00241214 -0.00456466
O 15.03005788 20.67476884 15.85895231 -0.00073487 0.00292512 -0.00376283
O 10.28302211 24.20446219 15.97476061 -0.00360649 0.00665578 -0.00689089
O 14.96575731 20.65497854 23.85501724 -0.00490875 0.00013025 -0.00156887
O 14.81691013 14.31347965 25.41831432 0.00023141 -0.00481798 -0.00192070
O 10.78111333 18.07162815 0.91141251 0.00491061 0.00318031 -0.00064062
O 22.69373380 2.79267006 7.00291427 -0.00075437 0.00144723 0.00035006
O 19.88173674 3.85968230 14.97009735 -0.00549799 0.00315415 -0.00370322
O 18.44316582 9.98141780 1.52781916 0.00403400 -0.00337964 -0.00115494
O 24.12306585 8.96441050 9.21583071 -0.00022990 0.00168710 0.00339648
O 20.00178405 10.35685453 9.60099346 0.00071044 0.00026624 0.00124814
O 22.82561418 9.28053244 1.03719756 0.00138499 -0.00460447 0.00174678
O 24.26105550 2.62893373 15.30703979 0.00178803 0.00278397 -0.00332398
O 18.83765321 3.56306750 6.64394206 0.00143749 -0.00113243 0.01011242
O 23.96756986 1.40126380 17.50465335 -0.01008158 0.00121997 0.00118708
O 18.86666091 5.37115461 8.72305390 0.00454237 0.00298272 0.00218903
O 19.25276305 11.94577771 7.55825093 -0.00229548 -0.00178993 0.00093130
O 23.26033361 8.25946858 31.74847536 -0.00115204 0.00438424 -0.00350225
O 18.87889116 11.61637594 32.43646093 0.00117930 -0.00626263 0.00553271
O 23.23446632 7.78695884 7.16192375 0.00278722 -0.00485578 -0.00211284
O 23.34546733 1.34560912 9.18150451 -0.00221893 0.00582601 -0.00307995
O 19.61162223 5.23571601 17.20547718 0.00278854 -0.00454963 -0.00467411
O 22.67147925 2.94280775 23.69446919 0.00250174 -0.00022059 0.00172569
O 19.19224061 3.75984647 31.57066758 0.00403989 0.00170444 0.00024097
O 18.38712665 10.08025215 17.90346210 0.00430672 0.00417273 -0.00413312
O 23.93661664 9.09771238 25.45592370 0.00015074 -0.00320506 -0.00071226
O 19.55434011 9.78510214 26.22085295 -0.00073296 0.00038027 0.00334027
O 22.90023873 9.31383790 17.30773595 0.00067585 -0.00401849 0.00173284
O 23.54694473 3.11545458 32.03039791 0.00480458 0.00122908 0.00490707
O 18.45555107 3.27075124 23.16864170 0.00006815 -0.00170330 0.00172268
O 23.72797620 1.15626096 0.87824426 -0.00807444 -0.00755389 -0.00059989
O 18.40637811 4.94868200 25.22259102 0.00260141 0.01002563 0.00515856
O 19.62688712 11.43449406 24.11286872 0.00286832 -0.00479343 0.00324195
O 23.48966761 7.72198977 15.37984568 0.00350754 -0.00099513 -0.00332625
O 19.21116651 11.52357371 15.77617350 -0.00150253 0.00392855 0.00707714
O 23.02835311 7.78804151 23.36223308 -0.00027291 0.00202235 0.00568221
O 23.10055820 1.58105632 25.79895657 -0.00446257 0.00094590 0.00157617
O 19.07162191 5.34420596 0.47287441 -0.00086343 0.00250011 -0.00793973
O 23.36443549 15.79560130 6.70563454 -0.00453486 0.00369951 -0.00283456
O 19.85956752 16.16620140 14.80784595 -0.00178420 0.00281748 0.00275888
O 18.76251344 23.14912998 1.54259075 -0.00351781 0.00175517 0.00087708
O 24.31574513 22.20296988 9.52686250 0.00388314 -0.00503707 0.00171137
O 19.53386300 23.05320830 9.70736105 -0.00136989 -0.00051971 0.00272823
O 23.09046724 22.02118672 1.46328507 0.00243400 -0.00037728 -0.00281097
O 24.09474168 15.68544257 14.96463674 0.00036782 -0.00025780 -0.00019510
O 18.37473589 16.59492027 6.63338006 -0.00316960 -0.00221179 0.00150778
O 23.20981141 14.31314511 17.10210211 -0.00097150 -0.00403994 -0.00866787
O 18.73729847 18.04098991 8.76387578 -0.00273211 -0.00244995 -0.00235567
O 19.11642633 24.67756926 7.72071735 0.00304159 0.00363381 0.00122621
O 23.47771802 20.72477698 32.29820332 0.00336547 -0.00157667 -0.00492175
O 19.18135060 24.45666802 32.21984431 0.00603395 -0.00105536 -0.00192515
O 23.32474538 20.61989876 7.58456175 -0.00123851 0.00194359 -0.00837642
O 23.27562727 14.27626472 8.78518213 0.00202020 -0.00430626 0.00005546
O 19.37228349 17.86998603 17.14957293 0.00679823 0.00039191 0.00193004
O 22.95007962 15.47923808 23.50951017 0.00022210 -0.00282363 -0.00316537
O 19.43136813 16.72034832 31.69636175 -0.00713503 0.00192518 0.00294877
O 19.37978498 23.14423013 17.88456288 0.00136376 0.00553533 -0.00268448
O 23.66936619 22.02110101 25.98043659 -0.00802875 0.00078689 0.00322678
O 19.58700036 23.14120242 25.97379287 0.00225389 0.00029727 -0.00312314
O 23.11429747 22.18982950 17.85481907 -0.00187628 -0.00299498 -0.00762174
O 23.66176431 15.43711696 31.66865903 0.00270433 -0.00293782 0.00265139
O 18.96230447 16.82618847 23.42480523 0.00209589 -0.00241198 0.00255919
O 23.30631783 14.04705800 0.68307360 -0.00049824 -0.00281866 -0.00782741
O 19.07405214 18.14973362 25.70051401 0.00036032 0.00080079 0.00262108
O 18.74694353 24.75947092 24.05491006 0.00380772 0.00348855 0.00096603
O 23.07390172 20.81844233 15.67485035 0.00116308 0.00165449 -0.00854836
O 19.47240804 24.86549106 15.70599361 0.00187527 -0.00090303 -0.00042015
O 23.33750772 20.38897751 24.01463937 -0.00088464 0.00046868 -0.00136247
O 23.81334413 14.05326228 25.41139295 -0.00228770 -0.00121372 -0.00245237
O 19.00340987 18.42461697 0.72751301 -0.00534544 0.00246472 -0.00529885
N 7.46101704 13.05902091 2.40540270 0.00371259 -0.00388279 -0.00252347
N 0.87885828 6.28787965 10.21348064 -0.00057555 -0.00150569 -0.00493014
N 3.32955105 0.10084294 6.13812658 0.00454904 0.00267398 -0.00049884
N 5.09978985 6.62700464 14.23852707 0.00096088 -0.00407505 0.00266849
N 1.25587466 0.11579682 14.30720069 -0.00887949 -0.00528669 -0.00037756
N 7.44250316 6.90959270 5.84663634 -0.00223537 0.00207106 0.00269045
N 4.98682684 13.16177466 10.56683126 -0.00161153 -0.00410069 0.00143678
N 3.39415382 6.35818088 2.25363904 -0.00248629 -0.00518666 0.00145842
N 7.32688509 13.09086031 18.72308560 0.00273942 -0.00113792 -0.00405839
N 0.81682072 6.04359330 27.21429066 0.00233474 0.00027163 -0.00132993
N 3.42574059 25.58158226 22.56697381 -0.00125614 -0.00517069 0.00208302
N 5.28050754 6.30827050 30.38460267 -0.00362560 0.00343749 -0.00023859
N 1.23353192 25.74719226 30.87827145 0.00433649 0.00301181 -0.00223555
N 7.22956350 6.49488601 22.07163265 0.00232277 -0.00467912 -0.00028105
N 5.17266954 13.26367041 27.12284741 -0.00416908 0.00097822 -0.00073665
N 3.30224020 6.49511125 18.68236703 -0.00967389 -0.00314018 -0.00356697
N 7.31716652 0.02170094 2.62521961 -0.00007512 0.00455688 0.00509673
N 1.04702123 19.47868881 10.63211354 0.00196280 0.00634369 -0.00226203
N 3.68206605 12.71526908 5.73763466 0.00592574 0.00363541 -0.00180237
N 5.36080989 19.39861259 14.10590748 0.00356149 -0.00424508 -0.00589032
N 0.90526971 12.65527955 13.92131152 -0.00218067 0.00799576 -0.00035601
N 7.79071622 19.40447304 5.96155956 0.00086556 -0.00061580 0.00302329
N 5.12600845 0.01542676 10.87752445 0.00468823 0.00003587 0.00672680
N 3.51757775 19.32744305 2.50342676 -0.00227559 0.00076139 -0.00379645
N 7.49735114 0.10887560 19.18384836 -0.00652252 0.00565980 0.00017698
N 0.83438674 19.16153127 27.26868394 0.00154251 -0.00003776 -0.00129695
N 3.55720370 12.64508341 22.31062077 0.00785132 0.00750181 0.00248938
N 5.38021431 19.20612332 30.47225837 0.00065265 -0.00393617 -0.00698884
N 0.82751671 12.96837140 30.61003181 -0.00621191 0.00282598 -0.00325711
N 7.24677083 19.17715753 22.36745383 -0.00731477 -0.00094355 0.00173343
N 5.30886429 25.68538812 27.36694196 -0.00956147 0.00575507 -0.00417182
N 3.34312953 19.40520737 18.83083930 0.00011629 0.00164688 -0.00092621
N 16.16820045 13.07537075 2.48198714 -0.00021386 -0.00224359 0.00296118
N 9.35103347 6.29290718 10.80552823 -0.00265832 0.00562966 0.00020022
N 12.18151837 25.47585750 5.66752446 0.00803381 0.00393265 0.00118542
N 13.60312696 6.78612189 13.78026348 -0.00343578 -0.00560513 -0.00290701
N 9.71944086 25.69124294 14.23894122 0.00139829 -0.00464121 -0.00630223
N 16.05089894 6.93039977 5.55564772 -0.00026717 -0.00285897 0.00265843
N 13.92108736 12.65750822 10.75665549 -0.00309849 -0.00009447 -0.00472772
N 12.00195515 6.30672972 2.38006947 0.00472784 0.00266319 -0.00217962
N 15.79413257 12.86187365 18.85793433 0.00305518 -0.00336542 0.00513325
N 9.37294831 6.40337810 27.00269837 -0.00638274 -0.00315689 0.00450018
N 11.47670912 25.72804501 22.36583823 -0.00188381 0.00181691 0.00422007
N 13.67960849 6.39000571 30.11138092 -0.00370673 -0.00520962 0.00864246
N 9.41276095 25.68986178 30.61754792 0.00000027 0.00217017 -0.00196655
N 15.78815232 6.32507170 22.01476533 0.00512728 -0.00625664 0.00653041
N 13.43933090 13.44393244 27.01168360 0.00574973 0.00886477 0.00057925
N 11.74499229 6.11743100 18.69442685 -0.00705607 -0.00309222 0.00355683
N 16.12555906 0.26688537 2.57780284 -0.00117151 -0.00006648 0.00493855
N 9.56408111 19.30314333 10.82990629 -0.00096385 0.00401343 -0.01077922
N 11.76285409 12.65438915 6.20277560 0.00592606 -0.00557493 -0.00254721
N 13.98731878 19.38641751 14.22448769 -0.00275548 0.00843069 -0.00625579
N 9.56337265 13.03618331 14.49018114 0.00478738 -0.00176744 -0.00207866
N 16.24680298 19.45618468 5.78911501 -0.00115360 0.00446953 -0.00350374
N 13.97281765 25.83764016 10.72119535 -0.00009731 -0.00715996 -0.00260165
N 11.87176300 19.38978539 2.48585925 -0.00531653 0.00050329 -0.00723951
N 15.91958909 0.00030069 18.93546187 -0.00156462 0.00274177 0.00382327
N 9.58617172 19.82139816 26.87705922 0.00265983 -0.00450398 0.00548653
N 11.58013813 13.05448966 22.24125111 -0.00135845 -0.00381140 0.00127728
N 13.71740931 19.44090993 30.60268359 -0.00366014 -0.00239562 0.00529713
N 9.52764469 13.14777691 30.57335925 0.00793318 0.00085336 0.00400252
N 16.17797012 19.68676879 22.21895866 -0.00831169 -0.00016333 0.00422725
N 13.60683025 0.03988279 27.42028653 0.00222962 -0.00859645 -0.00106075
N 11.73023215 18.77693006 18.70796631 -0.00198779 -0.00299675 0.00022722
N 24.51451820 12.89591522 2.27073070 0.00412742 -0.00398808 -0.00332229
N 18.03860783 6.60098995 10.52595681 -0.00346425 -0.00247733 -0.00659978
N 20.02383157 0.16040631 6.05564378 -0.00179131 -0.00276182 0.00048727
N 22.20265373 6.61844997 13.74695458 0.00624062 -0.00554673 0.00424124
N 18.48259124 0.40383778 14.05312051 0.00536773 0.00925998 0.00355160
N 24.39474218 6.53937589 5.58169816 -0.00510623 0.00063396 -0.00250223
N 22.36149004 12.89793031 10.52159722 0.00389930 -0.00231483 -0.00039074
N 20.16211841 6.57605110 1.96403278 0.00181773 0.00039612 -0.00136372
N 24.44000840 13.23949911 18.67378110 0.00538263 -0.00113476 -0.00086129
N 17.84732660 6.45531532 26.95712419 0.00677672 -0.01034529 0.00721386
N 20.14866211 0.05796721 22.74231791 0.00356708 0.00554360 0.00093211
N 22.13624124 6.93639396 30.30624981 -0.00058939 0.00184484 0.00167888
N 17.93794295 25.52738726 30.63220162 -0.00245538 0.00041430 0.00094794
N 24.34733337 6.71238422 21.89560884 0.00486086 0.00461425 0.00141440
N 22.43817826 12.96763538 26.93809097 0.00510913 0.00108423 -0.00089446
N 20.51148531 6.26512970 19.03415179 0.00107372 -0.00258060 -0.00425399
N 24.85008984 0.09490608 2.63439672 -0.00285214 -0.00422513 0.00504565
N 18.30566001 19.34365608 10.60150768 0.00201912 -0.00226948 -0.00205878
N 20.44316802 12.84759168 5.89123875 0.00524726 -0.00183367 -0.00265780
N 22.24244270 19.49518570 13.89471126 -0.00442546 -0.00279455 0.00400943
N 17.82366471 12.41748881 14.14002956 -0.00418013 0.00643061 0.00097921
N 24.54866145 19.27077097 6.12130410 -0.00212066 0.00570196 -0.00469320
N 22.27298000 0.26758418 10.78687592 0.00001060 0.00147745 0.00450168
N 20.06391155 19.46460943 2.45399961 0.00499967 0.00303963 0.00264529
N 24.70398284 0.19539684 19.38280461 0.00147765 0.00346196 -0.00742691
N 17.69917449 19.14840412 27.13543086 -0.00148764 0.00404806 -0.00124176
N 20.01889141 12.89741113 22.37733339 -0.00012669 -0.00816867 0.00716858
N 22.22589392 19.61963415 30.79931980 -0.00560447 -0.00044066 0.00132504
N 17.77517863 12.61794090 30.67336212 0.00357557 -0.00080711 0.00196200
N 24.51116373 19.31643216 22.42409224 -0.00024093 -0.00367980 0.00148740
N 22.38767577 0.18940100 27.42935152 -0.00299738 -0.00219070 0.00438796
N 20.07489361 19.36588850 18.71090958 -0.00220381 -0.00295786 -0.00601439
C 7.70487704 0.48537648 4.92674011 -0.00006923 0.00335358 -0.00010381
C 0.73100031 5.97716972 12.61066190 0.00408524 0.00262701 -0.00460185
C 3.51687058 12.33059259 3.39230583 0.00082400 0.00375036 -0.00265016
C 5.25588660 6.72463380 11.81815995 -0.00359289 -0.00061285 0.00244755
C 1.07311356 12.52660142 11.58002141 -0.00879502 0.00305569 -0.00100861
C 7.80140392 6.97114089 3.45882843 0.00563520 0.00281674 0.00184325
C 5.31506541 0.17269804 13.19870232 0.00564598 -0.00856138 0.00544828
C 3.31414951 6.21622622 4.65803823 0.00367508 -0.00046511 0.00393390
C 7.35996298 1.14040259 6.11432033 0.00453967 0.00468836 -0.00176899
C 1.17968576 5.46698976 13.76857435 0.00293673 0.00265866 0.00150651
C 3.06597931 11.65466980 2.34781826 0.00087057 -0.00029202 -0.00039786
C 5.67342580 7.25648775 10.60507561 0.00216315 0.00038353 0.00207024
C 1.56191526 11.83823012 10.47746252 0.00291542 0.00208820 -0.00681425
C 7.60056754 7.52094159 2.20722114 0.00183893 -0.00575575 0.00364723
C 5.50268755 0.73369809 14.44002170 -0.00205825 0.00128504 0.00155255
C 3.11445272 5.50995450 5.78859266 0.00526629 0.00181045 -0.00429553
C 6.52779901 2.28477834 6.10242232 -0.00418974 0.00124864 -0.00818422
C 2.06175440 4.36591373 13.71592741 -0.00476268 0.00904684 0.00018042
C 2.22178554 10.54999452 2.51333339 -0.00574199 -0.00836431 0.00214002
C 6.32608594 8.49917017 10.54273334 -0.00466370 -0.00436928 0.00313179
C 2.35633731 10.70164241 10.56041939 -0.00202984 -0.00215051 0.00270957
C 6.87092349 8.69630896 2.07367489 0.00213334 -0.00290073 -0.00245541
C 5.96420847 2.03553530 14.47298596 0.00290446 -0.00247783 -0.00227395
C 2.41241294 4.29793569 5.76071154 -0.00809617 -0.00115930 0.00138550
C 6.13618075 2.76842535 4.82965877 -0.00095880 -0.00262387 -0.00414985
C 2.44148689 3.71175268 12.51224963 0.00141086 0.00013000 -0.00144233
C 2.00934297 10.04602016 3.82221592 -0.00210808 0.00090287 -0.00885738
C 6.42408282 9.14774638 11.75735550 0.00883618 -0.00070628 0.00601853
C 2.44750472 10.06601966 11.80629812 -0.00363053 -0.00179503 0.00246386
C 6.41252809 9.31406552 3.25838209 0.00138520 0.00643341 0.00565785
C 6.37430550 2.68557107 13.24259975 -0.01154217 -0.00352744 -0.00047773
C 1.92887501 3.88619657 4.55766137 -0.00328006 0.00218938 -0.00407480
C 6.49903667 2.11427166 3.67659957 -0.00615195 -0.00496459 0.00587439
C 2.06019573 4.38115739 11.34228720 -0.00104156 0.00033184 -0.00344693
C 2.61351914 10.67034101 4.87110976 0.00197865 -0.00676232 -0.00107476
C 6.12301021 8.59723917 13.00993963 -0.00611475 0.00084842 -0.00325021
C 1.78133730 10.66460865 12.88916847 0.00267655 0.00010884 -0.00374111
C 6.61969666 8.91239166 4.54320540 0.00073602 -0.00233572 0.00145088
C 6.15089040 2.05116654 11.99456157 -0.00009248 0.00251827 -0.00336928
C 2.28536875 4.50595909 3.41200761 -0.00308270 -0.00282731 -0.00098104
C 7.14957306 0.87836087 3.70975936 0.01061230 -0.00061356 0.00195090
C 1.25237061 5.55996925 11.40703730 -0.00935551 -0.00363871 0.00588593
C 3.27471295 11.90683350 4.68342615 0.00394050 0.00251523 -0.00147286
C 5.50866040 7.29487811 13.03822572 0.00032403 -0.00095529 0.00343879
C 1.18813469 11.89273036 12.78239463 -0.00945192 0.00005340 0.00024726
C 7.28933390 7.64718235 4.67613277 -0.00127602 0.00800705 0.00210168
C 5.58835871 0.72073786 11.97009117 -0.00434204 0.00332116 0.00919713
C 3.02393048 5.69453516 3.38675144 -0.00703230 0.00383303 -0.00217337
C 6.84826492 0.15989543 1.36161170 -0.00690028 -0.00807547 0.00324203
C 1.67052208 6.39268871 9.10464212 0.00257904 0.00454591 0.00633339
C 3.07349749 12.85650304 6.95844905 0.00409871 -0.00290792 0.00275890
C 5.61473747 6.81001732 15.47578361 0.00595130 -0.00103106 0.00264306
C 1.43994099 12.48613816 15.19268219 -0.00016011 0.00185435 0.00313624
C 6.71289575 7.05582398 6.99102629 0.00005820 -0.00503696 0.00348754
C 5.82686420 0.20200812 9.70307579 0.00290923 0.00440313 -0.00673769
C 2.86028963 6.17212160 1.04842827 -0.00186604 0.00024144 -0.00479650
C 6.84428393 12.31214433 16.49280821 0.00495716 -0.00271185 -0.00234684
C 1.69535883 7.72965403 8.42857595 -0.00213948 0.00212819 -0.00007770
C 3.01874431 1.17810775 8.21566492 -0.00152036 -0.00385522 0.00117731
C 5.69533697 5.28178345 32.60090805 -0.00065552 -0.00058629 0.00015037
C 1.87940427 0.63458628 0.11024371 -0.00375861 -0.00962853 0.00224627
C 6.76170499 5.84809647 7.91349249 0.00654560 0.00323662 0.00191417
C 5.66188083 11.78128826 8.69058123 0.00422138 0.00001811 -0.00016461
C 2.74937165 7.74142496 16.65354868 -0.00860151 -0.00045863 0.00472518
C 7.75939507 0.24501382 21.48617211 -0.00717941 -0.00873892 -0.00051544
C 0.91677469 5.72948862 29.63778209 0.00698184 0.00217875 0.00092670
C 3.37091552 12.49469375 19.85658183 0.00808699 -0.00246656 -0.00295706
C 5.04403155 6.86852762 28.10474545 -0.00795684 -0.00320097 -0.00614805
C 0.93870246 12.72759272 28.26168580 0.00061045 0.00486265 -0.00303736
C 7.41517308 6.90686862 19.72703897 0.00114594 0.00344201 0.00241966
C 5.15622903 0.02785026 29.74389056 0.01127194 -0.00797942 -0.00549748
C 3.15198964 6.21847616 21.04648487 0.00524933 -0.00258729 0.00648569
C 7.52245702 0.77333146 22.74342955 0.00206048 -0.00240085 0.00108715
C 1.40580467 5.03301519 30.73176519 0.00233256 0.00650986 -0.00206096
C 2.83838797 11.90707007 18.73306103 -0.00438379 -0.00359662 0.00434020
C 5.37543772 7.67384923 26.97016739 -0.01250188 0.00552149 0.00750358
C 1.47122736 12.02941634 27.17433936 0.00183272 0.00161710 0.00419966
C 7.23885869 7.74644532 18.67397447 -0.00465048 0.01377682 0.00439042
C 5.55124628 0.72334313 30.86189475 0.00838955 0.00664533 0.00250192
C 3.01172057 5.39449513 22.14032363 -0.00275562 0.00892290 0.00053526
C 6.73779292 1.94963638 22.78659244 -0.00413707 -0.00019580 -0.00042973
C 2.16868202 3.86686795 30.54445250 0.00502073 0.00166546 -0.00147022
C 1.93104724 10.85531179 18.82078285 -0.00190130 -0.00110281 -0.00040825
C 6.24215291 8.73781489 27.10443162 -0.00312362 0.00467357 0.00485675
C 2.21509280 10.84728277 27.29461835 -0.00720864 0.00737483 0.00047318
C 6.51851077 8.94683264 18.82245175 -0.00115200 0.01120944 0.00321160
C 6.35914918 1.90822260 30.80636494 -0.00194037 0.00889286 -0.00076374
C 2.33471860 4.16114105 21.96751083 0.00178072 0.00646774 -0.00297469
C 6.18278838 2.53594984 21.62728193 0.00003694 -0.00240342 0.00013614
C 2.39882199 3.38303902 29.28956435 0.00807626 -0.00042617 0.00370503
C 1.68663644 10.30600587 20.12536348 0.00060847 0.00087290 -0.00989341
C 6.55868597 9.24677204 28.40998218 -0.00369767 0.00287927 0.00481020
C 2.39608818 10.29165039 28.58810537 0.00061899 0.00473225 0.00378981
C 6.32192261 9.45510638 20.08440750 0.00096189 -0.00801125 -0.00479004
C 6.86451988 2.33606738 29.59653416 0.00528448 0.00481579 -0.00310874
C 1.86263132 3.73447360 20.74261471 -0.00174858 -0.00583998 0.00102860
C 6.26569232 1.87238853 20.40160415 0.00219654 -0.00700601 0.00080460
C 1.85807059 4.05881359 28.21051570 0.00191381 -0.00852365 0.00994781
C 2.33696534 10.81646365 21.20732777 0.00010287 0.00084224 0.00024047
C 6.18036007 8.48422799 29.48672553 -0.00254751 0.00662323 -0.00120853
C 1.78214855 10.91704472 29.63233469 0.00283429 -0.00404449 -0.00304912
C 6.60069215 8.68121069 21.20410654 0.00314047 0.00224876 -0.00150158
C 6.39758870 1.66850114 28.43691796 0.00136190 0.00221628 0.00072937
C 2.20490277 4.50427718 19.57280504 0.00207508 0.00128525 -0.00370654
C 7.15453411 0.76722734 20.33965775 -0.00524300 0.00182401 -0.00420171
C 1.18763647 5.30726317 28.33260222 0.00130219 -0.00593662 -0.00877084
C 3.07974475 12.03540045 21.17934523 -0.00059074 0.00253451 -0.00281454
C 5.46146235 7.24985015 29.36527385 0.00125584 -0.00489666 -0.00139481
C 1.18989830 12.17808366 29.51777589 0.00359491 -0.00685245 0.00174800
C 7.07159048 7.34897894 21.03385376 0.00127140 -0.00131751 0.00198671
C 5.56937573 0.56024679 28.49288519 -0.00544412 0.00102894 0.00622413
C 2.89541439 5.69734139 19.76598789 -0.00043096 -0.00607758 -0.00356562
C 6.94258242 0.29221760 18.02303436 -0.00709241 0.00471675 0.00207470
C 1.33532111 5.96096910 25.98133946 0.00228273 -0.00190797 0.00240259
C 2.98349338 12.55599272 23.56338236 0.00438212 0.00386772 0.00493336
C 5.72285066 6.48318258 31.66789834 -0.00073268 0.00273447 0.00521917
C 1.40354479 12.84286665 31.84294577 -0.00285923 -0.00301355 -0.00458520
C 6.73936989 6.75059830 23.30897507 0.00142222 0.00081976 -0.00379799
C 5.92405966 25.77099706 26.11516399 0.00557660 -0.00411453 0.00772547
C 2.59903058 6.46978915 17.49395523 -0.00370643 -0.00601080 -0.00276555
C 7.20433172 12.01805464 0.17873873 0.00103738 0.00265182 0.00855922
C 1.19025899 7.23878406 25.26194825 0.00751377 -0.00393740 0.00118360
C 2.97953643 0.99974680 24.64476310 0.00086193 0.00289923 -0.00151246
C 5.67061515 5.71366029 16.46144681 -0.00271563 -0.00132658 0.00425391
C 1.80081238 1.24520664 16.43453527 -0.00195967 -0.00004802 -0.00006552
C 6.73388942 5.51005694 24.22701555 0.00326912 -0.00348613 0.00302074
C 5.68598245 11.99009736 25.23627676 -0.00312936 0.00101305 -0.00650308
C 3.00621251 7.39483820 0.17228018 0.00054930 -0.00069783 0.00317387