1920
Time=47000.00000003 pbc="T T T" Lattice="25.40848993 0.00000000 0.00000000 0.00000000 25.78877675 0.00000000 0.00000000 0.00000000 32.94850493" energy=-12250.82601535 virial="-32.41750450 3.97014466 -0.05451014 3.97014466 -12.87499375 4.47646835 -0.05451014 4.47646835 -44.79831773" stress="0.00052358 0.00016091 -0.00001410 0.00016091 0.00142202 0.00022252 -0.00001410 0.00022252 0.00006289" Properties=species:S:1:pos:R:3:vel:R:3
O 5.58944182 2.61872448 7.53951596 0.01453564 0.00249407 0.00443018
O 2.61244922 3.87139766 15.25570106 -0.00254736 0.00085929 0.00051230
O 1.53031275 10.45123123 0.87285028 0.00314080 -0.00106530 -0.00321675
O 6.66538415 9.24417799 9.49781525 0.00454099 0.00279700 0.00794700
O 2.10646154 10.50481780 9.19671683 0.00145946 -0.00429587 -0.00011927
O 6.06016817 9.60496010 1.60104428 0.00264538 0.00064864 -0.00385714
O 6.68548110 2.46990271 15.66963639 -0.00237428 -0.00255527 -0.00186351
O 1.63617135 3.44317555 6.84115144 -0.00576766 0.00364245 0.00719924
O 6.52050666 1.19474518 17.90603614 0.00381215 0.00289212 -0.00396425
O 1.29100461 4.93615882 9.02260441 0.00366654 0.00449807 0.00202605
O 1.54803109 11.80882401 6.82535962 0.00239098 -0.00193041 0.00098349
O 5.82860088 7.98875183 32.37649908 -0.00020022 -0.00433510 0.00605579
O 2.39515235 11.80483537 31.69415453 0.00487717 0.00272356 -0.00190036
O 6.66070362 7.48742364 7.60736346 -0.00103026 0.00726062 -0.00161622
O 6.34180459 1.39342069 9.56413023 -0.00672758 -0.00009966 -0.00367887
O 2.77552844 5.31874667 17.36339097 -0.00232368 0.00648440 -0.00302911
O 5.87892089 2.68359978 24.15905189 -0.00153298 0.00770392 0.00218209
O 2.98251109 3.53449553 31.71100672 0.00311963 -0.00013170 0.00360332
O 1.43930460 10.34101731 17.35061870 -0.00332665 -0.00281880 0.00462046
O 6.95144310 9.18720754 26.04104748 -0.00174727 0.00919319 -0.00516456
O 2.50845382 9.75976718 25.41797292 -0.00541111 0.00292181 -0.00130734
O 5.94442409 9.40596331 17.65503667 0.01184634 -0.00003345 0.00745994
O 6.78712650 2.89724404 32.20768736 -0.00196873 0.00377110 0.00005261
O 1.72580900 3.57833466 23.59335386 -0.00479564 -0.00169414 0.00371807
O 6.80661252 1.40527546 1.30884840 0.00264903 0.00077433 0.00285388
O 2.12332308 5.09035873 25.56674061 -0.00062456 0.00519703 0.00245465
O 2.16620809 11.78930200 23.43128874 0.00244082 0.00160382 0.00139980
O 5.87690130 7.70485811 15.73634971 0.00087571 0.00370180 0.00029297
O 1.83901395 11.92443070 15.33651613 -0.00032836 -0.00523651 -0.00041066
O 6.35561907 7.67520360 23.89570947 -0.00369887 -0.00042981 -0.00083309
O 5.78984560 1.06892972 26.22042571 0.00281624 0.00100186 -0.00017925
O 2.96432983 5.13379085 0.64366029 -0.00458914 0.00391379 0.00534877
O 6.41467437 15.81526788 6.67662678 -0.00086655 0.00304982 -0.00068912
O 2.44038733 16.55854765 14.96255419 -0.00009158 -0.00510761 -0.00475505
O 2.09835351 22.67706539 1.60193062 0.00423060 -0.00374055 -0.00182854
O 6.81549839 22.15490382 9.58565182 -0.00430455 0.00505159 0.00351852
O 2.34361576 22.31825199 10.10641164 -0.00029654 -0.00087315 0.00774251
O 5.83363927 22.00285529 1.50079184 0.00096153 0.00227336 0.00020010
O 6.63145476 15.89066203 14.80714722 -0.00010960 0.00000303 0.00416301
O 1.50678020 16.64213752 6.93514794 -0.00151043 -0.00525950 -0.00005064
O 6.36494008 14.42495114 16.99754001 0.00256555 -0.00493617 0.00085587
O 2.07664732 17.97615613 8.89019440 0.00039687 -0.00554462 -0.00191592
O 2.17593035 24.26393864 7.97294673 0.00212056 -0.00546135 0.00027519
O 6.43384712 20.63582696 32.27481759 0.00208834 -0.00051105 -0.00050881
O 1.79861990 24.39430801 32.68594864 -0.00100735 -0.00473625 0.00316068
O 6.38515489 20.46450601 7.76125279 -0.00367093 0.00002988 -0.00127836
O 6.36569259 13.94470720 8.48090131 0.00096976 0.00538710 0.00323644
O 2.40493840 18.10464971 17.00337153 0.00501697 0.00301442 -0.00231487
O 6.27421155 15.89993025 23.28476354 -0.00386676 -0.00180343 0.00067226
O 2.59921109 16.77248244 31.66242127 -0.00060167 -0.00673272 0.00031155
O 1.44633143 23.64934068 18.15993012 -0.00261347 -0.00296082 0.00085825
O 7.04476730 21.71528814 25.95078695 -0.00191791 -0.00013071 -0.00131341
O 2.49409567 22.63803599 26.40947191 -0.00016633 -0.00394777 0.00428036
O 5.93182807 22.15850091 17.91318027 0.00311199 -0.00018457 0.00196415
O 6.91238452 15.91184287 31.06039623 0.00040909 0.00498201 0.00127528
O 1.72612063 16.71196192 23.36902247 -0.00023443 0.00358024 -0.00527703
O 6.72595597 14.27477544 0.47744244 0.00068690 -0.00150864 -0.00398328
O 2.36305160 18.16468281 25.33928079 0.00712522 0.00128731 0.00049737
O 2.19224434 24.43412544 24.40563920 0.00336762 0.00203173 -0.00193987
O 6.10674895 20.71125725 15.75924913 0.00049909 0.00112460 -0.00440287
O 2.28321325 24.90856777 15.87503653 0.00080118 0.00295344 -0.00254003
O 6.07980161 20.31365457 24.03191344 -0.00188954 -0.00034576 0.00235577
O 6.38088725 13.93006599 25.04441478 0.00310909 -0.00268391 -0.00215643
O 2.03246894 17.98753029 0.93357065 -0.00338172 0.00184461 -0.00216934
O 14.10371903 2.22607267 7.56810497 -0.00512828 -0.00181998 0.00307517
O 11.49772980 3.82979570 15.20555057 0.00363279 0.00025303 0.00649921
O 10.40774639 10.19298120 1.00916933 0.00008223 -0.00151494 0.00059314
O 15.32489997 8.78075880 9.22721640 0.00053368 0.00383496 0.00269902
O 11.05887987 10.04972053 9.08603447 -0.00181367 -0.00253820 0.00147184
O 14.32726293 9.17066498 0.90354577 -0.00183897 -0.00457659 -0.00497211
O 15.25202741 2.86845295 15.45380185 -0.00171257 0.00133479 -0.00077802
O 9.85902403 3.22929610 6.63003044 -0.00143333 -0.00117280 0.00208389
O 15.03990693 1.55267016 17.70869337 0.00431523 -0.00065542 0.00768062
O 10.00882337 4.74917690 8.88877734 -0.00184923 0.00854987 0.00233716
O 10.58099255 11.70409321 7.16890824 -0.00006264 0.00733101 0.00715937
O 14.70767655 7.65224953 31.95195962 -0.00355362 -0.00477053 -0.00108710
O 10.70443269 11.64333030 31.72677079 -0.00499432 -0.00158633 0.00750461
O 14.70315840 7.67009692 7.06008596 -0.00344025 0.00247431 0.00085587
O 14.78514916 0.82799514 9.58064535 0.00186764 0.00254497 -0.00105162
O 10.64002447 5.22845504 17.39296591 0.00068811 -0.00431184 -0.00544154
O 14.16799073 2.58825082 23.91104886 -0.00075727 -0.00401771 -0.00536118
O 11.20176606 3.41456336 31.32804950 0.00400805 0.00221833 0.00583234
O 9.80173044 10.45535378 17.38187377 0.00183273 0.00836214 0.00197138
O 15.52743738 9.27814551 25.76755344 0.00028212 0.00316940 0.00132165
O 11.19399220 10.10949204 25.40221818 -0.00052549 -0.00234665 -0.00778111
O 14.17224984 9.59990437 17.51486379 -0.00014205 -0.00583762 -0.00207692
O 15.66417941 2.74294691 32.40883370 0.00373807 -0.00123500 0.00104018
O 10.15477329 3.90947891 23.59780149 0.00436690 0.00066403 0.00342907
O 15.34871763 1.23358393 1.47116947 -0.00203325 -0.00430060 -0.00383148
O 10.72246487 5.56507468 25.38145177 0.00004890 0.00110841 -0.00249679
O 10.42097468 11.75563460 23.43727257 -0.00251030 -0.00353637 -0.00117119
O 14.72236622 7.95059096 15.55509636 0.00145577 -0.00218916 -0.00274584
O 10.50906007 11.71633489 15.25187918 0.00404559 -0.00363845 0.00367495
O 15.26825470 7.76475598 23.75241719 0.00330696 -0.00011111 -0.00568664
O 14.40176516 1.54039025 26.25148074 0.00578983 0.00813292 -0.00149062
O 10.74604719 4.97157745 0.63786511 0.00011601 -0.00572937 -0.00061961
O 14.30765679 15.44687857 6.81851686 0.00243003 0.00243133 -0.00193784
O 11.19470792 16.75263102 15.10909921 0.00363976 -0.00001482 -0.00005078
O 10.04573055 22.70099879 2.07932399 -0.00334349 -0.00141008 -0.00074432
O 15.54549119 22.00948035 9.57554654 0.00323103 0.00284441 0.00149010
O 10.98863873 22.66961579 10.13471124 -0.00525825 -0.00596219 -0.00175625
O 14.27452243 21.64650654 1.52545991 -0.00335604 0.00326195 0.00554317
O 15.32249423 15.98879461 14.63143079 -0.00349917 0.00422899 -0.00655537
O 10.39233814 16.96340814 7.01133213 0.00064955 0.00051213 -0.00149508
O 15.11449299 14.31759884 16.79523685 0.00244461 0.00079304 0.00024890
O 10.74747349 18.48160355 9.04565643 -0.00260602 0.00079039 0.00005749
O 10.88877838 24.31771845 8.10999764 -0.00133931 0.00406031 0.00659178
O 15.03517569 20.28529867 32.38925116 0.00080833 -0.00355960 -0.00328357
O 10.19174799 24.49681452 32.83342660 -0.00049162 -0.00406264 -0.00289846
O 14.63654362 20.28326648 7.62069938 -0.00312267 -0.00058890 -0.00243020
O 14.79637688 13.71264426 8.84547281 -0.00146865 -0.00339713 -0.00057251
O 10.88207265 18.11003638 17.40273176 0.00785863 0.00463517 0.00199792
O 14.76055681 16.09413416 23.21123510 0.00303103 -0.00111516 0.00664144
O 10.91306903 16.82389776 31.81585373 -0.00674822 -0.00178868 0.00520400
O 10.44779477 22.94816128 18.48573084 0.00944934 0.00220488 -0.00190367
O 14.86068322 22.18740298 26.32870189 0.00144585 -0.00153289 -0.00364416
O 10.71086339 22.91958280 26.65252467 0.00112865 0.00142380 -0.00172588
O 14.28167550 22.12787211 18.19763659 0.00197342 0.00302474 0.00954291
O 14.94245691 15.93786028 31.18699721 -0.00149669 0.00867143 0.00168918
O 10.17274387 16.66985659 23.57844671 -0.00209090 -0.00114138 -0.00499924
O 14.97457046 14.32876161 0.49853483 0.00226729 -0.00678618 -0.00092329
O 10.78379642 18.05304842 25.52597030 0.00241095 0.00036210 0.00487924
O 10.86264007 24.67147916 24.74754301 -0.00173210 -0.00205767 0.00235140
O 14.82027806 20.89455222 15.85863769 0.00231837 -0.00630157 0.00316061
O 10.00517294 24.39488660 16.19837155 0.00378183 -0.00576073 -0.00185936
O 14.65356901 20.72524021 24.26564598 -0.00087812 -0.00611768 -0.00083864
O 14.80503088 14.16118500 24.93056669 -0.00102846 -0.00057978 -0.00008331
O 10.41626840 18.29456158 0.86051095 0.00312121 -0.00583952 0.00260556
O 22.25708096 2.83221369 6.74390582 -0.00516392 0.00031403 -0.00501873
O 19.83065771 4.16006323 14.89525475 0.00026597 -0.00361944 -0.00087236
O 18.54967063 10.29795228 0.87439584 0.00432090 0.00160446 -0.00734441
O 23.75107325 9.07784476 9.18477327 0.00072030 0.00046032 -0.00010973
O 19.48954183 10.20637239 9.32282070 -0.00182067 0.00673964 -0.00450563
O 23.05862521 9.24898610 0.98435132 0.00155745 0.00057163 -0.00292092
O 23.98664256 2.69403646 15.37427735 0.00547322 0.00260320 -0.00753721
O 18.29002879 3.55434980 6.73385032 0.00080753 -0.00471157 -0.00616756
O 23.41218305 1.46162667 17.41708113 -0.00458150 -0.00056351 -0.00128561
O 19.01063240 5.21447618 8.73025127 0.00087208 -0.00100312 0.00462671
O 18.89427559 11.52414373 7.11625059 -0.00159015 0.00204995 -0.00143216
O 23.12001161 7.36813990 32.01347139 -0.00303222 -0.00435798 -0.00206574
O 18.95035490 11.77101329 31.81988318 0.00030596 0.00143055 -0.00170753
O 22.82214913 7.65304868 7.19275513 -0.00269336 0.00780028 -0.00155191
O 22.76065714 1.26250487 9.21106211 0.00543278 0.00097071 -0.00183629
O 18.89903662 5.26995204 17.01232070 0.00658981 -0.00222235 -0.00182306
O 22.75908942 2.63600254 23.61742291 -0.00382772 -0.00398344 -0.01044973
O 19.32758155 3.48991564 31.50480128 0.00023278 -0.00369961 0.00115315
O 18.67704140 10.22088008 17.37698024 0.00444948 0.00191731 -0.00353369
O 23.50083098 9.56923534 25.85099512 0.00077312 -0.00033548 -0.00693572
O 19.48401270 10.55440754 25.55050840 -0.00199672 0.00084835 -0.00619308
O 22.56701633 9.08645261 17.58257042 -0.00132124 -0.00326517 0.00197238
O 24.04799510 2.41199591 32.04001846 -0.00148516 -0.00252886 0.00195935
O 18.78096782 3.70319008 23.18288503 -0.00779036 -0.00113043 0.00078758
O 23.63948586 0.70781743 0.94747268 -0.00372806 -0.00034584 -0.00123432
O 19.11755668 5.22325736 25.28516936 -0.00781298 -0.00753272 -0.00647595
O 18.82775141 12.06367231 23.51026410 0.00232443 -0.00393734 -0.00050715
O 23.39109030 7.79401396 15.47190007 0.00321591 0.00411232 0.00470722
O 18.76989122 11.95739855 15.53916373 -0.00854302 0.00159738 0.00196947
O 23.70299412 7.91300141 23.83018628 -0.00059672 -0.00223576 0.00049570
O 22.72525203 1.28053398 25.94726937 -0.00230400 -0.00181185 -0.00212959
O 19.23011159 5.22861163 0.58501481 0.00205959 -0.00500260 -0.00014325
O 22.51675632 15.25313729 6.64008977 -0.00521760 0.00822656 -0.00331042
O 19.60587232 16.54832564 14.94193688 0.00018492 -0.00657456 -0.00139349
O 18.69474681 22.47105824 1.85420458 0.00003823 -0.00266868 0.00158150
O 23.53300878 22.02154319 9.06499947 -0.00095073 0.00355956 -0.00056320
O 19.71895519 22.80699394 10.05206975 -0.00115177 0.00080853 0.00421303
O 22.83074012 21.42654269 1.06931772 -0.00600035 0.00262791 -0.00357144
O 23.74266466 15.97091471 14.78641327 0.00467965 0.00074309 -0.00419059
O 18.75120751 16.53048751 6.67109837 0.00928472 0.00052950 -0.00310557
O 23.64014874 14.24654766 16.81401287 -0.00002925 0.00173603 0.00018961
O 18.86435368 17.98150187 8.84714177 -0.00078146 -0.00184380 0.00112975
O 19.55174951 24.29429986 7.99808946 0.00633156 0.00214146 0.00316476
O 23.80055333 20.30165481 31.99633432 -0.00199598 0.00174452 -0.00381144
O 18.83715295 24.24471217 32.65335270 0.00428945 0.01019994 -0.00038352
O 23.12180506 20.36331474 7.28522500 -0.00232588 0.00478216 -0.00567563
O 23.06305791 14.09070347 8.88534570 0.00160834 0.00082239 0.00364436
O 19.38081882 18.12177004 17.10208198 0.00156234 0.00105331 0.00547109
O 23.26388760 16.00870584 22.90359716 0.00200207 -0.00477129 0.00180604
O 20.11290887 16.67358682 31.31052514 0.00076068 -0.00402970 0.00167768
O 18.80645228 23.04588450 18.17191652 -0.00482044 -0.00226918 -0.00491098
O 24.07798065 21.86608459 25.94957257 0.00072736 -0.00295917 -0.00085482
O 19.84339504 23.27810746 26.52581332 -0.00388094 0.00196882 -0.00324194
O 23.32221304 22.20436415 17.27948537 -0.00131387 -0.00238517 -0.00106561
O 24.05866757 15.57199794 31.29802023 0.00543093 -0.00193791 -0.00269015
O 18.73313745 16.85601707 23.42299330 -0.00322077 0.00124372 -0.00092366
O 23.05699641 14.14137828 0.64945152 0.00169806 0.00103143 -0.00402012
O 19.30102704 18.54621209 25.59498118 0.00113350 0.00236301 0.00210533
O 19.22739378 24.50984706 24.38461363 -0.00705552 -0.00391394 0.00155567
O 23.58264211 20.74690672 15.33334896 0.00341271 0.00574969 -0.00129782
O 19.06950217 24.64726004 15.95558344 0.00091501 0.00425476 -0.00446854
O 23.41063176 20.78249837 23.54672890 -0.00247281 0.00031053 0.00271331
O 23.45127605 14.27928569 24.91120369 0.00561930 0.00235871 -0.00252750
O 19.16827795 17.67357758 0.45748019 -0.00123606 0.00077173 0.00245169
N 7.55874836 12.87875543 2.10170834 -0.00085324 -0.00035583 0.00117513
N 0.70969718 6.37609159 10.70132879 0.00492970 0.00885710 0.01190124
N 2.83980746 25.61899640 6.28714425 0.00295267 -0.00085433 0.00272514
N 4.94037506 6.53198749 14.00779746 0.00031931 -0.00535020 -0.00532203
N 0.91525291 25.74681488 14.27336194 -0.00721252 0.00200537 0.00510521
N 7.47106849 6.20563776 5.81711851 0.00208793 0.00417084 -0.00108883
N 5.02737995 13.12002254 10.18549563 0.00269559 0.00288818 0.00321266
N 3.21831692 6.48568078 2.55295376 0.00162430 -0.00184357 -0.00240769
N 7.14969643 13.15319115 18.67962463 -0.00154897 0.00129299 -0.00159192
N 0.82551698 5.93645469 27.24436390 -0.00724975 -0.00739757 -0.00234639
N 3.44873747 25.49368313 22.87281468 -0.00471693 0.00222328 -0.00362317
N 4.96673184 6.80782974 30.61792732 -0.00024661 0.00169833 -0.00545799
N 1.11040745 25.71182676 30.95903046 -0.00466880 0.00846695 0.00059157
N 7.42179046 6.50832814 22.21262887 0.00323319 -0.00090779 0.00303959
N 5.05290399 12.99008484 26.63276600 0.00070283 -0.00447312 0.00213440
N 3.49335223 6.50248488 19.15052703 -0.00432142 0.00035536 -0.00235862
N 7.14311259 25.64410956 3.01893442 -0.00382461 -0.00338794 0.00619847
N 0.74060134 19.19537042 10.27786104 -0.00019170 -0.00099102 0.00761301
N 3.44661858 12.50354926 5.72530075 -0.00107204 0.00073592 0.00754137
N 5.14722441 19.44006432 14.05844433 -0.00042860 -0.00257907 0.00011069
N 0.95034867 13.31290628 13.83017644 -0.00172443 -0.00162214 0.00017482
N 7.42433483 19.29093541 6.08132530 -0.00037948 -0.00474984 0.00099770
N 5.06236140 0.23669633 10.98592158 -0.00118712 0.00744606 0.00038489
N 3.31160879 19.21577922 2.48018560 0.00233249 0.00829953 -0.00865403
N 7.74499085 0.25404131 19.56001355 0.00184749 0.00335613 -0.00052538
N 0.99868267 19.07131966 26.94464357 0.00847733 0.00275969 0.00333366
N 3.37702358 12.87676062 21.82425663 -0.00164700 -0.00126726 0.00465426
N 5.33809442 19.46296736 30.61645190 0.00854172 0.00156295 -0.00099141
N 1.38142718 12.95874082 29.95929548 0.00322332 0.00011797 0.00383513
N 7.25709491 19.24267092 22.38585628 0.00459986 -0.00109288 0.00112084
N 5.23750494 25.59347925 27.93598267 0.00417088 0.00132397 0.00231131
N 3.51425304 19.11809240 18.64758520 -0.00494769 0.00301525 0.00322538
N 16.11319626 13.26111862 2.13160680 -0.00499628 -0.00497028 -0.00190600
N 9.32546777 6.11252264 10.71115765 0.00699527 -0.00385633 -0.00371111
N 11.23776844 0.03328889 6.45338761 0.00327246 0.00157111 0.00141415
N 13.45092169 6.79449013 13.99431855 0.00511617 -0.00661379 0.00044352
N 9.16947905 25.61651788 14.54308610 -0.00041459 -0.00310895 -0.00506696
N 15.87725300 6.51002034 5.56742940 -0.00115432 -0.00499530 0.00191895
N 13.49835380 12.82279623 10.49300141 -0.00028373 0.00113607 0.00012055
N 11.56637454 6.34413681 2.35345735 0.00148564 0.00272071 0.00316814
N 16.04633867 13.29927617 18.59948008 0.00174391 -0.00513634 0.00009544
N 9.41403133 6.40874687 27.04274300 0.00072619 0.00558714 -0.00147590
N 11.82938698 0.07019868 22.94247178 -0.00100092 -0.00130242 -0.00360198
N 13.76282979 6.43594770 30.24497313 -0.00025959 -0.00852500 -0.00112998
N 9.51160319 0.17496730 31.24349052 0.00708475 -0.00050453 -0.00367629
N 15.74688179 6.54316704 21.89571819 0.00430921 -0.00153363 0.00131501
N 13.98438490 12.88484863 26.68945051 0.00168561 0.00040398 -0.00035206
N 11.52514943 6.53952150 19.03699149 -0.00090978 -0.00033695 -0.00115627
N 15.81831552 25.47988296 3.10097902 0.00383799 0.00177057 -0.00457372
N 9.33035350 19.45729994 10.54432492 -0.00012573 -0.00090364 0.00086905
N 11.79469047 12.83062474 5.55673227 0.00150720 0.00622470 -0.00130877
N 13.73975725 19.70442421 14.20327804 -0.00037433 -0.00022586 0.00291315
N 9.16058504 12.59910203 13.62126767 0.00255101 0.00062556 0.00437944
N 15.74014249 18.99722501 6.09513175 0.00112842 -0.00357948 -0.00165196
N 13.41967031 25.74080893 11.14979894 0.00280137 0.00817754 -0.01089136
N 11.61963418 19.54431797 2.32105054 -0.00280517 0.00378723 -0.00132164
N 16.16048094 0.30111008 19.31729996 0.00031681 0.00213771 0.00256981
N 9.58563865 19.32286093 27.07784369 -0.00634802 -0.00246694 0.00413385
N 11.78359501 12.84977213 21.93438074 -0.00010344 -0.00302312 0.00404871
N 13.70755710 19.25152574 30.85410120 -0.00296396 0.00260974 0.00374295
N 9.53945210 12.69387863 30.06360759 -0.00279485 0.00395179 -0.00045635
N 16.12649765 19.63677384 22.91614991 -0.00248177 0.00075840 -0.00531716
N 13.62076610 0.23796185 27.98772855 0.00699474 -0.00063367 -0.00136710
N 11.80467728 19.51621250 19.00168712 0.00631378 0.00970063 0.00201801
N 24.64629087 13.31039902 2.03780322 -0.00075473 0.01023654 0.00741314
N 17.70656989 6.24788535 10.31949818 -0.00144675 0.00207702 -0.00158768
N 20.00134491 25.62576300 6.21961212 0.00394135 0.00089226 -0.00406649
N 22.16671840 6.64500552 13.89413385 0.00326553 0.00833506 -0.00769094
N 17.93844398 25.78147498 14.28366123 -0.00242024 -0.00008315 -0.00247193
N 24.00435417 6.39628220 5.65819789 -0.00645513 0.00431299 -0.00318451
N 21.83957693 13.02947819 10.47185272 -0.00154637 -0.00493629 -0.00349902
N 20.41201473 6.13740689 2.29430225 0.00092391 -0.00235246 -0.00924230
N 24.37906565 12.84432511 18.44069708 -0.00513915 -0.00797246 0.00121309
N 17.98914198 6.39753620 26.90883570 -0.00752333 -0.00114625 0.00379673
N 20.57473367 25.50477808 22.82358663 0.00143275 -0.00295191 -0.00134555
N 22.40568255 6.18859914 30.13806611 -0.00318880 -0.00273182 0.00539397
N 17.96119795 25.67929068 31.06992165 -0.00170246 0.00476326 0.00462988
N 24.24850706 6.49794508 22.06458301 0.00067195 0.00165536 0.00613178
N 22.50733903 13.07507408 26.61507833 -0.00570951 -0.00055396 0.00220505
N 20.14934490 6.39147064 18.58288329 0.00151001 -0.00348535 -0.00344351
N 24.65652152 25.56373050 2.76266707 -0.00175722 0.00217644 -0.00010576
N 18.18633848 19.37731434 10.42268138 -0.00555000 0.00198838 -0.00264026
N 20.29296916 12.49172885 5.58254459 0.00249846 -0.00257126 -0.00092626
N 22.13104322 19.70074684 13.89364479 -0.01233268 -0.00304498 -0.00109329
N 17.25072414 12.64999313 13.88195665 0.00073697 -0.00794486 -0.00569279
N 24.40992108 19.12833595 5.77004297 -0.00379798 0.00055723 -0.00035480
N 22.06423814 25.76095846 10.95794240 -0.00406919 -0.00273178 -0.00223357
N 19.99265961 19.18920412 1.98705750 0.00061046 -0.00517391 -0.00419979
N 24.44954860 0.12968849 18.96638285 0.00055767 -0.00263032 -0.00663576
N 17.98984280 19.47905129 27.18598241 0.00483625 0.00071580 0.00310371
N 20.39468782 12.79815574 21.96829164 -0.00442559 -0.00338561 -0.00251514
N 22.58401718 19.10105349 30.50703207 0.00757875 -0.00217231 -0.00053121
N 17.72446715 12.97306299 30.25504194 -0.00019334 0.00596319 0.00054399
N 24.55076624 19.50693799 21.95918797 0.00362072 -0.00123457 -0.00170772
N 22.00629799 25.69987236 27.61992258 0.00443053 0.00279417 -0.00040812
N 20.25205023 19.54329660 18.72756017 0.00070007 0.00174244 0.00297225
C 7.16945439 0.30712629 5.34689509 -0.00078655 -0.00147204 0.00223524
C 0.88002580 6.17765878 13.09938180 0.00069415 -0.00135807 -0.01105681
C 3.50798877 12.33696666 3.16067005 -0.00430430 -0.00318573 0.00204459
C 4.79819925 6.99208756 11.66216115 -0.00866585 -0.00199865 -0.00313178
C 0.58631911 12.93888109 11.41747331 0.00338770 0.00068943 -0.00191181
C 7.42874314 6.82257194 3.41697795 -0.00270850 0.00319075 -0.00143941
C 4.84835914 0.40001810 13.35837708 0.00101334 -0.01312755 -0.00201282
C 3.19850751 6.07818837 4.85834587 -0.00186846 0.00521914 -0.00062083
C 6.94022904 0.99082061 6.48908977 -0.00660748 -0.00031934 0.00654720
C 1.27019002 5.57709082 14.27258623 0.00440532 0.00015087 -0.00525729
C 3.19909270 11.78948244 1.96312506 -0.00221238 0.00245089 -0.00575511
C 5.20374931 7.71143654 10.53652662 0.00637120 -0.00267182 -0.00305705
C 0.86878013 12.24789185 10.26598143 0.00302120 0.00006093 -0.00184158
C 7.24684122 7.71071953 2.39753927 -0.00015740 -0.00241756 -0.00124692
C 5.34356777 0.88873464 14.54818148 -0.00021417 -0.00981774 0.00085742
C 2.69891080 5.41249657 5.90266824 -0.00848779 -0.00346780 -0.00204009
C 6.08925170 2.10921163 6.42107941 -0.00097604 0.00036379 0.00497340
C 2.06204138 4.38906789 14.21040454 0.00823111 -0.00729257 -0.00608989
C 2.07872518 10.86847183 1.95993004 0.00401528 0.00408494 -0.00018359
C 6.08735070 8.75922543 10.64015255 -0.00298133 0.00906978 -0.00896260
C 1.65592734 11.10275776 10.37030986 0.00469549 0.00166783 0.00063697
C 6.55048063 8.92219011 2.66606175 -0.00022554 0.00170376 0.00673342
C 6.08039567 2.06898011 14.56476136 0.00037427 0.00490216 0.00239180
C 2.01999261 4.22800327 5.73842669 0.00028899 0.00267623 -0.00133904
C 5.74887515 2.53851461 5.15603585 0.00438589 0.00572507 -0.00018856
C 2.17103427 3.73018037 12.87374772 0.00394144 0.00718908 -0.00175487
C 1.67192745 10.35135274 3.24226188 -0.00579438 -0.00099350 0.00315208
C 6.38051984 9.26686072 11.94649892 -0.00240227 0.00298643 -0.00227154
C 1.96303501 10.57063749 11.60679083 -0.00420132 0.00013708 0.00357500
C 6.25214814 9.25272893 4.01501043 0.00705165 0.00042363 -0.00895435
C 6.37825352 2.80365223 13.39678484 -0.00609263 0.00005444 0.00229215
C 1.74559199 3.80031854 4.45742159 0.00174188 -0.00233592 -0.00101086
C 6.19221758 1.94864358 3.98345035 -0.00082567 0.00471801 0.00490336
C 1.62505106 4.30262779 11.72593753 0.00338727 -0.00288253 -0.00644201
C 2.09960444 10.81280799 4.44133980 -0.00847238 0.00023460 -0.00208330
C 5.88482929 8.56212472 13.01979410 -0.00482593 0.00249980 -0.00296885
C 1.69418759 11.25257127 12.74932375 -0.00409685 0.00379700 0.00356548
C 6.59266415 8.43199786 5.04210038 0.00045896 0.00295764 0.00088806
C 6.05715602 2.20870944 12.17665482 -0.00378997 0.00691060 -0.00409804
C 2.21828167 4.47930459 3.34056142 0.00058686 -0.00189870 0.00539146
C 6.83832868 0.70246754 4.05789872 0.00099418 0.00307716 -0.00892644
C 1.09384560 5.62812157 11.83775942 0.00018109 -0.00161336 0.00066449
C 3.04474042 11.97196891 4.49488903 -0.00381651 -0.00027112 -0.00812582
C 5.20366048 7.32084690 12.90845040 0.00211150 0.00456640 -0.00342236
C 1.13699758 12.52966337 12.66455693 0.00067475 0.00455194 -0.00767077
C 7.23031442 7.18063746 4.78513467 0.00086916 -0.00090176 -0.00011824
C 5.33107399 1.01425878 12.18678202 0.00429164 0.00005644 0.00459181
C 2.93261106 5.62738149 3.53623218 -0.00318171 -0.00236392 0.00038289
C 6.90236481 0.22240483 1.69006590 -0.00525302 -0.00206377 0.00356836
C 0.98633097 6.03823323 9.38005554 0.00185218 0.00099569 0.00167266
C 2.53744910 12.58579613 6.74368111 0.00145656 0.00194575 0.00351068
C 5.46548013 6.64509078 15.24967841 -0.00142520 -0.00139866 0.00481257
C 1.34467948 12.98693184 15.06078229 -0.00463705 0.00099634 -0.00352191
C 7.06747370 6.38516561 7.12207443 -0.00135443 -0.00706986 0.00180781
C 5.69816876 0.41117090 9.87713459 -0.00577253 -0.00892163 0.00605408
C 3.13181506 6.26234136 1.21773495 0.00216283 -0.00500035 0.00025682
C 6.85780677 12.13396769 16.46577252 -0.00621320 0.00274683 -0.00160736
C 1.18929860 7.23678575 8.52983899 0.00823819 0.00350943 0.00123094
C 2.30774520 0.82977522 8.49301629 0.00179621 0.00126130 0.00225638
C 5.96670881 5.57673478 32.46840495 -0.00252566 -0.00764992 0.00603574
C 1.44754413 0.95330719 0.18084356 0.00156517 -0.00177522 0.00347226
C 6.95181135 5.13317865 8.03158850 0.00096357 0.00065358 -0.00340507
C 5.49701168 11.77757773 8.19692870 0.00051194 -0.00747881 -0.00412256
C 2.97594712 7.69923711 17.05680631 0.00025402 -0.00557757 -0.00243363
C 7.43277468 0.31413347 21.91326842 -0.00402656 -0.00253066 -0.00167544
C 1.07936814 5.76654047 29.55610803 0.00539302 -0.00327413 -0.00370335
C 3.43550460 12.53189512 19.44022066 -0.00628223 -0.00581977 -0.00076658
C 4.91569757 7.10471063 28.25826723 0.00265411 0.00251079 0.00214781
C 1.15695019 12.44992133 27.62560944 0.00431724 -0.00010737 -0.00107488
C 7.32362543 6.69233536 19.83764971 -0.00072951 -0.00291591 0.00069506
C 5.43122417 0.18650945 30.20000321 -0.00122769 -0.00424425 0.01171028
C 3.22035655 6.12757051 21.50173636 -0.00313705 0.00036314 0.00429020
C 7.04411669 0.93651685 23.06317200 0.00016998 0.00186022 0.00142819
C 1.50049918 5.09664779 30.68599822 -0.00155371 0.00179512 0.00048723
C 2.94656387 11.88898592 18.28755477 0.00234120 -0.00475030 -0.00014283
C 5.38682125 7.68019634 27.13138932 -0.00914819 -0.00307941 -0.00184535
C 1.34816326 11.62322008 26.50656786 0.00112653 -0.00302371 0.00724129
C 6.92722906 7.35556747 18.71220300 -0.00716038 0.00005188 -0.00126841
C 5.64709958 0.99461791 31.28281869 0.00478918 0.00511805 -0.00395626
C 2.73366284 5.49611450 22.59664154 -0.00090347 0.00043957 -0.00251725
C 6.39541467 2.15679377 23.02551492 0.00510774 -0.00030675 -0.00325397
C 2.39414342 4.01063164 30.62811944 0.00284142 -0.00102301 0.00218894
C 2.09775036 10.80774188 18.39341893 0.00196100 -0.00217198 -0.00545859
C 6.41896525 8.70666227 27.19739998 0.00630885 -0.00112079 0.00054388
C 2.11106516 10.45743595 26.58898950 0.00273797 -0.00085787 0.00379460
C 6.27469023 8.60247575 18.72109142 0.00450812 -0.00373624 0.00163632
C 6.28418275 2.29814986 31.09758625 0.00269539 -0.00064625 0.00010426
C 2.08611300 4.23345542 22.46696658 0.00295975 0.00454868 0.00228357
C 6.19841209 2.77608598 21.73324899 -0.00494133 0.00588110 0.00065371
C 2.74183314 3.46871141 29.34871162 0.00041063 -0.00526837 -0.00290691
C 1.91533440 10.26966364 19.67052124 -0.00532982 -0.00163777 0.00476400
C 6.69353425 9.26757646 28.46044871 0.00613561 0.00298206 -0.00795001
C 2.40480818 9.96617060 27.89436585 0.00371215 0.00511927 0.00216304
C 6.02338454 9.11902058 20.03697211 -0.00653567 0.00109727 -0.00526869
C 6.49150793 2.79846625 29.79074429 0.00150320 -0.00040659 0.00503072
C 1.80357903 3.79708189 21.17310099 -0.00413907 -0.00174715 -0.01155380
C 6.62602653 2.16118271 20.55508342 -0.00174043 -0.00569972 0.00082609
C 2.21108589 4.10802070 28.17604704 -0.00099605 0.00198900 -0.00117936
C 2.28850429 10.97888460 20.78141224 0.00426069 0.00191860 -0.00353988
C 6.18606367 8.65597511 29.62569087 0.00045779 0.00093232 -0.00680630
C 2.05839724 10.73157629 29.03746473 -0.00838003 0.00953224 -0.00275674
C 6.35580022 8.48440492 21.17522613 -0.00033166 -0.00143298 0.00361388
C 6.17820743 1.98950257 28.73166565 -0.00019598 0.00040730 0.00567819
C 2.24674496 4.52182950 20.04201764 0.00721990 -0.00008080 0.00548061
C 7.25839599 0.87812826 20.68093035 0.00046925 -0.00196739 0.00105314
C 1.37689451 5.20477675 28.32971310 -0.00145975 -0.00135720 -0.00068188
C 2.98203231 12.11811049 20.71010721 0.00531094 -0.00426057 -0.00055544
C 5.40306923 7.51736707 29.51141667 -0.00080365 0.00562519 -0.00230060
C 1.48672311 12.00535912 28.91043273 0.00297213 -0.00166963 -0.00659206
C 7.04196269 7.24346895 21.10099092 0.00979077 -0.00299622 -0.00718598
C 5.62746965 0.65512031 28.94608069 0.00519998 0.00322589 -0.00445579
C 2.95555314 5.68414350 20.15991064 0.00261187 -0.01127689 -0.00040254
C 7.04406822 0.20948361 18.38162726 0.00904138 0.00046497 0.00914178
C 1.43369738 5.97452488 26.02738070 0.00169948 0.00015294 0.00149393
C 2.81584050 12.74901198 23.06546335 0.00339065 0.00306994 0.00149769
C 5.61828702 6.88187483 31.85737261 0.00928695 0.00029475 0.00074008
C 1.79298878 12.80246702 31.26189301 -0.00650407 0.00462946 -0.00209960
C 6.79500861 6.64463308 23.42906850 -0.00381266 -0.00180991 -0.00513145
C 5.54494556 25.69697672 26.65783827 0.00273610 -0.00207866 -0.00066407
C 3.04839730 6.42739828 17.86238546 -0.00367588 0.00406195 -0.00160008
C 7.44541657 12.06221760 32.84337535 -0.00316258 0.00126865 -0.00212053
C 1.06330944 7.13632021 25.18800590 0.00143198 0.00264192 0.00254331
C 2.68694574 0.96740165 24.74862326 -0.00705131 0.00208490 -0.00126280
C 5.60333638 5.30282685 16.06925418 -0.00721867 -0.00098390 -0.00339885
C 1.32579000 1.17088826 16.36076162 -0.00228730 -0.00103117 0.00255261
C 6.89232684 5.39243681 24.30642665 0.00097938 -0.00549432 -0.00269272
C 5.58121367 11.82989797 24.55366894 0.00191911 -0.00242213 0.00106591