1920
Time=6000.00000000 pbc="T T T" Lattice="25.33733154 0.00000000 0.00000000 0.00000000 25.86149074 0.00000000 0.00000000 0.00000000 32.91020396" energy=-12248.98262680 virial="-28.94811049 -10.99880248 -15.06925820 -10.99880248 -31.36386246 20.21542972 -15.06925820 20.21542972 -18.59547958" stress="0.00093659 -0.00054778 -0.00074385 -0.00054778 0.00061299 0.00090858 -0.00074385 0.00090858 0.00116421" Properties=species:S:1:pos:R:3:vel:R:3
O 5.92370450 3.09276135 6.98791206 0.00099806 -0.00290958 0.00507091
O 2.61843070 3.87213563 15.80177257 -0.00382198 0.00014438 0.00199382
O 1.85739951 9.97417830 1.12529343 -0.00467564 -0.00088065 -0.00233085
O 7.03135143 9.65727776 10.33109293 0.00323321 -0.00249783 0.00106723
O 2.31475253 10.39234488 9.32095452 0.01114603 0.00731271 0.00411494
O 5.98439550 9.18922504 1.64517389 0.00378279 -0.00150385 0.00125841
O 6.66656803 2.48844504 15.26083500 0.00256615 -0.00808991 0.00651753
O 1.86055190 3.60153239 7.36191957 0.00177222 -0.00229931 0.00108589
O 6.53858247 1.23743314 17.52406347 -0.00564195 -0.00384955 -0.00029953
O 1.59053070 5.31034417 9.24745999 -0.00887390 -0.00165374 0.00526145
O 2.18563706 11.85003781 7.19794754 -0.00460912 0.00131853 0.00723470
O 6.04682893 7.83107572 32.35365360 -0.00310021 0.00718401 -0.00087554
O 2.31989173 11.67852427 32.09801990 -0.00018321 0.00355007 0.00171064
O 6.32238832 7.87753896 8.29021519 0.00489145 0.00455518 -0.00168134
O 5.96319024 1.44747489 8.98138070 -0.00006999 -0.00086683 0.00328792
O 2.48317213 5.38309214 17.79635970 0.00399175 -0.00191000 -0.00360378
O 5.32320270 2.73935855 23.62994819 0.00313008 0.00051980 -0.00257784
O 2.73916359 3.44101114 32.00798050 0.00145652 0.00340244 0.00408292
O 0.92930848 10.27060755 18.03529410 0.00107132 0.00843512 -0.00127531
O 6.55382355 9.12494448 25.86936134 0.00552548 -0.00129422 0.00011825
O 2.74114108 10.47240547 25.87142516 -0.01482312 0.00176965 -0.00580659
O 5.74075571 9.49622973 18.08036288 0.00081773 0.00147014 -0.00215482
O 7.01186854 2.44181703 31.49107077 -0.00119866 -0.00706026 -0.00111999
O 1.14837887 4.05874685 23.90926422 -0.00391447 -0.01019395 -0.00419506
O 6.40252488 1.19765249 0.95089485 -0.00009376 -0.00062824 -0.00418531
O 1.87354553 5.72697732 25.92176597 0.00308537 0.00363981 -0.00301007
O 2.08191643 12.06857709 23.91854034 -0.00165756 -0.00007885 -0.00337041
O 6.14913382 7.45427416 16.29312084 -0.00539396 -0.00240300 -0.00061366
O 1.87079047 11.55795183 15.47293450 0.00833288 0.00463596 -0.00179087
O 6.08301429 7.41236910 23.93742567 0.00592124 0.00127817 0.00139368
O 5.86235291 1.07497758 25.47385109 -0.00022524 -0.00216148 0.00339218
O 2.17846250 5.05709849 1.09347050 0.00678627 -0.00435085 0.00549836
O 5.54955981 15.49089711 6.67836819 0.00237870 0.00387674 -0.00139702
O 2.62446605 16.18985489 14.64521379 -0.00285153 0.00267297 0.00654331
O 1.26671957 22.98552790 1.36851723 -0.00519793 -0.00113622 -0.00695383
O 6.71709955 22.12142725 8.91198953 0.00226653 -0.00381417 -0.00056478
O 2.88428693 23.32431759 9.42066983 -0.00469941 0.00145097 -0.00468264
O 6.48845596 21.83393084 0.59991147 0.00020829 -0.00621392 -0.00324232
O 6.99143860 15.43487297 14.90121815 0.00175739 -0.00210590 0.00201397
O 1.66642220 16.87269281 6.91241345 -0.00986271 0.00420511 0.00590217
O 6.07438465 14.41489520 16.96676328 0.00636811 -0.00256134 -0.00476108
O 1.94379120 18.53306174 8.78529610 -0.00193503 -0.00467090 -0.00087768
O 1.57835645 24.56879116 7.40173793 -0.00216340 0.00316646 -0.00181089
O 6.96546203 20.28157398 31.51662695 0.00090788 0.00389203 -0.00142749
O 1.90328627 24.28097315 32.02757111 -0.00194803 -0.00550967 -0.00016989
O 6.87865083 20.60605373 6.86678730 0.00236850 -0.00979407 -0.00301189
O 6.75504063 14.10878627 8.67553298 0.00066671 -0.00069339 0.00226620
O 2.42792518 17.80227945 16.88029306 0.00312148 0.00017979 0.00114448
O 5.57805090 15.81064629 23.05566640 -0.00187096 0.00542490 -0.00380104
O 2.88340009 16.68095171 31.52877400 0.00310059 -0.00058000 0.00434061
O 1.81685687 22.90715145 17.60678999 -0.00115895 -0.00301188 -0.00212142
O 6.98121963 22.01292461 25.64752529 0.00249422 -0.00084366 -0.00249172
O 2.33845592 22.77430852 25.86640262 0.00110996 -0.00189680 -0.00243734
O 6.15966148 22.00435562 17.15860334 0.00497435 0.00641787 -0.00326928
O 6.61972333 15.39749688 31.37746680 -0.00139122 0.00205798 -0.00154702
O 1.26966554 16.73872930 23.16946906 0.00705346 0.00154212 0.00197649
O 6.15654307 13.85090875 0.64775926 0.00465958 0.00037092 0.00031915
O 1.98169787 17.79383513 25.41846824 0.00307706 -0.00261459 -0.00068195
O 1.19384885 24.81590478 23.58189792 -0.00122959 0.00123648 0.00362044
O 7.08375465 20.32591638 15.21038297 -0.00603131 0.00350586 0.00541760
O 2.30229681 24.86809593 15.82070242 0.00719339 0.00351244 -0.00350585
O 6.66001591 20.71967809 23.52645158 -0.00635009 0.00191835 -0.00799584
O 6.29417595 14.09099612 25.19115875 -0.00351201 0.00774430 -0.00388368
O 1.80719222 18.41627176 0.52990006 0.00131080 0.00460300 0.00747330
O 14.05352669 2.91763315 6.85555083 0.00172436 0.00262480 -0.00769347
O 10.71404974 3.70887927 15.51753967 0.00169405 0.00189463 0.00367393
O 10.46178101 10.31094892 1.21275040 0.00237581 0.00158800 -0.00058764
O 15.20317934 9.19199407 9.54433245 0.00031641 0.00600477 0.00915428
O 11.10613877 10.03042305 9.40132723 0.01311217 0.00847387 0.00130282
O 14.67116868 9.41146859 1.23174246 -0.00208034 0.00212642 -0.00071964
O 15.42644457 2.35838503 15.32389618 0.00131777 -0.00433692 0.00118336
O 10.07993297 3.49363430 6.85879943 -0.00596928 0.00121546 -0.00024388
O 14.81525679 1.23337532 17.52467224 0.00551282 -0.00213482 -0.00160894
O 10.44698041 5.03837305 9.12131732 0.00069244 0.00532291 0.00020524
O 10.06234093 11.57625629 7.58955718 -0.00429166 0.00094926 -0.00378577
O 14.97612095 7.76525358 32.14201339 -0.00864831 0.00225689 0.00047572
O 11.13835496 11.64040508 32.13879641 -0.00626806 0.00027530 0.00218384
O 14.40757117 7.39816963 7.26722496 -0.00008425 0.00567011 -0.00614356
O 14.98403345 1.39882011 9.07576645 0.00213114 -0.00032770 0.00176915
O 10.32152904 5.45424700 17.39408289 0.00175746 -0.00560552 0.00132379
O 13.92733086 2.64112924 23.50146916 -0.00035061 0.00014927 -0.00408820
O 10.86527546 3.83465486 31.72572725 0.00618773 0.00571865 -0.00076044
O 9.94608550 10.19158233 18.04570859 -0.00627467 -0.00341564 -0.00228845
O 14.82904057 9.22561726 26.06954869 0.00501661 -0.00079227 0.00055397
O 10.71963187 9.76569192 26.10084735 0.00155019 -0.00661856 0.00339077
O 14.39860285 9.34369857 17.92115188 -0.00255197 -0.00610933 0.00111972
O 14.81078736 2.93029062 31.88762020 0.00042695 0.00068510 0.00318372
O 10.05969627 3.51045616 23.61908165 -0.00566114 0.00263184 -0.00383550
O 14.72549504 1.12124120 0.91169635 0.00954548 -0.00031302 0.00324136
O 10.71518783 5.14813714 25.47679741 -0.00157739 -0.00050518 0.00410111
O 10.21576296 11.51582867 24.22892861 0.00408941 0.00385139 0.00585178
O 14.71197270 7.66948141 15.92863294 0.00157148 -0.00652724 0.00425774
O 10.49934324 11.62462006 15.67635869 0.00188178 -0.00114463 0.00505423
O 14.33186101 7.64776356 24.19886003 -0.00289223 -0.00504652 -0.00139947
O 14.46609671 1.46642336 25.71020420 0.00207390 -0.00039539 0.00354703
O 10.18766513 5.23544910 0.75245041 -0.00152102 -0.00214071 0.00205111
O 14.69473713 15.82330390 6.88269197 0.00807030 0.00155397 -0.00367787
O 11.37794373 16.46411280 14.98017040 0.00036802 -0.00679567 -0.00507504
O 10.34850295 23.31724845 1.34819978 -0.00684766 0.00334443 0.00424376
O 15.43271676 22.48209643 9.59593798 0.00381263 0.00488943 0.00249181
O 10.68057820 22.90413452 9.65748193 0.00855065 0.00428639 -0.00033519
O 13.93408172 21.90748846 1.53193477 0.00031604 -0.00825818 0.00771691
O 15.27741879 15.55372537 15.00776870 -0.00279485 -0.00097863 -0.00282670
O 10.28588562 16.32367322 6.80169196 0.00306316 0.00359346 0.00277838
O 15.48571683 13.94098164 17.38250689 -0.00311490 -0.00113555 -0.00848009
O 10.94640844 17.98945847 8.83871904 0.00247271 0.00548664 -0.00026838
O 10.55686048 24.82610023 7.79442370 0.01052975 -0.00292391 0.00363352
O 14.41823669 20.87344519 32.22440180 0.00456140 -0.00727466 0.00701427
O 10.23179913 24.82080733 32.18684551 0.00108563 0.00002583 0.00347221
O 14.62915595 20.66009659 7.50223672 -0.00257281 -0.00293420 0.00169061
O 14.93860474 13.68864057 8.66701177 -0.00715555 -0.00588775 -0.00142223
O 11.20012939 18.33571433 16.81881634 0.01137104 0.00262050 0.00033511
O 13.87131529 15.25019226 23.31849367 0.00012758 0.00755339 0.00222302
O 11.26185896 16.63740642 31.58894295 -0.00697051 0.00135203 -0.00679729
O 10.23296308 23.00851163 18.14920328 -0.00455933 -0.00358045 0.00311899
O 14.87204704 22.26106470 25.99635990 0.00401818 -0.00086889 0.00574433
O 11.18146253 23.18414285 26.05320562 -0.00480073 -0.00028627 0.00625693
O 14.42579863 21.73886554 17.62439871 -0.00341376 -0.00383334 -0.00350747
O 14.88929806 15.88136659 31.35178979 -0.00004206 -0.00457868 -0.00395102
O 10.04481842 16.76517392 23.14747690 -0.00744241 0.00083186 0.00418881
O 14.89398304 14.38409331 0.52578200 0.01044501 -0.00033377 0.00117504
O 10.42821553 18.09735853 25.30883680 0.00413775 -0.00029096 0.00566583
O 10.46958816 24.68744626 24.11678287 -0.00186606 0.00068484 -0.00733128
O 15.22770795 20.44144360 15.37189090 -0.00581986 -0.00191626 0.00258577
O 9.90979698 24.07179084 15.95969127 0.00259063 -0.00827293 0.00960950
O 14.64656719 20.58420897 23.97127740 -0.00387333 -0.00568513 -0.00375406
O 14.44126399 13.87880301 25.50654515 0.00826614 -0.00151321 -0.00275326
O 10.63797906 18.16695341 0.56558042 -0.00414504 0.00157175 0.00085570
O 23.23037223 3.03204577 6.67596845 -0.00243341 0.00400403 0.00481029
O 20.23320253 4.07107590 14.95962767 0.00710192 0.00342435 -0.00645914
O 18.29636609 10.65629494 1.13303035 0.00312759 -0.00258505 -0.00265516
O 23.07587831 9.73681872 9.53254978 0.00173207 -0.00742664 0.00171428
O 18.89339455 10.07253226 9.73248220 -0.00907935 0.00259807 -0.00355564
O 22.90807231 8.92465829 0.54802771 -0.00164137 -0.00413635 0.00027023
O 23.72756719 2.61594561 14.81073737 -0.00889769 -0.00430125 0.00383194
O 18.39713696 3.60376083 6.49205133 0.00294533 -0.00229292 -0.00929970
O 23.14593320 1.18359186 17.01286340 -0.00148136 0.00347195 -0.00461899
O 18.85467279 4.88829491 8.78660308 -0.00239789 0.00460852 -0.00059232
O 18.59429186 11.47717435 7.43759639 -0.00273950 0.00334652 -0.00698103
O 23.63644518 7.08185423 31.96043457 -0.00179352 -0.00670912 -0.00105404
O 18.89247256 12.39574755 32.02021279 -0.00145493 -0.00519939 -0.00032397
O 23.36502784 8.38504320 7.25534797 -0.00949057 0.00331871 0.00005867
O 24.01516290 1.41814905 8.58795264 0.00378549 0.00275052 -0.00049276
O 19.36690255 5.38250371 17.05662131 0.00235033 0.00619307 -0.00376513
O 22.26122366 2.92131323 23.11076295 0.00383035 0.00731726 0.00150808
O 19.01616534 3.60799185 31.21138463 0.00066221 -0.00188925 0.00357436
O 19.08712898 9.81715945 17.94362160 0.00127280 -0.00019414 -0.00210000
O 23.45196131 9.54318291 26.03966453 0.00644934 -0.00446413 -0.00314854
O 19.68386774 10.03372105 26.40588713 -0.00424612 -0.00136661 0.00389025
O 23.49049490 9.23924757 17.45349697 -0.00318707 -0.00427376 0.00334594
O 23.53620979 2.80558252 31.33823868 0.00382442 -0.00555069 0.00139785
O 18.48928896 3.54141571 23.16489589 0.00211578 0.00060404 -0.00023860
O 23.85189427 1.45266594 0.52608476 0.00107164 0.00075916 0.00297952
O 19.05322224 5.40044419 24.99380000 -0.00930469 -0.00304473 -0.00029598
O 18.98947892 11.61438871 24.33089516 0.00574811 -0.00593825 0.00573935
O 23.62183307 7.51362737 15.57116082 0.00283244 -0.00680381 0.00174811
O 19.45656516 11.92149911 15.91522109 0.00657358 -0.00259950 0.00544076
O 23.68238719 8.16267621 23.76257553 0.00007859 -0.00012286 0.00532945
O 23.21484506 1.48934982 25.14536555 -0.00113416 0.00281883 -0.00271861
O 19.03978727 5.45990949 0.37951965 0.00556080 0.00519568 -0.00509516
O 22.61839147 15.65205560 7.02761272 0.00157632 0.00705648 -0.00335397
O 19.35207826 16.84390937 15.34752279 -0.00907475 -0.00229435 -0.00655179
O 18.70371641 22.80455763 1.23018567 -0.00308411 0.00252116 0.00176980
O 23.63082627 22.20137845 9.32705519 -0.00012676 -0.00402214 -0.00109999
O 19.81714405 23.68866252 9.41618629 0.00484114 0.00001699 -0.00127159
O 23.39472833 22.16679099 1.22206297 -0.00091728 -0.00101445 -0.00727420
O 23.48694919 15.69622051 14.84667655 -0.00195037 0.00175471 0.00044569
O 18.68152357 16.65100229 7.02069633 -0.00498674 -0.00676758 -0.00104825
O 23.51130494 14.55685447 17.14570078 0.00035159 0.00647573 -0.00465151
O 18.85644603 18.37966894 8.99224673 -0.00441764 0.00479264 -0.00190771
O 19.18113015 24.89172325 7.22943320 0.00441530 -0.00198472 -0.00614557
O 23.12444036 20.45794625 32.20067921 0.00265362 0.00162095 0.00372721
O 18.50303734 24.60082041 32.30619834 0.00113996 0.00129913 -0.00165545
O 23.38205738 20.55708153 7.39388852 -0.00146280 0.00141471 0.00182664
O 23.42778130 14.29211329 8.93514853 0.00451769 -0.00380454 -0.00148166
O 18.44188173 18.30900692 17.72633918 0.00037892 -0.00112208 0.00179226
O 22.57457522 15.78342214 23.32412610 -0.00701443 0.00937266 -0.00157445
O 19.81384558 16.97231016 31.91622368 0.00050880 -0.00337208 -0.00342595
O 18.12279787 23.65807289 17.67690569 0.00163986 0.00029829 0.00085992
O 23.58890962 22.19050039 26.08125615 -0.00956125 0.00335134 -0.00366184
O 19.31849149 23.10496014 26.14951087 0.00636315 0.00269982 -0.00346676
O 22.52700771 22.04373952 17.69643325 -0.00356821 -0.00407244 -0.00315373
O 24.24520977 15.44692136 31.58538661 0.00213506 0.00044888 0.00483537
O 18.27921660 16.56155542 24.03409191 0.00242852 0.00137583 0.00074904
O 23.13346652 14.01557528 0.80569426 0.00489358 -0.00078023 -0.00115653
O 19.08730963 18.08407600 25.84242021 0.00480889 0.00845497 0.00166764
O 18.82865178 24.54453514 23.86763474 0.01034565 -0.00527627 0.00465461
O 23.31199516 20.61010033 15.63599009 -0.00517321 0.00472190 0.00690090
O 18.51301431 24.82987999 15.44070934 0.00007825 0.00110438 0.00005823
O 22.99161945 20.66980027 23.98531668 -0.00090400 0.00300487 -0.00098254
O 22.97609699 14.27339949 25.43793542 -0.00406069 -0.00440392 -0.00090881
O 18.74101241 18.13103159 0.95884958 -0.00659014 0.00744059 0.00287925
N 7.76918542 13.17761533 2.08226940 -0.00586602 0.00246444 0.00086165
N 0.98995412 6.40139958 11.17978783 0.00507022 -0.00010600 0.00457733
N 2.96433704 25.56294091 5.90708488 -0.01281653 -0.00116216 0.00438033
N 5.17536178 6.49449387 14.61517493 0.00388640 -0.00102668 0.00005465
N 1.10151143 25.73828012 14.14684256 -0.00059829 0.00157968 -0.00136625
N 7.00578457 6.70644659 6.45741515 0.00383143 -0.00032139 0.00008343
N 5.42730544 12.97347037 10.17955390 0.00397635 0.00168223 -0.00145572
N 3.46859128 6.09436619 2.68619051 0.00395707 0.00206334 0.00020118
N 7.22379368 13.19410126 18.56811320 0.00343105 0.00016607 -0.00308761
N 0.91218963 6.74492712 27.78747715 -0.00024460 0.00146253 -0.00260715
N 2.53477541 0.08742608 22.12544036 0.00175319 -0.00450107 -0.00232999
N 5.31012106 6.58652108 30.57092525 -0.00468315 -0.00370992 -0.00334850
N 1.01919341 25.59748132 30.48004763 0.00746700 -0.00106410 -0.01071102
N 7.46670632 6.51648473 22.39138541 -0.00482165 -0.00256130 -0.00438117
N 5.43334796 12.65716602 26.75339943 -0.00038703 0.00544728 -0.00320756
N 3.48103820 6.45813495 19.50959772 0.00015678 -0.00281546 -0.00017122
N 7.22978050 25.79654731 2.64568758 0.00078072 -0.00011801 -0.00133993
N 1.13379662 19.61094759 10.66172242 -0.00191549 -0.00427301 -0.00382536
N 3.20399991 13.07049112 5.51164492 0.00285136 -0.00988012 0.00109766
N 5.51386123 19.63390883 13.62637926 -0.00066151 0.00747804 0.00339839
N 1.12002234 13.09314314 13.90733623 -0.00323373 -0.00061501 -0.00134941
N 7.71052559 19.15210402 5.23978092 0.00224406 0.00483686 -0.00008590
N 5.25207280 0.07781331 10.68253779 0.00210957 -0.00353900 -0.00006341
N 3.01346054 19.47762292 2.18888189 -0.00127462 0.00365670 -0.00061921
N 7.53573407 0.07862947 19.26793425 -0.00700042 0.01137206 0.00401860
N 0.97683440 19.17492947 27.00732816 0.00594012 -0.00044499 0.00066319
N 3.33983590 13.08709652 22.27764038 -0.00764963 -0.00220433 -0.00097649
N 5.31753464 19.37701688 30.17928585 -0.00565138 0.00094374 0.00329036
N 1.12761839 12.85519597 30.51350197 0.00559717 0.00283092 0.00003139
N 7.41376456 19.33217663 21.83966958 -0.00568599 -0.00066774 0.00262800
N 4.87737930 25.74646412 27.14886872 -0.00012060 0.00912777 -0.00404287
N 3.39043572 19.00964164 18.68163804 -0.00525446 -0.00085585 -0.00393151
N 15.56042617 12.94596964 2.20638049 -0.00964835 0.00270876 0.00214008
N 9.65357544 6.35124072 10.81811437 -0.00240828 -0.00668190 0.00327954
N 11.54125924 0.18779702 6.16003788 0.00849808 0.00016930 -0.00295349
N 13.62160524 6.66286657 14.19729120 -0.00070759 0.00300570 0.00469631
N 9.27615210 25.55360473 14.28101065 -0.00304761 -0.00051577 -0.00087888
N 15.92081832 6.61396518 5.79815363 -0.00376505 -0.00730369 -0.00352384
N 14.02665859 12.61667135 10.49887411 -0.00686432 0.00824432 -0.00092878
N 11.56217694 6.31486105 2.21753168 0.01258388 0.00107715 0.00645109
N 16.47767732 12.81474380 19.11253820 0.00228158 0.00528651 -0.00168487
N 9.32932045 6.18420058 26.93976289 -0.01042288 -0.00333182 -0.00486127
N 11.61219991 0.10370378 22.58657408 0.00384080 0.00346429 0.00387260
N 13.99768369 6.33604343 30.70730802 -0.00140558 -0.00488006 -0.00502407
N 9.07255831 0.00614829 30.47125634 -0.00006912 -0.00486197 0.00142844
N 15.72152543 6.55582078 22.64190503 -0.00367705 0.00304608 -0.00155069
N 13.62927484 12.59375302 27.11097731 0.00383131 -0.00343310 0.00275532
N 11.74261829 6.20184886 19.06583903 0.00142873 -0.00300982 0.00183320
N 15.95057392 25.85159331 2.54797920 0.00607969 -0.00352290 -0.00475806
N 9.64399306 19.08592484 10.40170270 0.00439755 -0.00138858 -0.00378235
N 11.59526702 12.54558398 6.14574463 0.00123864 -0.00031688 -0.00705249
N 13.53662928 19.71108928 14.02656919 -0.00407271 -0.01014634 -0.00198247
N 9.97687652 12.99995664 13.90749765 -0.00347799 -0.00593105 -0.00522633
N 16.28558895 19.88738337 6.14027599 -0.00024057 0.01171403 -0.00624561
N 13.65866822 0.21938336 10.55598330 -0.00441113 0.00729789 -0.00235087
N 11.68356662 19.19788438 2.34886650 0.00196062 -0.00096634 0.00506556
N 15.94730559 0.00534127 19.09044751 0.00129949 0.00420053 0.00026297
N 9.85515658 19.52209443 26.97189918 -0.00354020 0.00193220 -0.00228538
N 11.23746156 13.01842840 22.75775651 0.00399926 0.00029416 0.00634665
N 13.91519953 19.28041073 30.62409711 0.00061460 0.00542902 0.00868141
N 9.91107200 12.80244578 30.56863517 -0.00030816 0.00236383 0.00865098
N 15.95704961 19.51402541 22.40376209 0.00537035 -0.00526409 -0.00614199
N 13.49583090 0.09334116 27.28978743 -0.00465614 -0.01102624 0.00863147
N 11.73697646 19.49881285 18.65489252 -0.00681243 -0.00322424 -0.00044468
N 24.32646311 12.94806326 2.51479013 0.00208497 0.00149213 0.00230281
N 18.15713686 6.27281021 10.40545471 0.00007948 0.00039078 -0.00414765
N 20.30982078 25.80772307 5.50711787 -0.00412531 0.00048890 0.00602950
N 22.28415658 6.49579469 14.00499976 -0.00779859 0.00073141 -0.00327256
N 17.92707197 0.44480377 13.82999771 0.00181967 0.00614794 -0.00315410
N 24.30984614 6.98510809 5.68095894 0.00236779 -0.00106688 -0.00440427
N 22.41210247 12.92754163 10.37408312 -0.00120654 0.00603785 -0.00025773
N 20.19298621 6.47379426 2.15140744 -0.00327525 -0.00377624 0.00843504
N 24.36022529 13.15234054 18.76363632 -0.00888363 -0.00431893 0.00258316
N 18.05736027 6.71533265 26.55139414 -0.00356025 0.00530665 -0.00135558
N 20.49312626 25.37362167 22.40266551 0.00737691 -0.00518550 0.00404283
N 22.14537538 6.35095588 30.33887577 -0.00697716 0.00235192 0.00345593
N 17.70736854 0.09687608 30.67790920 0.00610499 -0.00293961 -0.00219126
N 24.23510332 6.54255098 22.33267174 0.00753816 0.00031798 0.00328413
N 21.96417683 13.08467199 27.12315015 0.00054869 0.00296538 -0.00121155
N 19.90254621 6.77886214 18.77999065 0.00692466 -0.00414668 -0.00149778
N 24.15351308 25.82140910 2.19482232 -0.00284069 0.00209085 -0.00451179
N 18.06174544 19.58679057 10.76994791 0.00277694 -0.00766982 -0.00080086
N 20.05138676 12.47050874 6.01539119 -0.00079905 0.00100185 -0.00417630
N 22.12942898 19.48631851 13.94455697 0.00314445 -0.00351811 0.01023892
N 18.43393928 13.13977597 14.26521867 0.01298765 0.00165377 0.00052720
N 24.47134015 19.37034342 5.81637999 -0.00129850 0.00626245 -0.00111943
N 22.56148722 0.27711008 9.97135740 0.00939458 -0.00312042 -0.00487463
N 20.08186830 19.23403010 2.37431939 -0.00274489 -0.00054690 0.00166620
N 24.06270667 25.84330861 18.74540227 0.00114494 -0.00883511 0.00245146
N 17.71187450 19.16284659 27.38675009 0.00058168 -0.00094728 -0.00623219
N 20.16268944 12.71124563 22.67294510 -0.00735823 -0.00401141 0.00092082
N 22.16937921 19.27280210 30.54749233 -0.00285620 0.00877859 -0.00125446
N 17.54311946 13.25691670 30.45538648 0.00267177 0.00813955 -0.01433285
N 24.38545823 19.89340277 22.38476795 0.00268729 -0.00803091 -0.00140017
N 22.17695128 0.25859423 26.83827831 0.00215883 0.00499343 0.00448058
N 19.96280705 19.06407243 19.33740838 0.00427255 -0.00949274 -0.00150940
C 7.46802847 0.45579907 5.01930298 0.00663360 0.00745945 -0.00454554
C 1.03205770 6.20277717 13.58189627 0.00053853 0.00169083 -0.00625422
C 3.35342361 12.62023351 3.10753803 -0.00420357 0.00472665 0.00394117
C 5.02625909 7.24257874 12.25213630 0.00515928 0.00540455 -0.00109254
C 0.82618008 12.76891152 11.60836351 -0.00338993 -0.00170964 0.00455945
C 7.22168109 6.86181109 4.06111810 -0.00192014 -0.00056694 0.00321248
C 5.06623909 0.26985083 13.08557354 -0.00416507 0.00665060 -0.00489328
C 3.37832914 6.00029378 5.03651453 0.00183350 -0.00823607 -0.00300989
C 7.08348927 1.26166842 6.04226976 -0.00271492 -0.00262086 -0.00886443
C 1.35727908 5.56990401 14.69971204 -0.00108524 -0.00631317 -0.00578591
C 3.06230431 11.82131399 2.02545554 -0.00688895 0.00137136 -0.00658157
C 5.47341096 8.01453811 11.23071525 0.01009592 0.00190673 -0.00464228
C 1.12472887 12.17715715 10.39909959 0.00432257 -0.00905648 0.00233260
C 7.01541161 7.42715072 2.86262879 -0.00361318 -0.00156672 -0.00609531
C 5.32981947 0.99874745 14.23950261 0.00010340 -0.00366392 -0.00303450
C 3.01872551 5.38668770 6.19916536 0.00065179 0.00058812 -0.00156489
C 6.24530636 2.39127416 5.90897955 -0.00131886 0.00321162 0.00835602
C 2.08234212 4.32755281 14.66613028 -0.00153933 -0.00759631 0.00891540
C 2.41377837 10.61361977 2.19876491 -0.00335287 -0.00508703 -0.00080861
C 6.49547402 8.95781979 11.39244353 -0.00357204 -0.00695366 0.00010945
C 1.91750457 11.01890475 10.43379903 0.00233789 -0.00067702 0.00735778
C 6.35131029 8.69074821 2.81614730 0.00255094 0.00060190 -0.00156090
C 6.22328583 2.07109697 14.11222606 0.00871722 0.00273380 0.00666864
C 2.18819305 4.22737410 6.23234543 0.01355772 0.00771759 -0.00520428
C 5.74737455 2.58352998 4.64142269 0.00369395 0.00711739 -0.00248201
C 2.26215409 3.71905175 13.46237257 -0.00022800 -0.00584571 0.01054077
C 2.16037125 10.18892309 3.53743737 0.00604190 -0.00183127 0.00475762
C 6.99889728 9.15877234 12.66955201 0.00275886 -0.00184989 -0.00476225
C 2.37877695 10.44832912 11.69245323 -0.00571597 0.00391287 0.00465120
C 6.20311419 9.39867383 4.04074325 -0.00035113 -0.00490304 0.00104754
C 6.49366474 2.76162073 12.92061474 -0.00452187 0.00752668 0.00228523
C 1.91950300 3.72294477 4.96704620 0.00076576 -0.00021516 -0.00328469
C 6.06755310 1.76843137 3.61777643 -0.00562280 0.00578399 0.00899938
C 2.01890499 4.44298079 12.29135713 -0.00352349 0.00319362 0.00149971
C 2.48458912 11.00755779 4.64733612 0.00170843 -0.00369304 -0.00846048
C 6.55710433 8.34800753 13.71506265 0.00050781 0.00036125 -0.00201517
C 2.08758536 11.08405717 12.86676375 -0.00092352 -0.00002772 -0.00640785
C 6.53863406 8.80944063 5.26623121 -0.00199156 0.00210023 -0.00554795
C 6.06629859 2.08538299 11.75488752 0.01025546 0.01280902 -0.00328705
C 2.24096922 4.28031179 3.72708486 -0.00582996 -0.00111934 0.00373959
C 6.94665600 0.72189451 3.74695527 0.00390697 -0.00346900 0.00025128
C 1.39195183 5.67234661 12.31475685 -0.00525724 -0.00898088 -0.00675273
C 3.03957401 12.28490892 4.43011776 -0.00078580 -0.00063908 0.00063485
C 5.55228123 7.40672906 13.55070351 0.00013019 -0.00366704 0.00536202
C 1.29351900 12.25371264 12.81973900 -0.00670631 0.00940713 -0.00577494
C 6.84000818 7.40985481 5.27768212 0.01536599 0.00420592 -0.00055722
C 5.48273501 0.82481371 11.82007232 -0.00494330 -0.00022784 0.00550842
C 3.00590644 5.48398377 3.74891985 0.01420375 -0.00117934 0.00079961
C 6.71286826 0.08723684 1.37413700 0.00047266 0.00119113 0.00343171
C 1.26210169 6.31168139 9.85101834 -0.00801106 -0.00759748 0.00129843
C 2.67358247 12.93871269 6.75587183 -0.00161022 -0.00707670 -0.00013247
C 5.61642335 6.46575023 15.84783922 -0.00344260 -0.00458965 -0.00271330
C 1.44673606 12.65153976 15.15577875 -0.00090046 0.00550526 -0.00136078
C 6.61762693 6.80718594 7.76176817 0.01254921 -0.00329391 -0.00170630
C 5.75150265 0.32692135 9.45519576 0.00045552 0.00616484 0.00332719
C 2.96186127 5.96183793 1.42108531 -0.00376048 -0.00063477 -0.00555948
C 6.53701408 12.05989370 16.59394859 -0.00145702 0.00323306 0.00386325
C 1.19191882 7.60138071 9.12724746 -0.00410074 -0.00345838 0.00817220
C 2.77423255 0.80280737 8.05467694 0.00308540 0.00257868 0.00261515
C 6.00707385 5.33765885 32.56434591 0.00382461 -0.00691668 0.00220172
C 1.50357085 0.71216071 32.65684447 -0.00270197 -0.00130852 0.00791459
C 6.73778265 5.59610484 8.68904136 0.00507173 -0.00011176 -0.00527392
C 5.70305896 12.07197923 7.98434272 -0.00632100 0.00040104 0.00731349
C 2.79893945 7.80165103 17.53702570 -0.00036443 -0.00063313 -0.00233937
C 7.33885723 0.41169652 21.64474879 0.00484228 -0.00041389 0.00582676
C 0.74098829 5.90814548 30.02434138 -0.00080732 -0.00052829 -0.00229885
C 3.23249963 12.56036840 19.87713518 -0.00048573 -0.00291656 -0.00846159
C 5.00436737 6.96843385 28.24243916 -0.00476176 -0.00492628 0.00487082
C 0.86498569 12.70901542 27.97369088 -0.00251762 -0.00282114 -0.00062679
C 7.57093950 7.08039939 20.05628617 -0.00445879 -0.00330000 0.00405348
C 4.97284177 0.24421337 29.53659496 -0.00439241 -0.00139604 -0.00315057
C 3.40083359 5.99173715 21.87716829 -0.00325842 -0.00232686 0.01012286
C 6.76910782 1.00935654 22.74067132 0.00520594 -0.00803089 0.00685677
C 1.17633568 5.09686196 31.03287191 -0.00235654 -0.00673409 -0.00094119
C 2.76891360 11.83256357 18.80142124 0.01317970 -0.00526015 -0.00184009
C 5.37734504 7.52772732 27.02159134 -0.00254643 0.00230581 0.00532232
C 1.25777299 12.01205042 26.87565971 0.00246341 -0.01223444 -0.00063995
C 7.15182529 7.74088019 18.93583708 -0.00586214 -0.00219359 0.00715286
C 5.47525442 0.85799807 30.63960143 0.00523817 0.00240881 -0.00268175
C 2.76182614 5.50386310 22.98033999 -0.00080604 -0.00680410 -0.00015227
C 5.97724204 2.16571741 22.55583485 -0.00803827 -0.00018232 0.00105573
C 2.11315010 4.04804196 30.96056318 -0.00570820 -0.00281958 0.00337252
C 1.80176139 10.83482462 19.04426089 0.00150575 -0.00234226 -0.00570021
C 6.21038993 8.61079102 27.06641002 -0.00868086 0.00036014 -0.00659985
C 2.16253157 10.93996577 26.97912741 -0.00890953 -0.00251583 0.00119662
C 6.33656562 8.87438718 19.14695164 -0.00440167 0.00461645 0.00322470
C 6.27641100 1.97633414 30.45283762 0.00105220 0.00381306 -0.00832913
C 1.73508964 4.57141352 22.83318078 -0.00557191 0.00055864 0.00465202
C 5.89986320 2.75162700 21.28375323 0.00214929 0.00935102 -0.00198535
C 2.35332439 3.75527371 29.57443324 -0.00057842 -0.00406456 -0.00665785
C 1.74495377 10.34407810 20.37419847 -0.00677240 0.00084012 -0.00653186
C 6.63404635 9.16638897 28.26473143 0.00156191 0.00186658 -0.00220806
C 2.25983667 10.29243592 28.21411686 -0.00310172 -0.00498634 -0.00225652
C 6.04485918 9.35445032 20.43508433 -0.00457867 -0.00356353 0.00251797
C 6.30826510 2.59043608 29.18860095 -0.00006159 -0.00534494 -0.00252393
C 1.53349400 4.01231285 21.54455760 -0.00001338 -0.01130067 0.00411232
C 6.37692732 2.05422605 20.20496724 0.00638807 -0.00076629 -0.00538159
C 2.00119631 4.64897617 28.50128626 -0.00047448 -0.00256526 -0.00144158
C 2.37817570 10.94680720 21.46015754 0.00565249 0.00248984 -0.00286203
C 6.30220116 8.62464150 29.47493937 -0.00213236 -0.00580042 0.00090223
C 1.86486721 10.95772791 29.34100645 0.00137459 0.00519713 0.00809293
C 6.45539273 8.64092922 21.53101746 -0.00227618 -0.00027080 -0.00365027
C 5.81154056 1.92468393 28.08887631 0.00712136 -0.00255161 0.00369286
C 2.13000966 4.56592992 20.45255876 0.00174615 0.00785110 0.00397296
C 7.10557429 0.84024659 20.38094156 -0.00292033 -0.00361428 -0.00060085
C 1.21901702 5.77609424 28.76979375 0.00961935 0.00248589 -0.00216145
C 2.97307111 12.25976304 21.19003736 0.00493624 -0.00411838 -0.00091693
C 5.52436986 7.40002037 29.45663407 -0.00397951 0.00298533 -0.00157186
C 1.24352320 12.16564132 29.29223774 -0.00516993 0.00121477 0.00198328
C 7.18633329 7.40328615 21.40655873 -0.00486959 -0.00110541 -0.00103355
C 5.23869502 0.62441617 28.22085024 0.00505334 0.00076565 -0.00056057
C 3.01193903 5.72780108 20.56536004 -0.00086496 0.00325086 0.00015674
C 7.00645558 0.22586179 18.01006852 -0.00432180 -0.00185468 -0.00464381
C 1.45768917 6.71054740 26.50371877 0.00093878 -0.00361310 0.00680605
C 2.83585115 13.00328288 23.54480474 -0.00082288 0.00252070 0.00418600
C 5.81146719 6.74215229 31.84204243 -0.00393947 -0.00434317 -0.00499081
C 1.74427316 12.69268491 31.69671184 0.00896561 -0.00215751 -0.00398361
C 6.86540014 6.56266886 23.63348245 -0.00182134 -0.00149446 -0.00687778
C 5.35885264 0.01997206 25.84924049 -0.00345939 0.00039874 -0.00851148
C 2.97227503 6.45470302 18.23654340 0.00287454 0.00402776 0.00489247
C 7.07869062 11.73561297 0.20607037 -0.00071247 0.00040473 0.00101578
C 1.46040218 8.04075433 25.78833423 -0.00282883 0.00188768 0.00083628
C 2.19604758 0.95288645 24.35149116 0.00448877 -0.00626984 0.00112621
C 5.68877085 5.18652979 16.64503604 0.00719146 -0.00400133 0.00462232
C 1.15618208 1.12809782 16.13492742 -0.00048822 -0.00271031 -0.00747500
C 7.12902987 5.32025028 24.53625785 0.00044551 -0.00167776 0.00165337
C 5.75814813 11.88987266 24.54705181 -0.00070376 0.00337930 -0.00467472