1920
Time=49000.00000003 pbc="T T T" Lattice="25.55215473 0.00000000 0.00000000 0.00000000 25.57443716 0.00000000 0.00000000 0.00000000 32.93424646" energy=-12253.54441547 virial="-52.24729096 13.60169729 -17.78839799 13.60169729 -41.97336983 -9.33440908 -17.78839799 -9.33440908 -97.71751267" stress="-0.00030052 0.00056583 -0.00089394 0.00056583 0.00021771 -0.00034812 -0.00089394 -0.00034812 -0.00231976" Properties=species:S:1:pos:R:3:vel:R:3
O 5.67072874 2.74732349 6.85363328 -0.00420976 -0.00154247 -0.00014783
O 2.68864897 4.20681590 15.07703763 0.00133901 0.00887152 0.00205524
O 1.30005550 9.81089630 1.54563329 -0.00743831 0.00256498 0.00439944
O 6.70598595 9.33485242 9.56372919 0.00304988 -0.00590680 -0.00040806
O 2.72284779 10.03127269 9.50050590 -0.00331958 -0.00025660 -0.00467470
O 5.74676602 9.04952365 1.48609502 -0.00265392 0.00602245 0.00101398
O 6.70949460 2.44785858 15.14574883 0.00049163 0.00605453 -0.00087610
O 1.39043331 3.62650149 7.01455429 0.00715334 0.00317921 0.00044167
O 6.00689879 1.06536347 17.29491291 -0.00207484 0.00093347 0.00161777
O 1.53431000 5.41117985 8.91616403 -0.00584063 -0.00502374 0.00237313
O 2.44193485 11.66804932 7.50629537 -0.00446618 -0.00137151 0.00266208
O 5.77470970 7.41217427 32.46923313 -0.00178063 0.00167012 -0.00294695
O 1.64185900 11.03081495 32.20073754 -0.00139346 -0.00119486 0.00324796
O 6.46788343 7.60029781 7.72631097 0.01046234 -0.00383451 -0.00488666
O 6.32342287 1.30862246 8.82186075 0.00009693 -0.00447940 -0.00477049
O 2.02353718 5.35867478 17.28865858 0.00466819 0.00264008 -0.00353521
O 5.90025072 2.68061066 23.41584766 0.00174463 -0.00519251 0.00118894
O 2.34498312 3.44897856 31.72043516 -0.00589146 -0.00147055 0.01121313
O 1.57992416 10.14940721 17.79445846 -0.00455777 0.00314768 0.00244841
O 7.47470689 9.32698729 26.42476487 -0.00453836 0.00242376 -0.00243565
O 2.62463981 10.02360110 25.89738864 -0.00696139 0.00284782 -0.00559560
O 5.87251331 8.81135486 17.93504936 0.00496981 -0.00160615 -0.00462965
O 7.32429535 2.28204601 31.79366619 -0.00034473 -0.00162706 -0.00776804
O 1.62166427 3.91586799 23.39298785 0.00119104 0.00281836 -0.00999534
O 6.17888145 1.05415689 0.78150352 0.00828488 0.00008894 -0.00133127
O 2.33707425 5.21205377 25.65339813 0.00270058 -0.00065437 -0.00489474
O 1.82134028 11.53931231 23.91654130 0.00472772 0.00226390 0.00511890
O 6.22525356 7.52606432 15.54686510 -0.00429938 0.00054636 0.00341041
O 2.09989726 11.58379807 15.64619422 0.00212138 0.00561653 0.00479152
O 6.74646609 7.78100149 24.19083420 -0.00553102 0.00080246 0.00255105
O 6.43709773 1.15709792 25.33608997 0.00214923 -0.00470915 0.00336659
O 1.84529426 4.90479731 0.89990011 -0.00057722 -0.00938041 0.00029432
O 6.05657916 15.56794197 6.93998395 0.00001407 -0.00108424 -0.00303177
O 2.52526541 16.50665467 14.96401545 -0.00108547 -0.00004962 -0.00042886
O 1.58908058 22.79771605 1.11509577 -0.00224575 0.00070495 -0.00418775
O 6.58053325 21.82633614 9.35726619 0.00361688 0.00508536 0.00086211
O 2.66835098 22.90186650 9.44148909 -0.00350327 -0.00280429 -0.00082636
O 5.56743043 21.66398472 0.87052381 -0.00295203 0.00017084 -0.00039999
O 6.87366036 15.55633784 15.53014181 0.00132774 -0.00117927 -0.00373229
O 1.19421149 15.95149271 6.64627090 0.00571009 -0.00756164 -0.00226708
O 6.68277926 14.03214493 17.64564003 -0.00182415 0.00340613 -0.00113501
O 1.59894682 17.65855085 8.72975771 -0.00657274 0.00240539 0.00066291
O 2.08413460 24.28173349 7.24489982 -0.00118556 0.00491894 0.00180382
O 6.61514886 20.30371112 31.99465726 -0.00193100 -0.00099501 0.00205076
O 2.15124644 24.21629625 31.89283976 -0.00296300 -0.00225418 -0.00479387
O 6.13817095 20.51586438 7.11156765 -0.00070592 -0.00182312 -0.00455294
O 5.98797697 14.62927047 9.26594004 -0.00127339 0.00177339 -0.00246703
O 2.14065801 17.72224214 17.10630373 -0.00593423 -0.00493064 0.00217903
O 6.02274143 15.29941594 23.86565858 -0.00131628 0.00176101 -0.00203683
O 2.80986690 16.07733776 31.31079144 0.00246942 -0.00450763 0.00410496
O 1.60560852 22.85298123 17.67519988 -0.00091500 -0.00091132 -0.00189472
O 7.27755909 21.91391738 25.89129353 -0.00356529 -0.00189211 -0.00169589
O 2.69854158 22.86409464 25.81046749 -0.00733679 -0.00486903 0.00705413
O 5.98169224 21.81978121 17.47587561 0.00015877 0.00057166 -0.00072126
O 6.63046254 15.25805278 31.99686911 0.00068371 0.00746504 -0.00390739
O 2.15461715 16.35299675 23.24518230 -0.00005033 -0.00256224 0.00271962
O 6.18219535 13.54286439 0.89664816 0.00661953 0.00568737 0.00225914
O 2.32136614 17.86970076 25.30981244 -0.00458308 -0.00075136 0.00791295
O 2.13643224 24.52235798 23.88294814 -0.00556465 0.00493666 0.00483526
O 6.56840608 20.35663025 15.31952542 0.00076662 0.00282579 -0.00245369
O 1.84928607 24.36438214 15.35325587 0.00469429 0.00147973 0.00115982
O 6.55900354 20.40809513 23.75188295 0.00133046 0.00390879 -0.00293781
O 6.82168757 13.87061358 25.69160288 0.00210891 -0.00303998 0.00324080
O 2.97515930 17.33336247 0.73707712 0.00061999 -0.00141991 -0.00751840
O 14.28099130 2.73250494 6.91916249 -0.00169239 -0.00154469 0.00412936
O 10.70962955 3.99040206 15.34096215 -0.00124658 0.00538496 0.00137181
O 10.14696201 10.14064721 1.39396906 0.00855707 0.00203236 0.00340806
O 15.74854736 9.12990555 9.73851087 0.00053775 -0.00360652 0.00868971
O 11.17212016 10.22647622 9.86259922 0.00518006 0.00010501 0.00289328
O 14.64952390 9.32545743 1.41612324 -0.00308471 0.00581549 0.00197615
O 15.16589004 2.84255087 14.95047992 0.00276913 0.00245182 -0.00319130
O 10.12915569 3.78357890 7.42794447 -0.00464845 0.00278673 0.00479616
O 14.75750519 1.28286832 17.14786885 -0.00429498 -0.00052520 0.00386637
O 10.53816848 5.47791053 9.29102911 -0.00010095 0.00626912 -0.00345342
O 10.90506973 11.66686169 7.48029703 0.00031566 0.00221289 0.00812397
O 14.84508137 7.59484093 32.47652260 0.00281901 -0.00360720 -0.00322608
O 10.78494150 11.68077515 32.41886255 0.00449055 0.00606762 0.00152881
O 14.77635035 7.82408583 7.70645517 0.00640883 0.00015525 -0.00300912
O 15.05419644 1.01001100 8.87185021 -0.00135577 0.00207755 -0.00315787
O 10.34083788 5.26550851 17.41432148 -0.00165614 0.00324357 0.00173505
O 14.51672823 2.34284155 23.41876779 -0.00673568 -0.00070356 0.00399709
O 11.35799467 3.29486418 31.99521486 -0.00171709 -0.00260729 -0.00176609
O 10.02988536 10.10567400 18.22704105 -0.00086210 0.00582570 0.00020887
O 15.68587568 8.95711519 26.03353637 -0.00267652 0.00055242 -0.00302484
O 11.44109861 10.18245745 26.15603204 -0.00749585 0.00076766 -0.00284894
O 14.21801871 9.20168019 17.89355204 0.00555448 0.00071977 0.00326093
O 15.65150412 2.69762061 31.53996331 -0.00187258 -0.00082900 -0.00006990
O 10.17952767 3.89774651 23.72867641 0.00074401 0.00121909 -0.00854341
O 15.19544786 1.09600172 0.69814185 -0.00315798 0.00384934 -0.00307248
O 10.78202005 5.29988794 25.83361518 -0.00359189 -0.00171983 -0.00082157
O 11.10652895 11.90836754 24.23954552 0.00276494 -0.00964150 -0.00157398
O 14.38263652 7.80777365 15.65101265 -0.00136291 0.00335621 -0.00268726
O 10.31815845 11.59545664 16.05519113 -0.00555548 -0.00339900 0.00436533
O 14.93637089 7.55900077 24.02680316 -0.00327585 -0.00258661 -0.00333478
O 15.36532627 1.15441900 25.50746619 -0.00132079 0.00406266 -0.00443714
O 10.79633899 5.09330948 1.19091830 -0.00027968 -0.00010433 0.00189151
O 14.30416622 15.49204119 6.90200684 0.00107088 0.00083837 0.00212752
O 11.04559583 16.65247222 15.21489103 0.00699484 0.00239940 -0.00005893
O 10.43882244 22.52440871 1.57131930 -0.00383313 0.00369325 -0.00686252
O 15.48747214 21.79370142 9.67666444 -0.00239003 -0.00409898 -0.00531905
O 10.82599100 22.71850153 9.81186581 -0.00228676 -0.00171647 0.00027097
O 14.41804451 21.71783466 1.41448681 -0.00589999 -0.00038050 -0.00843177
O 15.78040318 15.32934353 15.14744890 0.00123093 0.00140613 -0.00654475
O 9.73964240 16.61337407 6.74299972 -0.00845819 0.00481518 0.00060367
O 15.11436890 14.12170666 17.27822639 -0.00435798 0.00054027 -0.00204871
O 10.36839844 17.96585564 8.93682604 -0.00033163 -0.00173736 -0.00186241
O 10.64534555 24.15659912 7.73820336 -0.00006700 0.00211730 -0.00703254
O 15.27615966 20.70709729 32.03132427 -0.00349252 0.00082059 0.00007773
O 10.48292142 23.84003281 32.36144388 -0.00212574 -0.00148180 -0.00111040
O 14.99778458 20.20412724 7.54937039 -0.00102249 0.00112460 0.00372143
O 14.46186837 14.25689040 9.15778908 0.00213162 0.00344948 0.00950428
O 10.49029221 18.28050947 17.16835320 0.00426708 0.00088989 -0.00454009
O 14.43509839 15.44282683 23.40517666 -0.00499614 -0.00025204 -0.00437769
O 10.78201623 16.03264719 31.18817518 -0.00094936 -0.00811204 0.00713662
O 10.04316252 22.75323019 18.03956827 -0.00253502 0.00090499 -0.00007190
O 15.38618686 21.83891607 25.87034075 0.00203881 0.00439701 -0.00005270
O 11.05602687 23.25767146 26.13292928 0.00518940 0.00166805 -0.00531911
O 14.56281800 22.30077694 17.86024733 0.00704500 0.00969430 0.00260998
O 15.52061639 15.56353961 31.73533268 -0.00241641 -0.00401564 -0.00038619
O 9.81870343 16.53417159 23.02528168 0.00310619 -0.00210272 0.00517462
O 15.01708110 14.11040202 0.86835501 0.00100891 -0.00115289 -0.00546431
O 10.60409016 18.00448247 25.26796159 -0.00049912 0.00287085 -0.00352260
O 10.44004703 24.64389362 24.09119108 0.00559003 0.00177428 0.00537408
O 14.86756958 20.46248243 15.71361072 0.00530409 -0.00041289 -0.00657208
O 10.26245025 24.37090007 15.89284650 0.00140853 0.00178572 -0.00830509
O 14.72560674 20.35766582 23.86391269 0.00195165 0.00531380 0.00873978
O 15.17743352 14.19706988 25.62687461 0.00762706 0.00861324 -0.00437123
O 11.06849378 17.74953311 0.52480058 0.00351069 0.00145321 -0.00329660
O 22.93602877 3.13485691 6.34162667 -0.00058290 -0.00149860 0.00328780
O 19.10914811 3.86251879 15.59643369 -0.00177107 0.00073368 0.00096654
O 18.67785386 9.86711934 1.36180913 -0.00114561 -0.00788370 0.00240043
O 23.64225963 9.38083681 9.82528718 0.00235588 -0.00334499 -0.00234539
O 19.21016168 10.18890296 9.45629403 -0.00191347 -0.00136239 -0.00637802
O 23.07366023 8.76749102 1.29340149 -0.00022997 -0.00516764 0.00098304
O 23.61873365 2.92882354 15.03384622 -0.00480493 0.00110116 0.00205222
O 18.34008835 3.60248258 7.10823222 0.00352134 -0.00099915 0.00649999
O 23.32483104 1.57841346 17.07607948 0.00319612 -0.00482294 -0.00365826
O 18.85546537 5.06753573 9.06706903 0.00041519 -0.00240056 0.00105630
O 18.58520534 11.80199303 7.48286151 0.00048305 -0.00146927 0.01013259
O 23.55280168 7.35554407 32.11897967 0.00169484 -0.00331455 0.00060720
O 19.13026860 11.48894007 32.06201208 0.00494002 0.00132479 -0.00529506
O 23.49324349 7.82710691 7.76861028 0.00275526 -0.01262238 -0.00563803
O 23.12603453 1.67574548 8.47944462 0.00143229 -0.00950666 -0.00658989
O 18.76037392 5.51289671 17.46425793 0.00503977 0.00190225 -0.00282180
O 23.16202659 3.18958168 23.30049276 0.00116291 0.00317112 -0.00153051
O 19.93636902 3.58064347 31.65858736 0.00411670 0.00001953 0.00277366
O 18.13693011 10.47796986 17.90509615 0.00193360 0.00177340 0.00133309
O 24.36119687 9.29147652 26.13154222 -0.00015525 -0.00494765 0.00086796
O 19.93256388 9.82299218 26.06228662 0.00305143 0.00038298 0.00031009
O 22.86372781 8.98007996 17.84199885 0.00763292 0.00764773 -0.00377947
O 23.95185940 2.48857083 31.61805901 -0.00241595 -0.00181809 -0.00395855
O 18.47822937 3.62488140 23.34573756 0.00501691 0.00612974 0.00331511
O 23.67407943 0.84094186 0.52379206 -0.00354766 0.00553554 -0.00173649
O 18.90703963 5.03383486 25.53195681 -0.00250555 0.00280516 0.00713602
O 19.50899379 11.40375646 24.00770700 -0.00011813 0.00485651 -0.00169417
O 22.93140004 7.54605104 15.87504060 0.00287650 -0.00511134 -0.00172665
O 18.81729985 11.55620400 15.66513052 -0.00081759 0.00043130 0.00192216
O 23.80229427 7.92254521 24.17329175 -0.00879866 0.00618426 0.00284003
O 23.02028414 1.49728786 25.26302794 -0.00128664 -0.00602483 0.00365873
O 19.78216418 4.81239340 0.98789666 0.00152291 -0.00240263 -0.00333678
O 22.76269720 15.48458173 6.81391402 0.00397322 -0.00695040 0.00187778
O 19.40453856 16.53651466 15.28665584 0.00786417 -0.00848337 -0.00442585
O 18.76637836 22.67159358 0.88671128 0.00552141 0.00356334 0.00036114
O 23.88375132 22.10817124 9.38355090 0.00101458 0.00200815 0.00039160
O 20.10759659 22.84717847 9.29353649 0.00079138 -0.00429978 0.00329773
O 22.80410734 21.42583771 1.30991129 -0.00372502 0.00263101 -0.00226846
O 23.76949331 15.37520102 15.16291643 -0.00260996 -0.00058905 0.00369926
O 18.41976829 16.38999341 7.05529012 0.00146600 -0.00026464 -0.00371613
O 23.24252087 13.88885218 17.24463613 0.00154615 -0.00297211 0.00122206
O 19.20678026 17.91862977 8.93141434 -0.00780655 0.00392144 0.00484201
O 19.60633480 24.34784094 7.08217155 -0.00109819 -0.00211765 -0.00710042
O 23.42007947 19.99100901 32.24880826 -0.00170172 -0.00184044 -0.00163190
O 18.90620746 24.24843292 31.76186495 -0.00743399 -0.00150709 0.00055398
O 23.90912062 20.46741448 7.38859137 -0.00348341 -0.00184390 -0.00191117
O 23.50070495 14.09280678 8.84523233 0.00059264 0.00048512 0.00685290
O 19.45981171 17.86719163 17.45900616 -0.00022673 0.00062845 -0.00193572
O 23.49997874 15.47856720 23.55282759 0.00157783 -0.00347235 0.00201034
O 19.71853357 16.34864419 31.42415965 0.00144933 0.00572910 -0.00845921
O 18.95875226 22.76080961 17.09653754 -0.00213625 0.00496297 -0.00512168
O 24.02002992 21.92048808 26.08524401 -0.00608263 -0.00635452 0.00115796
O 20.16465660 23.10949395 25.56873706 0.00094992 -0.00017669 0.00550545
O 22.93405955 21.95940278 17.66269832 -0.00558493 0.00652358 -0.00513186
O 24.19857860 15.20358625 31.61309850 0.00067455 -0.00102048 0.00044302
O 19.08428620 16.58144357 23.66782025 0.00258590 -0.00488911 -0.00175686
O 23.59638240 13.74850819 0.81260110 0.00476075 0.00726204 0.00055906
O 19.48742363 18.40997335 25.48621795 -0.00393018 0.00344169 0.00413833
O 19.31525455 24.08735182 23.36198076 0.00363695 -0.00466340 -0.00616817
O 23.24738665 20.44996401 15.62377971 -0.00514811 0.00353343 0.00344536
O 19.12371600 24.51635605 15.11524073 0.00312725 0.00240524 0.00665149
O 24.09327243 20.40496441 23.95106044 -0.00840272 -0.00287215 -0.00038850
O 24.03629490 14.08819766 25.59380376 0.00357720 -0.00284992 0.00290330
O 19.53880901 17.79727991 0.68845089 0.00167932 0.00720232 -0.00031855
N 7.62081749 12.73258533 2.50158304 -0.00277246 0.00046261 0.00257782
N 0.58223452 6.60947225 10.67805283 0.00249895 0.00473243 0.00453505
N 3.29922958 25.42768343 5.64483134 0.00254722 -0.00016607 0.00583396
N 5.10064904 6.40249705 13.93886862 0.00025898 0.00556276 -0.00131023
N 0.74465240 0.09714321 13.71910785 -0.00007764 0.00357824 -0.00610874
N 7.13242537 6.16766140 6.06793647 0.00222317 0.00398842 -0.00156098
N 5.14535623 13.10351790 10.81254239 0.00120035 0.00229557 -0.00334025
N 2.87064938 6.31875728 2.40206323 -0.00018619 0.00007661 0.00686182
N 7.57978228 12.67488500 19.22869283 -0.00535581 0.00189917 0.00648656
N 1.08219902 6.27196232 27.23005629 0.00046467 0.00150499 0.00651167
N 3.20257133 0.11224959 22.20166020 -0.00091401 -0.00238635 0.00008438
N 5.21296558 6.30659660 30.54283804 0.00417817 -0.00103692 0.00237240
N 1.07558807 25.56991369 30.42076225 0.00533626 0.00098703 -0.00168907
N 7.80925888 6.58544459 22.53552334 -0.00526593 0.00261338 -0.00733471
N 5.48590903 12.77786404 27.22968768 -0.00618268 0.00158076 -0.00196616
N 3.32427694 6.57027419 18.82483937 0.00984827 -0.00210591 0.00120308
N 7.15749043 25.50789486 2.46203299 0.00499482 0.00908848 0.00419023
N 1.12233496 19.14694801 10.31592269 -0.00371401 -0.00192322 0.00304821
N 3.53963528 12.62569780 5.82852450 0.00279110 -0.00054409 -0.00373964
N 5.22283153 19.13017197 13.92101014 0.00074506 -0.00285235 -0.00611439
N 0.91596219 12.71421005 14.02901345 0.00028900 0.00576111 0.00389616
N 7.44806343 19.32903872 5.61858732 -0.00408114 -0.00179545 0.00012737
N 4.91008079 0.22909583 10.37590988 -0.00124417 -0.00057633 -0.00433256
N 3.47556550 18.71287574 2.50567474 -0.00355400 0.00079897 0.00469795
N 7.34909280 0.04472043 18.83105670 -0.00928906 0.00430064 0.00035614
N 1.40540828 19.14337949 26.89787198 -0.00510825 -0.00076237 -0.00101610
N 3.53187039 12.26111089 22.55293989 -0.00131199 -0.00559097 -0.00039895
N 5.00143647 19.70982609 30.47960497 0.00349613 0.00050401 0.00004327
N 1.21054798 12.59677606 30.59099186 -0.00205793 0.00759967 -0.00116159
N 7.65928274 19.27409959 22.09404146 0.00122267 -0.00282607 0.00252468
N 5.16688427 0.41483161 27.13765846 -0.00167346 0.00701823 0.00826216
N 3.29270486 19.15421622 18.57571035 0.00381690 -0.00407996 0.00194902
N 16.27881487 12.90037532 2.40877614 0.00053656 0.00110643 0.01287386
N 9.24069093 6.68416212 10.73941945 -0.00297119 -0.00457368 0.00248089
N 11.43758462 25.50155697 6.12949835 -0.00521779 0.00040349 -0.00374906
N 13.27265311 6.74117865 13.93363000 -0.00231884 0.00169659 -0.00128974
N 9.36359147 0.14062716 14.21856146 0.00067023 0.00212243 0.00409577
N 16.02340487 6.70637606 6.16496626 0.00143171 0.00004374 -0.00674942
N 13.38513494 13.06814679 10.77778970 -0.00058377 0.00217894 -0.00180362
N 11.66301611 6.44932832 2.83983746 -0.00208736 -0.00917958 0.00117367
N 15.95416973 12.71762320 18.89418174 -0.00051050 -0.00039034 0.00310263
N 9.64102999 6.43455137 27.59603255 0.00347022 -0.00506269 0.00038165
N 11.94611970 25.47433653 22.54458675 -0.00791350 -0.00400309 0.00839287
N 13.75423595 6.48114532 30.77196791 -0.00199566 -0.00602086 -0.00009475
N 9.42433030 25.30272175 30.97700555 -0.00168000 0.00002866 0.00629248
N 15.89939331 6.34762333 22.31606862 0.00082830 -0.00251035 0.00121911
N 14.04849295 12.86686042 27.09249150 0.00426963 0.00015152 0.00050546
N 11.90545559 5.99964748 18.91575136 0.00172287 0.00274517 -0.01002523
N 16.09509361 25.48684060 2.45664014 -0.00146515 0.00046232 0.00246380
N 9.22681990 19.16523505 10.52567186 -0.00074190 0.00951757 0.00000157
N 12.01168787 12.79967123 5.89080567 0.00239616 -0.00950121 -0.00462380
N 13.73986720 19.16193950 14.17198259 0.00337521 0.00073492 0.00326097
N 9.33711735 12.74957912 14.35221542 0.00698890 -0.00552366 0.00076860
N 16.22655102 19.07783676 6.04279796 -0.00673695 0.00263518 -0.00661893
N 13.79952256 25.53182798 10.47757012 0.00009743 0.00058267 0.00335510
N 12.02950266 18.79685289 2.28282340 -0.00017626 0.00006363 0.00354619
N 16.24316391 0.23963638 18.53469558 -0.00910662 -0.00061033 -0.00457533
N 9.75694046 19.41163920 26.88594142 0.00003934 0.00089660 -0.00330832
N 12.08803216 13.00085777 22.44050348 0.00323283 -0.00260270 0.00317027
N 13.74095714 19.61969777 30.66266404 0.00253551 0.00516980 0.00965966
N 9.81919615 12.90628084 30.74521007 -0.00359973 -0.00231581 0.00271440
N 16.22062882 19.47701841 22.32453975 -0.00090553 0.00605284 0.00095018
N 14.31327531 25.39583277 27.07946359 -0.00259865 -0.00342754 -0.00245327
N 11.82445456 19.27928054 18.77692156 0.00166562 -0.00978599 0.00542657
N 24.68838203 12.58957515 2.53749746 -0.00064715 -0.00563896 0.00112993
N 17.77874012 6.40076956 10.71189330 -0.00230773 -0.00592443 0.00523689
N 20.71184580 25.35101284 5.36739531 0.00159162 0.00525664 -0.00654645
N 21.89317736 6.38351714 14.18396616 0.00445634 -0.00139891 0.00475472
N 17.95678290 0.11022579 13.50107906 0.00175715 0.00824997 0.00820400
N 24.20572704 6.40335441 6.16200406 -0.00287675 0.00033412 -0.00126006
N 22.19284476 13.06363087 10.39002418 -0.00685712 0.00192058 -0.00174702
N 20.35609383 6.25839444 2.70737361 -0.00185346 0.00840872 -0.00027172
N 24.52786516 12.77330784 18.73473191 -0.00299073 0.00326404 0.00127278
N 17.86754798 6.19365391 27.22607486 0.00002639 0.00746411 -0.00355142
N 20.61377280 25.20273897 21.84266251 0.00125090 -0.00582070 0.00001418
N 22.24511686 6.54671144 30.40790609 0.00501789 0.00398275 -0.00003959
N 18.05160786 25.53586268 30.03294503 0.00505479 -0.00641855 -0.00658070
N 24.67175833 6.52593073 22.49100704 -0.00825942 0.00512664 -0.00664208
N 22.54093764 12.96402633 26.92637301 0.00110114 -0.00168711 0.00320824
N 20.21519510 6.43471383 18.96668486 -0.00169892 -0.00213046 -0.00398060
N 24.46624674 25.32165015 2.44095030 -0.00008930 0.00012164 -0.00365095
N 18.03752994 19.02981440 10.57392259 -0.00177457 0.00189732 0.00099436
N 20.13478429 12.65679096 5.99314161 0.00439780 -0.00706267 -0.00006018
N 22.28262087 19.30313063 13.90209604 0.00118729 -0.00001282 -0.00289349
N 17.82260747 12.93780295 14.12701330 -0.00353535 -0.00407653 -0.00466174
N 24.55057549 18.95767647 5.87242853 -0.00530519 -0.00374546 0.00254961
N 22.09673797 0.52991284 10.21280746 0.00567897 0.00068386 -0.00144483
N 20.45435070 18.85384848 2.50278248 0.00318847 0.00063021 0.00254758
N 24.49483517 0.47483830 18.67267144 0.00080964 -0.00032651 -0.00585803
N 17.88835650 19.17740134 26.96135993 -0.00422918 0.00168220 -0.00141523
N 20.55145044 12.56369247 22.44111137 -0.00302471 0.00653529 -0.00821843
N 22.51451654 18.94890598 30.50148863 -0.00254693 -0.00478755 -0.00686449
N 18.22707775 12.76309948 30.34807648 0.00205548 0.00091206 -0.00046835
N 24.89058552 19.23695226 22.13560377 0.00091520 -0.00056934 -0.00525259
N 22.20287881 0.07714403 26.90703344 0.00136260 0.00306401 -0.00004156
N 20.07215666 19.39091117 19.00093633 -0.00438024 0.00398185 -0.00121650
C 7.38390388 0.37987000 4.71898174 -0.00707258 0.00412454 -0.00308075
C 0.53386031 6.06713805 12.98655876 0.00433399 0.00232797 0.00150132
C 3.46533660 12.04434916 3.50499665 -0.00351852 -0.00249835 0.00673374
C 5.01861887 6.82982593 11.58682453 -0.00691256 0.00750200 0.00079552
C 0.78148548 12.24933257 11.62970612 -0.00668701 -0.00184411 -0.00593487
C 7.55546766 6.71681384 3.74078829 0.00670789 0.00154460 0.00097095
C 4.87848083 0.45684741 12.73820527 -0.00363041 -0.00308147 0.00512916
C 3.06501828 6.01668818 4.74145324 0.00377916 0.00237695 -0.00036536
C 7.06146056 1.13310093 5.81902316 -0.00956679 0.00360603 0.00273804
C 0.91039654 5.42022765 14.11017337 -0.00225565 -0.00490194 0.00256633
C 2.90367829 11.42587360 2.42116763 -0.00134825 0.00292002 0.01171015
C 5.27906925 7.60258319 10.49093255 -0.01078310 -0.00271394 -0.00310624
C 1.35136694 11.70787487 10.49563605 0.00525189 0.00041247 -0.00409172
C 7.13063483 7.36860478 2.58091655 0.00185117 0.00609164 -0.00287016
C 5.20559972 0.97401255 13.94456983 0.00040414 -0.00680270 0.00059139
C 2.63895097 5.37250378 5.88161809 -0.00252502 0.00079785 -0.00336621
C 6.25251606 2.26244544 5.73058431 0.00255084 -0.00832130 0.00168573
C 1.94050676 4.51888983 14.03554671 0.00106787 0.00007800 0.00230013
C 2.02855146 10.27453102 2.56637124 0.00434187 -0.00198928 0.00384260
C 6.05859501 8.77783073 10.61056887 0.00448965 0.00259221 -0.00480543
C 2.21733026 10.57405094 10.59564480 0.00236368 0.00100899 0.00978913
C 6.25201087 8.45664333 2.62707720 0.00390109 -0.00199782 -0.00027450
C 6.17778279 2.02885096 13.98145974 -0.00207892 -0.00125869 -0.00860694
C 1.88217018 4.17135793 5.85164067 -0.00489773 -0.00899384 0.00320689
C 6.08009243 2.79415644 4.43962355 0.00758678 -0.00890254 0.00112952
C 2.24059113 3.98202546 12.73412399 0.00703326 0.00509522 -0.00491747
C 1.82336282 9.90560236 3.95410413 -0.00254495 0.00321594 -0.00285275
C 6.24330805 9.28320309 11.93182565 -0.00275453 0.00740151 0.00214692
C 2.40642503 10.04423551 11.88654472 0.00681872 -0.00376300 -0.00385644
C 5.91881237 8.92930076 3.89288897 -0.00154079 -0.00037889 0.00343017
C 6.56238089 2.68300715 12.80679687 0.00930043 0.00238846 -0.00987278
C 1.80690377 3.55183374 4.60355436 -0.00197060 0.00128502 -0.00427243
C 6.52449662 2.08624447 3.33003295 0.00044844 -0.00427059 -0.00610348
C 1.69274978 4.56102992 11.59545852 0.00264773 0.00792697 -0.00359828
C 2.23764892 10.66754948 5.03406028 -0.00760508 -0.00369892 0.00018349
C 5.93415072 8.51578707 13.02970610 -0.00490586 0.00390156 -0.00073984
C 2.04087900 10.74723174 13.02713091 0.00167338 0.00795971 0.00323072
C 6.24523219 8.23100600 5.06427426 0.00393502 0.00394961 -0.00389755
C 6.06755464 2.19184415 11.58996826 0.00409904 -0.00374454 0.00484921
C 2.07160382 4.25328505 3.44708173 -0.00207591 0.00052257 -0.00336785
C 7.00565654 0.82917286 3.49181118 -0.00025783 -0.00257517 -0.00060151
C 0.94254666 5.78922415 11.70235324 -0.00213718 0.00758877 0.00318161
C 3.09208678 11.79350971 4.79376094 -0.00322688 0.00367010 -0.00039920
C 5.32642770 7.26780241 12.90805474 0.00647837 -0.00633837 0.00632455
C 1.25763792 11.92686185 12.88250135 0.00411545 0.00044125 0.00448052
C 6.97264768 7.05579130 4.96724833 -0.00108714 0.00327399 -0.00188856
C 5.35712191 0.90920425 11.54944191 -0.00197291 -0.00732733 0.00238839
C 2.69211950 5.52873944 3.47871314 0.00185418 -0.00249142 -0.00120198
C 6.73508287 0.06935755 1.16289094 -0.00585381 0.01135039 0.00320872
C 1.15894756 6.46204532 9.41853870 -0.00689712 0.00484230 -0.00365642
C 2.93375139 12.65507827 6.98517572 -0.00185552 0.01031895 -0.00057841
C 5.65728900 6.45296609 15.14933357 -0.00175148 0.00553677 -0.00282612
C 1.45303021 12.56944017 15.24811126 0.00431067 -0.00077353 -0.00887194
C 6.75248055 6.47613850 7.28523357 -0.00017154 -0.01001100 0.00442278
C 5.62341037 0.29265200 9.22557813 0.00834253 -0.00398951 0.00434106
C 2.37835214 5.99983808 1.17451731 0.00332518 0.00340357 0.00552288
C 7.11279671 11.78854877 16.99320034 0.00240843 0.00015715 0.00394065
C 1.11332648 7.72048069 8.57319671 0.00201323 0.00288625 0.00401644
C 2.91766105 0.93091028 7.69551549 -0.00322993 0.00296841 0.00623135
C 5.34056698 5.05998910 32.52562594 -0.00123980 0.00420822 -0.00614141
C 1.40559984 0.73595203 32.71346319 0.00047591 0.00051238 -0.00322049
C 6.56189077 5.31355845 8.25609735 -0.00380980 -0.00055295 0.00058947
C 5.68310034 12.37258779 8.61725398 -0.00172900 -0.00556790 -0.00306107
C 2.88318061 7.44520226 16.57888682 -0.00207678 -0.00897675 -0.00131630
C 7.65477337 0.41683260 21.17880386 -0.00291023 0.00067961 -0.00713470
C 0.83798362 5.85607160 29.54245598 -0.00016020 0.00988544 0.00424893
C 3.38547473 12.28440364 20.08401819 0.00231173 -0.00530304 -0.00235088
C 5.36852067 6.91023826 28.18403644 0.00310637 -0.00309389 -0.00798687
C 1.18441724 12.41514404 28.21710624 0.00332578 -0.00372098 -0.00629888
C 7.90290384 6.80670624 20.16790132 -0.00188441 0.00239205 0.00374568
C 5.17460881 0.53575636 29.49661116 0.00239369 -0.00240384 -0.01113886
C 3.32047495 6.26234699 21.19806713 0.00075414 0.00133595 -0.00862190
C 7.24949567 1.06356416 22.35097485 -0.00385632 -0.00167576 -0.00413898
C 1.10305201 5.16160127 30.67386523 -0.00694776 -0.00291294 0.00170913
C 2.94446355 11.79235186 18.90293202 0.01479063 0.00396136 -0.00088583
C 5.90352190 7.70624509 27.14791833 0.00310821 0.00427756 0.00574385
C 1.45454047 11.74403200 27.03049158 -0.00309411 0.00135404 -0.00080392
C 7.38764216 7.35597433 19.02069820 0.00404001 0.00301719 0.00455066
C 5.62113717 1.14887844 30.66466935 0.00147978 -0.00463436 0.00293891
C 2.98753882 5.57396535 22.36178552 -0.00717830 0.00606121 0.00258674
C 6.36363704 2.13883462 22.30554028 -0.00186676 -0.00380336 -0.00003175
C 2.00936535 4.09234686 30.58212879 0.01301343 -0.00805849 0.00160274
C 2.13201790 10.63967334 18.91484603 0.00038337 0.00418256 0.00371093
C 6.80224626 8.69747563 27.42473250 -0.00561199 -0.00540607 0.00171938
C 2.15341096 10.52900539 27.07180103 -0.00249591 -0.01246411 0.00259338
C 6.44833229 8.41576162 19.10783989 -0.00606731 0.00790069 0.00298412
C 6.74402446 1.96763160 30.68290878 0.00006907 0.00754897 -0.00086318
C 2.17798360 4.45244084 22.28454277 0.00766774 -0.00081893 0.00017152
C 6.02946663 2.64855986 21.01855022 0.00128488 -0.00073556 -0.00332731
C 2.36826484 3.56901114 29.33709168 -0.00243681 -0.00678579 0.00671993
C 1.81693852 10.00855588 20.12123638 -0.00334125 -0.00413997 -0.00189719
C 7.01146399 9.08464174 28.78957543 0.00516256 -0.00098085 -0.00274387
C 2.41300845 9.93355320 28.30996758 -0.00174698 0.00372583 0.00548814
C 6.10329285 8.96368658 20.38805544 0.00523264 0.00197716 0.00113935
C 7.16658949 2.43222008 29.44087875 -0.00278329 0.00188835 -0.00211761
C 1.86936804 3.89086093 21.00733708 0.00240266 -0.00385606 -0.00178202
C 6.45137842 2.08033503 19.83848393 -0.00084852 -0.00218218 0.00453964
C 2.05743563 4.23696941 28.14333135 0.00422450 0.00577615 -0.00386074
C 2.21295374 10.47318979 21.33542186 -0.00057477 0.00027451 -0.00510113
C 6.32235668 8.38387273 29.77587914 0.00055609 -0.00320163 0.00025390
C 2.18532690 10.61309488 29.48500489 0.00652082 -0.00213831 0.00566707
C 6.64013503 8.43219698 21.51902673 0.00378135 -0.00018478 0.00359545
C 6.64980956 1.98255301 28.26311274 -0.00331017 0.00296126 0.00059563
C 2.18211077 4.55776319 19.83912292 -0.01202310 -0.00071677 -0.01476615
C 7.11731774 0.83124357 19.95787467 0.00003943 0.00088532 0.00484649
C 1.29613638 5.40117253 28.26256170 0.00277575 -0.00287438 -0.00049299
C 3.05550143 11.63064596 21.30330706 0.00627535 0.00269032 0.00450851
C 5.68191304 7.17706324 29.54775488 -0.00680484 -0.00754227 0.00220166
C 1.54398415 11.90357323 29.46715292 0.00074994 0.00655497 0.00330231
C 7.44275484 7.27153675 21.44456511 -0.00226076 0.00595480 -0.00588917
C 5.66463370 0.99922331 28.25454892 -0.00086064 -0.00502147 0.00060719
C 2.87001955 5.84135227 19.92848783 -0.00752130 0.00526794 0.00075345
C 6.71889706 0.13884004 17.63197184 0.00151058 -0.00383205 0.00046225
C 1.76816378 6.20296441 26.03389486 -0.00619273 0.00228398 0.00526587
C 2.70967901 12.38006422 23.63642162 0.00410626 -0.00288669 -0.00064394
C 5.46381164 6.37392876 31.87601355 -0.00517184 -0.00446415 -0.00017868
C 1.48414162 12.21005998 31.87525620 -0.00094681 0.00448385 -0.00071712
C 7.24627664 6.73454149 23.81537420 -0.00265091 0.00563037 -0.00566072
C 5.81051653 0.24909970 25.96745350 0.00338517 0.00000583 -0.00228173
C 2.73818722 6.35481443 17.61770783 -0.00353869 0.00757747 0.00405539
C 7.31269676 11.39243408 0.54198851 0.00637125 0.00209135 0.00572713
C 1.64010060 7.37343153 25.16862481 0.00240277 0.00047558 -0.00872096
C 2.91158243 1.13438746 24.46879448 0.00173590 0.00658804 -0.00167127
C 5.56950662 5.27001638 16.04396403 0.00339061 -0.00111519 -0.00450827
C 1.35522651 1.02232892 15.93652604 -0.00601147 -0.00146460 0.00006437
C 7.01886119 5.47970057 24.64031729 -0.00106923 -0.00049875 -0.00193182
C 5.74899140 11.90535949 24.96328810 0.00376757 -0.00026735 0.00977467