1920
Time=14000.00000000 pbc="T T T" Lattice="25.50234144 0.00000000 0.00000000 0.00000000 25.78824560 0.00000000 0.00000000 0.00000000 32.76686285" energy=-12252.04562247 virial="-54.26059374 -8.42446508 0.43477232 -8.42446508 -52.18072315 -36.99027431 0.43477232 -36.99027431 18.08048317" stress="-0.00037484 -0.00039179 0.00000571 -0.00039179 -0.00033735 -0.00167972 0.00000571 -0.00167972 0.00295267" Properties=species:S:1:pos:R:3:vel:R:3
O 5.51351182 2.71136191 6.96680940 0.00219021 0.00154611 -0.00219819
O 2.43601707 4.11369944 15.06823365 0.00119104 -0.00640424 0.00536523
O 1.62069644 9.76773755 1.10113909 -0.00264381 0.00163967 -0.00060519
O 6.86466260 9.11712444 9.32736974 -0.00199955 -0.00328655 0.00167637
O 2.67236272 10.10419160 9.14938302 0.00304478 -0.01073156 0.00659238
O 5.83345438 9.08434279 0.87999290 -0.00004999 -0.00261920 -0.00091879
O 6.93975991 2.93586861 15.42329282 -0.00148208 0.00178646 -0.00523970
O 1.97292481 3.36730323 6.81239989 -0.00050596 0.00344989 -0.01001489
O 6.50996447 1.47978557 17.45538993 -0.00690909 0.00281804 -0.00194557
O 1.75088518 5.07651577 8.60049441 -0.00270445 -0.00516505 0.00085878
O 1.82817237 11.80105083 7.13713064 0.00343513 0.00417526 0.00119918
O 6.38420982 7.70061618 31.63495695 -0.00000359 -0.00434664 -0.00176848
O 1.71097053 11.54471209 31.91625217 0.00549277 -0.00289344 -0.00138955
O 6.72576446 7.79939743 7.10184321 0.00553186 0.00560370 0.00326512
O 6.21822386 1.31555235 9.14456280 0.00119752 -0.00270597 -0.00573589
O 1.62435135 5.23676719 17.20952500 -0.00639492 -0.00356400 0.00209148
O 5.93227608 2.80199228 23.62856546 0.00114234 0.00324388 -0.00405728
O 2.50186778 3.21949434 30.92553471 -0.00424168 0.00285905 0.00909058
O 1.08223263 10.25777146 17.55297732 0.00134388 -0.00087037 0.00856822
O 6.93377957 9.20926439 25.54423469 0.00084712 0.00078661 0.00125691
O 2.59470973 9.93306872 25.85279316 0.00093617 -0.00486004 0.00089049
O 5.77449335 9.38561576 17.50644932 -0.00374560 0.00135115 -0.00020389
O 7.05998075 2.58332897 31.77299013 -0.00025922 -0.00336664 0.00153041
O 1.81566233 3.27639661 23.06030079 -0.00037249 0.00208908 -0.00783504
O 6.58816977 1.15814740 1.01872111 -0.00129015 0.00855906 0.00428967
O 1.86630760 5.15642265 24.93334981 0.00872240 -0.00109454 -0.00219203
O 2.13085653 11.34222832 23.66865179 0.00064633 -0.00060824 -0.00031788
O 6.24862226 7.84012240 15.47249348 -0.00002351 0.00256068 0.00792887
O 1.87886944 11.65348951 15.39728367 -0.00050219 -0.00476325 0.00095678
O 6.11216414 7.45754645 23.68604120 -0.00499462 -0.00592993 -0.00393140
O 6.05163775 1.18195037 25.66466005 0.00139435 0.00194391 -0.00093911
O 2.16148460 4.95812636 0.45065315 0.00257537 0.00206621 -0.00331218
O 5.60168106 15.71511085 6.45295068 0.00420285 0.00485943 0.00073555
O 2.87298817 16.96811429 15.38599436 -0.00029059 0.00561436 0.00942912
O 1.45551598 22.81431593 1.60809529 0.00110711 0.00033321 -0.00235626
O 7.09494228 22.09166074 9.48640702 0.00138677 0.00553835 0.00340532
O 2.71231828 22.48253335 10.05734437 0.00725596 -0.00037220 -0.00387703
O 5.70244479 22.06028237 1.19522594 0.00168687 0.00262938 0.00499839
O 6.92989269 15.84689135 14.92893874 0.00087391 -0.00357219 0.00834117
O 1.87939392 16.81243231 7.08083788 -0.00456954 -0.00135637 0.00587569
O 6.00883498 14.42395072 17.18956204 -0.00148347 -0.00334856 0.00221028
O 2.56766113 18.06867852 9.23134389 -0.00193890 -0.00343443 0.00425646
O 2.35354651 24.36819629 7.87476513 0.00700774 0.00087428 0.00473854
O 6.57283139 20.41927285 31.95776814 -0.00288680 0.00019270 0.00514557
O 1.76166665 24.12842334 32.08926209 0.00879084 0.00164693 -0.00487490
O 6.66472733 20.92107318 7.40398218 -0.00319292 -0.00088087 -0.00229131
O 6.35041067 14.27823965 8.61368475 0.00091179 0.00238020 0.00269143
O 1.72566550 18.24249628 17.24744774 -0.00529238 -0.00062275 0.00791923
O 5.51361716 15.31659382 23.50411634 0.00315863 -0.00308264 0.00189437
O 2.94735319 16.57459669 31.35014758 0.00021713 0.00041482 -0.00409650
O 1.52391187 23.17117383 17.77294028 0.00813357 -0.00499147 -0.00256042
O 6.73835125 21.54956671 25.76796107 -0.00203960 0.00124581 -0.00044165
O 2.76287279 23.18899159 25.98989706 -0.00053015 -0.00217466 -0.00241626
O 5.62621652 22.61956348 17.65346472 0.00183035 0.00145510 0.00111948
O 6.96519936 15.54285575 31.32400060 -0.00485755 0.00176023 0.00026506
O 1.61882288 16.66915795 23.42105075 0.00310267 -0.00641242 -0.00712801
O 6.48464713 14.05518477 0.40127074 -0.00444426 -0.00453847 0.00107716
O 2.05518582 18.34970474 25.62843067 -0.00085175 -0.00648365 -0.00537799
O 2.13493974 24.58334769 24.03112902 -0.00147208 0.00722009 0.00069452
O 5.28015552 20.99686265 15.54786938 -0.00150293 0.00236521 -0.00208808
O 2.15829827 24.90804291 16.03311947 -0.00115053 0.00032900 -0.00148651
O 5.90062935 20.45031804 23.61268888 0.00176469 -0.00110473 0.00546700
O 6.37104626 13.86495904 25.46100676 0.00128204 -0.00498768 -0.00078214
O 2.17286391 18.00454841 0.58662916 -0.00019943 0.00883960 -0.00363775
O 14.26816743 2.57447847 7.36591376 -0.00414378 -0.00413631 0.01012357
O 11.29696407 3.79246388 15.03260547 0.00200740 -0.00344854 -0.00017164
O 9.74935838 10.26585973 1.31961255 -0.00437158 0.00151543 -0.00282287
O 15.29020506 9.20959465 9.10105910 0.00429819 -0.00154651 -0.00016375
O 11.02828470 9.98787158 9.59119742 0.00354966 -0.00128192 0.00093302
O 14.45040818 9.22927062 1.07872512 -0.00259336 0.00033046 0.00179133
O 15.50533445 2.50709282 15.51650330 0.00127713 0.00170212 -0.00387633
O 10.19939402 3.39195910 6.66910649 -0.00605383 -0.00005941 0.00125688
O 14.84080129 1.18650255 17.54304358 0.00095947 -0.00064160 -0.00360697
O 10.45044192 5.20338966 8.92516819 -0.00386623 -0.00410231 -0.00034557
O 10.63775368 11.68674620 7.58148726 -0.00753110 0.00388467 -0.00689567
O 15.27671068 7.81830882 31.82717632 0.00516234 0.00326069 -0.00669273
O 10.72219835 11.35096639 31.92780913 -0.00783275 0.00443287 0.00209254
O 14.93789231 7.76236758 7.09373488 0.00159557 0.00408904 -0.00057131
O 15.19464560 1.02943193 9.35076840 0.00227188 0.00325808 0.00346763
O 11.04933316 5.36230491 17.15984042 -0.00252878 0.00093193 0.00378152
O 14.27546464 2.28792307 23.69014437 0.00304954 0.00335946 0.00282246
O 10.92292586 3.52136222 31.48988203 0.00216412 -0.00613351 -0.00210513
O 10.01606447 9.98770679 17.75051469 -0.00254405 0.01222043 -0.00284168
O 15.16736737 8.90959266 25.42860013 -0.00702811 0.00517109 0.00141061
O 11.00263052 10.21271484 25.66182134 0.00455571 0.00516353 0.00124100
O 14.80740082 9.39679916 17.36241332 -0.00105832 0.00082767 -0.00729367
O 15.27560278 2.66469496 31.99491279 -0.00308895 0.00339949 -0.00369615
O 10.18055706 3.79680747 23.21768738 -0.00159289 0.00101267 -0.00459004
O 14.92100680 1.13703575 1.28906680 -0.00488938 0.00415334 -0.00523040
O 10.62107589 5.06362320 25.27391699 0.00123026 0.00368632 0.00382929
O 10.48882114 12.01147545 23.83628136 -0.00426109 0.00120639 -0.00294022
O 15.04183296 7.76843380 15.33394535 -0.00095730 -0.00000952 -0.00049484
O 10.24910716 11.80383774 15.78042967 -0.00223206 -0.00202918 -0.00642673
O 14.52379595 7.33655378 23.46827000 0.00446094 -0.00233824 -0.00343445
O 14.98717842 1.15540226 25.86550362 0.00203857 0.00336763 -0.00421904
O 11.12413359 5.32084290 0.58921191 0.00410906 -0.00471366 0.00311025
O 14.47141878 15.71464475 6.91360236 0.00156578 -0.00402854 -0.00209148
O 11.00425524 17.04877020 15.55344149 0.00351580 -0.00628243 -0.00908687
O 10.42416686 23.00250925 1.49347682 0.00200585 -0.00496152 -0.00210035
O 15.33895832 22.23481698 9.79722039 0.00410886 0.00050400 0.00090733
O 11.21828823 23.14242434 10.12310456 -0.00408053 0.00022402 -0.01129259
O 14.32282253 21.59750610 1.35671776 0.00236513 0.00645811 -0.00230050
O 15.15685169 16.20278833 14.97359840 0.00772637 -0.00167033 -0.00212135
O 10.25741352 16.53594238 7.33311059 0.00656520 0.00438670 0.00654128
O 14.77863987 14.39429660 16.99208333 0.00189738 -0.00120512 0.00338638
O 10.56842774 18.20594199 9.27053208 0.00026792 0.00393525 -0.00589643
O 10.49508891 24.45711612 7.90108666 -0.00342543 -0.00333616 -0.00263764
O 15.21024347 20.08744244 32.16281729 -0.00194934 0.00353530 0.00637581
O 11.10388874 24.62727375 32.22771937 -0.00216608 0.00122088 0.00039552
O 15.32100170 20.60308400 7.67289284 0.00025536 -0.00543933 0.00245576
O 14.86908845 14.16343668 9.09995884 0.00065788 -0.00670063 -0.00213569
O 10.50272070 18.50929233 17.53228227 0.00227810 -0.00380747 -0.00409799
O 14.29566262 15.32523272 23.25000413 -0.00404563 -0.00218098 0.00565543
O 11.01138548 16.28490384 31.60060603 0.00270165 0.00136239 -0.00329019
O 9.85560760 23.38902914 18.41532918 0.00009602 -0.00258969 0.00546660
O 15.32088336 22.06357864 26.15789518 0.00414580 0.00065406 0.00385200
O 10.75152723 23.05956848 26.06305628 -0.01446221 0.00264956 0.00266128
O 14.49051836 22.57735869 17.98413046 -0.00010132 0.01203136 -0.00112017
O 15.50217016 15.75053208 31.08382116 0.00832423 0.00452587 0.00958719
O 9.70150486 16.98215722 23.36289746 0.00407980 -0.00323311 0.00205079
O 15.62556260 14.29614022 0.55222427 0.00271762 -0.00583033 -0.00056964
O 10.54616611 18.16081969 25.56581488 -0.00188428 0.00106373 0.00282265
O 10.47285368 24.97382813 24.37457580 0.00363385 0.00409744 0.00240920
O 14.56658057 20.81020303 16.14312113 0.00580885 0.01062476 0.00160590
O 10.33767549 24.70920348 16.38497715 0.00245491 -0.00262965 -0.00739999
O 14.79931796 20.45940893 23.95307768 0.00343900 0.00400177 -0.00343340
O 15.38010722 13.94106696 25.00662367 0.00538956 -0.00138166 -0.00188938
O 10.53835911 17.75180788 0.88450265 -0.00369187 -0.00382859 0.00146522
O 23.24834276 2.81596079 6.86343708 0.00044210 -0.00222761 -0.00318821
O 19.25410690 3.53452409 14.49268780 -0.00052398 -0.00116235 0.00166317
O 19.00983216 9.84443347 0.82093807 -0.00326497 0.00317644 0.00394805
O 23.99230408 9.29136942 8.83656762 0.00183942 -0.00021835 -0.00399085
O 19.87900588 10.28922828 8.85041498 -0.00165065 -0.00042549 -0.00164975
O 22.74806249 8.87313377 0.62777918 0.00139933 -0.00307724 0.00183367
O 23.89813949 2.88138723 15.04944462 -0.00494299 -0.00065749 0.00030064
O 18.59829569 3.60293072 6.39207910 0.00311148 0.00436889 -0.00509977
O 23.21819689 1.54106315 17.14815437 -0.00107499 0.00118330 -0.00201083
O 18.86570352 5.44921936 8.27141581 0.00042566 -0.00086588 0.01079290
O 18.81450221 11.75898603 6.87485314 -0.00098328 0.00180904 -0.00000671
O 23.43705935 7.73649115 31.30799098 -0.00678482 0.00173725 -0.00092201
O 18.88249976 11.37034136 31.44989544 -0.00649559 -0.00254911 -0.00412037
O 23.15367406 7.70942551 6.89525395 -0.00501799 -0.00602176 0.00121836
O 23.40677416 1.20913442 8.96120446 0.00325411 0.00234790 0.00322406
O 19.46648307 5.25166580 16.33660441 0.00062704 0.00018350 0.00222600
O 23.14161827 2.51446512 23.66251222 -0.00143338 -0.00834031 0.00932393
O 19.43512074 3.26573885 31.04478568 0.00179701 -0.00519374 -0.00099556
O 18.72413967 10.04221089 17.06690443 -0.00381667 -0.00550131 0.00350521
O 24.33076367 8.50093930 25.06609160 0.00117605 0.00608853 0.00125801
O 19.90834707 10.42420892 25.38030748 0.00670535 0.00342906 -0.00166779
O 22.85607507 9.20404235 16.96118502 -0.00016710 -0.00158792 0.00393298
O 24.18119543 2.34381755 31.58738590 0.00170114 -0.00434516 0.00182094
O 18.86153603 3.76145502 22.61320462 -0.00569295 -0.00309668 -0.00553364
O 23.15493874 0.93876809 0.96018146 -0.00481489 -0.00059494 0.00418682
O 19.25452704 5.32532603 24.85060711 0.00075842 -0.00240237 -0.00040915
O 19.14495894 11.57489101 23.21140966 -0.00183842 0.00164351 -0.00195079
O 23.54685543 7.72521401 15.07443054 -0.00974651 0.00190454 0.00026703
O 19.19320553 11.59637383 15.12907939 -0.00419604 -0.00437912 0.00062040
O 23.03234345 7.16660005 23.09767830 0.00184242 -0.00129710 0.00168895
O 23.63008549 0.97387744 25.71354582 -0.00744244 0.00157252 -0.00117899
O 19.78812237 4.73387505 0.30567338 -0.00700689 -0.00206152 -0.00116352
O 23.00097017 15.81919298 6.55873640 0.00086313 0.00374618 0.00069073
O 20.20699136 16.65649359 15.39740408 -0.00491482 -0.00809966 -0.00710528
O 18.43924717 22.96904612 1.51395533 -0.00486338 -0.00018060 0.00458868
O 23.81992620 22.41088345 10.11514226 0.00252853 0.00168031 0.00042873
O 19.44508925 23.09924340 9.76155878 0.00408997 0.00117037 -0.00259430
O 22.74120235 22.06928896 1.85971008 -0.00013670 0.00129206 -0.00065760
O 24.19379451 15.97957083 14.90373287 0.00272071 -0.00172323 -0.00270976
O 18.71585411 16.90318930 7.23385574 0.00106290 0.00106561 0.00008135
O 23.66557021 14.24142330 16.90266184 0.00456192 -0.00103736 0.00178819
O 19.22711778 18.12704185 9.44984943 -0.00602889 0.00345826 -0.00098227
O 19.27300006 24.53023281 7.59791735 -0.00465760 -0.00625606 0.00344454
O 23.21402176 20.48280841 32.63883228 0.00249314 -0.00841959 0.01197620
O 18.95796185 24.58897283 32.32355916 0.00167490 -0.00425959 -0.00521934
O 23.44855278 20.45739470 8.01012710 0.00498514 0.00172258 0.00093700
O 22.88093706 14.22086381 8.63296584 0.00004869 0.00727128 -0.00476959
O 19.64397726 17.79317527 17.74626824 -0.00010288 0.00281955 -0.00423616
O 22.74318003 15.58003922 22.95205140 0.00205571 0.00065933 0.00198426
O 19.37920390 16.51306010 31.71117339 -0.00059212 0.00291135 0.00345278
O 18.88709672 22.96358901 17.90942648 0.00537485 0.00095502 0.00207662
O 23.65226187 22.24356794 26.38967726 -0.00083715 -0.00679334 0.00413128
O 19.79436272 23.26810877 26.19978411 -0.00004595 0.00258476 -0.00472147
O 22.95168936 22.08022689 18.29509513 0.00808155 0.00722663 0.00244440
O 23.84650437 15.46188418 31.45329030 -0.00043612 -0.00136780 0.00346370
O 18.41697287 16.33501592 23.77686844 0.00130216 0.00569944 0.00653244
O 23.23572450 13.68222782 0.64007854 -0.00447299 0.00812513 -0.00220195
O 19.52390031 18.29889999 25.62951440 -0.00263220 0.00035699 -0.00102400
O 19.35014709 24.57868112 24.09787090 0.00284362 0.00557299 0.00293035
O 23.52274094 20.59252783 16.13674068 0.00226880 -0.00233073 -0.00223020
O 19.46188344 24.67483892 15.94070237 0.00300230 -0.00195686 0.00176391
O 23.39490820 20.38416693 24.39564829 0.00364246 0.00249115 -0.00116123
O 22.98168774 13.97204729 24.93713523 0.00330618 0.00393962 -0.00604930
O 19.35744520 18.05569181 1.06336550 -0.00138276 0.00279800 -0.01072240
N 7.47953944 12.85214321 1.99182946 -0.00052627 -0.00135998 0.00190425
N 0.90554186 6.39594888 10.24557591 -0.00140021 0.00109444 0.00004042
N 3.22617202 25.59161397 6.21550193 0.00307812 0.00601750 -0.00431499
N 5.38603005 6.60521582 13.83611904 0.00389753 -0.00214983 -0.00185283
N 1.02885760 0.06307889 14.23634870 -0.00246950 0.00020671 -0.00967924
N 7.65580032 6.58352763 5.36859978 0.00142920 0.00224320 0.00128632
N 5.18406667 13.29481291 10.27801917 -0.00265336 0.00112094 -0.00021224
N 3.42600358 5.99346158 2.10272714 -0.00225130 0.00139589 -0.00221204
N 7.29388992 13.29184382 18.70302374 -0.00380214 0.00011200 0.00024972
N 1.21974264 6.55660266 26.67029900 -0.00679695 0.00086212 -0.00348459
N 3.08765007 0.06500993 22.39153855 0.00152284 0.00055120 -0.00108229
N 5.29136252 6.39531068 30.09259329 -0.00259052 -0.00476933 0.00277325
N 1.17366745 25.67110866 30.52242084 -0.00573866 -0.00224653 0.00300113
N 7.59320358 6.77467012 22.16078514 -0.00502360 -0.00277652 -0.00031404
N 5.10788020 12.71130605 26.91158600 -0.00132860 -0.00445056 0.00313177
N 3.25724516 6.24423691 18.49412464 -0.00161409 -0.00239812 -0.00066025
N 7.42964221 0.00026897 2.70263608 -0.00461078 0.00054916 -0.00544776
N 1.01264360 19.20746823 10.65053408 0.00320150 -0.00161249 0.00522386
N 3.32275577 12.67867527 5.59892750 0.00107336 -0.00578885 -0.00267028
N 4.89777297 19.51213832 13.89386904 0.00670899 0.00101794 0.00258980
N 1.09753443 12.96525140 13.73523580 -0.00399025 -0.00156447 0.00425142
N 7.57960251 19.65842336 5.72290506 0.00026664 0.00717919 0.00066254
N 5.47043995 0.02935204 10.92874527 -0.00244148 0.00047839 0.00007162
N 3.25763391 19.23102908 2.23951828 0.00337619 -0.00666427 -0.00198030
N 7.31359838 0.04999178 18.93457252 0.00334588 0.00031456 -0.00569560
N 0.66718576 19.28490812 27.20525803 0.00129455 -0.00298516 -0.00172647
N 3.28926450 12.52480159 22.07446265 -0.00375489 0.00259400 -0.00679053
N 5.13794097 19.34146656 30.52467530 0.00147051 -0.00714437 0.00381082
N 1.06325795 12.98749527 30.19546040 0.00336899 0.00506418 -0.00182313
N 7.21368159 19.60386507 21.98822155 -0.00173880 0.00328037 -0.00038383
N 5.15171165 0.00199464 27.42098219 0.00066142 0.00035445 0.00636192
N 2.89793498 19.42007498 18.81547204 -0.00052799 -0.00216747 -0.00172265
N 16.38370321 13.12034900 2.38257582 -0.00334475 0.00067566 -0.00238995
N 9.45157405 6.41710948 10.62838128 0.00226172 0.00206718 -0.00065203
N 11.37233795 25.75670645 6.19204716 0.00612333 0.00341327 0.00424402
N 13.50848575 6.85725896 13.81487955 0.00237925 -0.00383568 -0.00354023
N 9.61849223 0.21419562 14.61795245 -0.00639094 0.00623676 0.00264154
N 16.02442874 6.39586503 5.57764227 0.00289998 -0.00302748 0.00698731
N 13.75195682 13.08415406 10.73854531 -0.00625781 0.00130761 -0.00367609
N 12.19076474 6.23623773 2.32634996 0.00018967 -0.00049959 0.00565095
N 15.85380099 13.11124883 18.43074816 -0.00092038 0.00010732 -0.00085312
N 9.70008850 6.36482890 26.90542961 0.00675003 -0.00438677 -0.00156214
N 11.61540534 0.32199491 22.80763402 0.00180968 -0.00061940 0.00020855
N 13.77683165 6.83628806 30.35008847 0.00120327 0.00355654 -0.00251161
N 9.55005181 25.56148010 30.79608595 0.00370559 -0.00084815 0.00268087
N 16.06298578 6.53043129 21.90476522 -0.00182378 -0.00345247 -0.00716962
N 13.93391397 12.98006807 26.51999628 -0.00166714 -0.00383738 0.00657575
N 11.62758633 6.82949036 18.81997587 -0.00505960 0.00084133 0.00391942
N 16.15998050 0.01659666 2.85973255 -0.00213543 -0.00093247 -0.00055312
N 9.58696058 19.52730488 10.82048371 -0.00401494 0.00090258 -0.00259720
N 11.70017680 12.74799051 5.85304675 -0.00150798 0.00289559 0.00122841
N 13.80986748 19.51584187 14.46562678 -0.00145062 -0.00257693 0.00248617
N 9.25356523 12.93840879 14.04512461 -0.00294076 -0.00038250 -0.00366617
N 16.31841109 19.44961919 5.97166015 -0.00210328 0.00106066 -0.00690467
N 13.79832859 0.05874077 10.96550487 0.00093133 0.00095705 0.00206362
N 11.68531353 18.94617503 2.51541401 -0.00667075 -0.00009899 -0.00009493
N 16.25581497 0.11663420 19.03080852 -0.00454679 0.00379880 0.00273229
N 9.17318077 19.15850333 27.14443083 0.00149736 0.00318197 -0.00566505
N 11.42495060 13.16545439 22.06504588 0.00292188 -0.01095743 0.00479243
N 13.62306706 19.33013068 30.77600077 0.00407300 0.00620909 -0.00015248
N 9.43042469 12.47143683 30.43634506 0.00461211 0.00405617 0.00407596
N 16.09519823 19.66420764 22.25888273 -0.00141408 -0.00631032 -0.00489031
N 13.66357241 0.06947602 27.34229079 0.00463471 0.00095096 -0.00114583
N 11.73551655 19.60567431 19.13927648 -0.00040482 -0.00156910 -0.00091954
N 24.63722347 12.69549666 2.11975659 -0.00520869 -0.00341381 -0.00250605
N 18.12173016 6.74897298 10.01966401 0.00323918 -0.00851851 -0.00596228
N 20.58787695 25.57293288 6.06838982 -0.00191560 -0.00243992 0.00104872
N 22.43531195 6.62221717 13.36759180 -0.00313673 -0.00193804 -0.00001638
N 18.31696919 0.15513411 14.46640142 -0.00061747 -0.00858462 0.00055169
N 24.62609389 6.66032423 5.36176672 -0.00475371 -0.00130455 -0.00019623
N 22.26236566 13.13994782 10.56938806 -0.00413027 -0.00514784 -0.00018873
N 20.29212583 6.30290507 1.89194731 -0.00371276 0.00416031 0.00053663
N 24.58289273 12.90524476 18.46946187 0.00552672 0.00053781 0.00369235
N 17.99805593 6.24987406 26.60132798 0.00142639 0.00366139 -0.00064474
N 20.13449718 0.12784652 22.43641366 0.00528997 -0.00277789 0.00313730
N 22.34145556 6.50672201 29.80235156 -0.00418130 0.00283610 -0.00380169
N 17.80165720 25.62957784 30.73465380 0.00065226 -0.00212600 -0.00143444
N 24.42318440 6.37243033 21.36791004 0.00267121 0.00566646 0.00510669
N 22.06543939 12.87810094 26.73035432 0.00326934 0.00230292 -0.00516587
N 19.96748341 6.66228183 18.08302741 -0.00292636 -0.00484177 -0.00016741
N 24.57815141 25.64075132 2.41617934 -0.00226616 -0.00257697 -0.00836942
N 18.04128455 19.23415337 11.10368671 -0.00345905 0.00140846 -0.00075922
N 20.29057634 12.67146448 5.37890872 0.00353079 -0.00505929 0.00237510
N 22.20270600 19.51150092 14.48677043 0.00752925 0.00281438 0.00494872
N 18.03392505 12.75739452 13.58160587 -0.00426012 -0.00444344 -0.00105204
N 24.31982589 19.26928007 6.19026794 -0.00029583 0.00421388 -0.00452050
N 22.12361225 0.21552948 10.56118914 0.00509574 0.00330603 -0.00069313
N 20.34605598 19.42901343 2.65625323 -0.00126951 -0.00053488 -0.00011891
N 24.37382019 0.26030746 18.60122845 0.00487613 0.00250801 0.00834671
N 17.99259966 19.16664103 27.02895988 0.00390160 -0.00493572 -0.00021025
N 20.45517035 12.65740173 21.63608130 -0.00467928 -0.00924327 0.00621544
N 22.29110226 19.39684485 30.81878096 0.00350237 -0.00268341 0.00608844
N 17.70864815 12.48182014 29.87825867 -0.00187946 0.00204297 -0.00332342
N 24.62309537 19.31043885 22.74891987 0.00390489 0.00297249 0.00005513
N 22.43061882 25.49294853 27.22871261 0.00025431 0.00781342 -0.00419545
N 20.33163745 19.10710452 19.38316481 0.00247755 0.00215762 -0.00512754
C 7.42617152 0.42852152 5.05828026 -0.00838649 0.00646101 -0.00398981
C 0.93662783 6.35475632 12.64471715 -0.00858935 -0.00526343 -0.00030548
C 3.33559042 12.32881886 3.19942000 -0.00029276 -0.00034004 -0.00212213
C 5.15739784 6.88166366 11.51344816 -0.00278840 0.00113874 -0.00232727
C 1.07090219 12.57288005 11.29139782 -0.00140289 -0.00460998 -0.00568494
C 7.86105163 6.95782222 2.94785792 0.00199780 0.00157152 0.00528070
C 5.22513955 0.57140977 13.24981352 0.00237091 -0.00056907 0.00320636
C 3.47807412 5.71307486 4.46678026 -0.00679956 -0.00338144 -0.00041451
C 7.06165444 1.06312014 6.18749855 -0.00101426 -0.00567599 -0.00146830
C 1.15232224 5.76027533 13.83275811 -0.00161321 -0.00777972 -0.00446126
C 2.82538799 11.60835782 2.14038090 0.00366803 0.00237323 -0.00085520
C 5.44916669 7.56573031 10.34311423 -0.00200658 -0.00346303 0.01088641
C 1.21692195 11.69155507 10.26804933 -0.00047311 -0.00004415 0.00015086
C 7.41310304 7.59541285 1.84226697 0.00229069 -0.00087380 0.00594087
C 5.49308641 1.31168602 14.35628919 0.00087612 -0.00170865 0.00213681
C 3.07412231 5.25070946 5.71550238 -0.00114508 -0.00502495 0.00118476
C 6.19636130 2.23166672 5.96824294 0.00606552 -0.00290448 -0.00211727
C 2.00843098 4.58447000 13.90194306 0.00084831 -0.00139051 0.00174675
C 2.13599943 10.35095247 2.21449996 -0.01032364 0.00816204 0.00229840
C 6.24709881 8.74449502 10.40793113 0.00134773 0.00411737 0.00341385
C 2.17688363 10.65267130 10.37391358 -0.00213923 -0.00179461 0.00232214
C 6.44811825 8.65531982 1.93889091 -0.00562696 0.00213474 0.00245262
C 6.41035602 2.42288984 14.29915696 0.00015224 0.00310308 -0.00242841
C 2.35739233 3.99960289 5.69579132 0.00531022 0.00596712 0.00939214
C 6.12260780 2.73719792 4.66239531 -0.00106991 0.00518457 0.00883908
C 2.33609602 3.95487816 12.66571452 -0.00189088 -0.00599950 0.00577176
C 2.07846051 9.81504787 3.53664595 0.00231214 0.00876278 -0.00289974
C 6.48149602 9.40905770 11.67989613 0.00716952 0.00215518 -0.00475035
C 2.63411136 10.25566970 11.66801522 0.00059359 -0.00373202 0.00557502
C 6.19772042 9.23950541 3.19956609 0.00314899 -0.00618143 -0.01048325
C 6.70395442 2.85102439 12.97722371 -0.00180882 -0.00434490 0.00080719
C 2.11605262 3.34458979 4.48505281 0.00705513 -0.00283696 0.00055999
C 6.54754761 2.12004016 3.52122302 0.00214598 -0.00324997 0.00093820
C 1.92650243 4.54145003 11.43712180 -0.01141797 -0.00313015 0.00546144
C 2.48664419 10.55400749 4.65970371 0.00379772 -0.00912962 -0.00509399
C 6.19119452 8.71732190 12.82815799 -0.00120508 -0.00470575 -0.00117502
C 2.24535270 11.04327329 12.73072648 -0.00043449 -0.00085736 -0.00437308
C 6.68500884 8.64328840 4.40381493 -0.00294760 0.00137276 0.00336653
C 6.27292219 2.15272772 11.85466735 0.00079996 0.00634600 -0.00534516
C 2.46506298 4.00271491 3.26367164 -0.00115286 0.00378655 0.00126686
C 7.05790568 0.82984750 3.76075431 -0.00122173 0.00172881 0.00537748
C 1.19781142 5.73469801 11.41430458 0.00371616 -0.00016479 0.00518131
C 3.05725676 11.82405919 4.49052099 -0.00169198 0.00283671 0.00098151
C 5.57258365 7.42213336 12.72824146 -0.00405171 -0.00663615 -0.00289343
C 1.46608465 12.21467478 12.61914405 -0.00110860 -0.00047853 0.00154782
C 7.36350595 7.35023053 4.25045999 -0.00542648 0.00052784 -0.00368789
C 5.60732659 0.95724591 11.96388997 0.00748528 -0.00420356 -0.00618966
C 3.13488331 5.22413847 3.22146620 0.00024492 0.00220463 -0.00691698
C 7.15518816 0.14330849 1.39521822 -0.00044505 -0.00176261 -0.00809661
C 1.29407640 6.16677738 8.97683394 -0.00206274 0.00056895 -0.00327324
C 2.64081604 12.66451424 6.80118125 0.00166257 -0.00140172 0.00184092
C 5.82517201 6.78521973 15.10777907 -0.00098976 0.00374969 -0.00737817
C 1.50699361 12.75196164 14.96426037 -0.00020654 0.00369636 0.00120572
C 7.26460374 6.78917659 6.67168054 -0.00006351 0.00194668 -0.00425821
C 5.85488418 0.23142958 9.65247370 -0.00148397 -0.00514615 -0.00659633
C 2.80074614 5.89995956 0.84318142 0.00937427 0.00586455 0.00159057
C 6.79731780 12.25302689 16.58626333 -0.00165889 0.00104625 -0.00352233
C 1.35559810 7.33547640 8.00069308 -0.00212504 0.00410228 -0.00528505
C 2.86930354 0.83992323 8.41105297 0.00003312 0.00469912 -0.00473116
C 5.77171755 5.48591827 32.21261538 0.00241501 -0.00190553 0.00503143
C 1.58544270 0.73710188 32.69161371 0.00017599 -0.00165227 -0.00772409
C 7.54184326 5.58148992 7.56997738 0.00301714 0.00949021 0.00203048
C 5.56034843 11.99092636 8.23187869 0.00166857 -0.00417565 0.00343666
C 2.64514576 7.33609431 16.39804313 0.00237845 0.00157688 0.00065426
C 7.37078474 0.40002482 21.35801762 0.00755114 0.00083203 -0.00124494
C 1.15462245 6.00193628 28.98203540 0.00037912 -0.00442169 0.00397151
C 3.25430144 12.15709084 19.68084723 0.00005551 0.00125656 0.00240340
C 5.28934361 6.66258360 27.68867563 -0.00435413 0.00207792 0.00599471
C 0.97753411 12.57623761 27.80727916 -0.00079825 0.00158210 -0.00162223
C 7.52841938 7.08214217 19.77245010 -0.00625873 0.00190415 0.00725229
C 4.94851375 0.39524427 29.67762213 -0.00374172 -0.00859862 -0.00403078
C 3.46202146 5.73770828 20.87845710 -0.00752162 0.00703961 -0.00230591
C 7.10038742 1.05342472 22.54570995 0.00684569 -0.00872672 0.00268443
C 1.35133735 5.21472748 30.07481931 0.00034646 -0.00311459 -0.00017129
C 2.77587188 11.50742402 18.51586735 0.00559971 0.00440987 0.01045541
C 5.56944516 7.37981717 26.53674414 -0.00666997 0.00020516 -0.00608486
C 1.21242508 11.70200255 26.73427418 0.00444435 0.00287546 0.00035891
C 7.17309228 7.74475588 18.64036577 0.00657739 0.00551535 0.00465677
C 5.42749515 1.11314080 30.77094243 -0.00026064 0.00391647 -0.00425877
C 3.14808505 5.01711260 22.00579203 -0.00508805 -0.00505541 0.00356581
C 6.39691759 2.23936292 22.49637990 -0.00039185 0.00245170 -0.00093725
C 2.06980783 4.00629910 29.93231024 0.00106638 -0.00631086 -0.00168592
C 1.81397312 10.49573567 18.68741330 0.00398118 0.00433444 -0.00024935
C 6.37140245 8.61395577 26.63252903 -0.00426680 -0.00584017 0.00082910
C 2.00420419 10.49395391 26.96330983 -0.00590128 -0.00072039 0.00218233
C 6.32983323 8.86481565 18.63851074 -0.00296592 0.00597942 0.01064147
C 6.46149222 2.10723332 30.67976770 -0.00301582 -0.00065550 0.00733438
C 2.22031097 3.90666248 21.92666899 0.00026756 0.00141096 -0.00285483
C 6.24225772 2.83563614 21.25262863 0.00477252 -0.00237637 0.00137049
C 2.32948282 3.56272580 28.59297476 -0.00151609 -0.00603015 -0.00092283
C 1.57926949 9.88921442 19.94673986 -0.00218115 0.00060879 0.01231890
C 6.54927027 9.14195510 27.88480077 -0.00238073 0.00305789 -0.00215598
C 2.32781198 10.04182335 28.24251854 -0.00152200 -0.00646365 -0.00121408
C 6.12718073 9.39752340 19.95540047 -0.00377530 -0.00498712 -0.00135457
C 6.83566181 2.52194276 29.37819867 0.00647222 -0.01040247 -0.00340985
C 1.81832513 3.47987941 20.66422829 -0.00016375 0.00188259 0.00052586
C 6.54238771 2.14776992 20.04128696 0.00314601 0.00274631 -0.00023047
C 2.14515585 4.38998155 27.52037003 -0.00371020 -0.00018388 0.00221161
C 2.11101344 10.51244609 21.07482462 -0.00923387 0.00290765 0.00250666
C 6.20259115 8.48401947 29.01208805 -0.00383640 -0.00533882 -0.00156558
C 1.84614790 10.82711658 29.29785818 0.00199384 0.00199101 0.00123081
C 6.44159391 8.72822032 21.13448731 0.00017666 -0.00679043 -0.00328482
C 6.27597687 1.90513124 28.26809327 0.00097298 -0.00039168 -0.00178556
C 2.19490723 4.22474439 19.52951461 -0.00023131 -0.00390017 -0.00164959
C 7.04409841 0.86403808 20.10307284 -0.00206681 -0.00007011 0.00012496
C 1.49004751 5.66208338 27.64909687 0.00258311 0.00122839 0.00362634
C 2.85620252 11.71831071 21.00184371 -0.00533484 -0.00086079 0.00688628
C 5.63023217 7.15464893 28.97141686 -0.00578599 -0.00375872 -0.00276117
C 1.34752697 12.14335970 29.06290588 -0.00692411 0.00116802 0.00018072
C 7.19191227 7.49667381 21.09061762 -0.00291780 0.00031896 -0.00322636
C 5.48110876 0.75837084 28.46818712 0.00310076 -0.00010500 0.00716896
C 2.94834785 5.41161672 19.61859969 -0.01061891 0.00368029 0.00720583
C 6.89334115 0.33904065 17.68707000 -0.00301302 0.00049959 0.00010922
C 1.54048637 6.24380756 25.35312963 -0.00219656 -0.00577211 -0.00325468
C 2.65192348 12.40850477 23.25039032 -0.00046576 -0.00506364 -0.00036335
C 5.76862634 6.70709686 31.29426315 -0.00057171 0.00156409 0.00205951
C 1.23491182 12.62984784 31.51876812 -0.00199131 -0.00015622 0.00285553
C 6.95859564 6.66320830 23.37264421 -0.00205408 -0.00598015 -0.00036080
C 5.68765549 0.13057313 26.16550377 0.00256840 0.00510586 -0.00343584
C 2.45223705 6.17371464 17.40967585 -0.00049861 0.00146155 -0.00422123
C 7.04384123 11.78036461 32.59971219 0.00411935 -0.00823633 -0.00159256
C 1.45356672 7.42643076 24.46896754 -0.00404916 0.00155799 0.00169001
C 3.00858896 0.98142421 24.49944746 -0.00289670 -0.00074422 -0.00558059
C 5.79641151 5.53875950 15.91055853 -0.00381028 0.00091895 0.00595818
C 1.31221205 1.34381927 16.21553669 -0.00388415 0.00564921 -0.00725499
C 7.28051130 5.38959164 24.11883798 0.00306364 0.00046772 0.00174299
C 5.63392621 11.75021822 24.70548903 0.00339914 0.00197073 -0.00185983