1920
Time=95000.00000000 pbc="T T T" Lattice="25.55713506 0.00000000 0.00000000 0.00000000 25.72422210 0.00000000 0.00000000 0.00000000 32.81299033" energy=-12253.64575231 virial="-38.93112176 -7.02656582 -12.49943387 -7.02656582 -39.78363996 12.22428572 -12.49943387 12.22428572 24.31494346" stress="0.00035209 -0.00029907 -0.00061333 -0.00029907 0.00035003 0.00055618 -0.00061333 0.00055618 0.00322979" Properties=species:S:1:pos:R:3:vel:R:3
O 5.82288459 2.95255740 6.85713834 0.00356694 -0.00163125 0.00047678
O 2.57507753 3.79420110 15.42791286 -0.00572801 -0.00376477 0.00574063
O 1.68258423 9.96484548 1.50231484 0.00191217 0.00105852 0.00455546
O 6.90504576 9.28955387 9.56051604 -0.00213164 -0.00239334 0.00077698
O 2.66773636 10.02195131 9.89200920 0.00180193 0.00142465 -0.00376878
O 5.96205153 8.83237459 1.65186177 0.00189287 0.00642473 -0.00060100
O 7.01833043 3.14263571 14.81496527 0.00095556 -0.00037762 0.00325188
O 1.24812962 3.77706281 6.95532242 0.00186846 0.00120102 -0.00035917
O 6.95679613 1.40823300 16.88634465 0.00686824 -0.00006534 0.00120084
O 1.76268680 5.15863969 9.18823234 0.00136455 0.00103721 0.00370092
O 2.55999617 11.58010875 7.69568529 0.00209170 0.00076798 0.00043336
O 6.32960191 7.45467790 32.24723092 0.00568937 -0.00542982 0.00154540
O 1.89645830 11.45864632 32.16543571 0.00426194 0.00188481 0.00823357
O 6.79660845 7.39833593 7.85015391 0.00111823 0.00029244 0.00730609
O 6.39256001 1.38237529 8.89430632 0.00294515 0.00294775 -0.00126957
O 2.02905066 5.28800140 17.38654793 -0.00276158 0.00683897 0.00093942
O 5.72195670 3.04737215 22.96352442 -0.00298938 0.00137182 0.00211815
O 2.78607578 3.63749060 31.69583839 0.00024133 -0.00390404 -0.00039459
O 1.40757837 10.50337348 17.90496579 -0.00443306 -0.00042635 -0.00132027
O 7.04947462 8.64206914 26.18378921 0.00019096 -0.00228892 0.00283293
O 2.60180399 10.04295884 26.02573887 -0.00617311 -0.00370507 0.00709551
O 5.85491566 9.37601714 18.02825017 0.00522524 -0.00595467 -0.00496771
O 6.93679984 2.83569219 31.30377883 -0.00039984 0.00180002 0.00021132
O 1.41887665 3.43165340 23.39343550 -0.00058154 -0.00164420 0.00493938
O 6.88351782 1.31757368 0.69443412 -0.00888013 -0.00640900 0.00125712
O 1.72354741 4.93007297 25.56933468 -0.00463384 -0.00180985 0.00954306
O 2.15977286 11.68014262 24.02894639 0.00065006 0.00096571 0.00161474
O 6.31213835 7.69717513 15.88578735 0.00736608 0.00251845 0.00662654
O 2.10720610 11.80163730 15.83040885 0.00378089 -0.00422498 0.00264520
O 6.15616423 7.54886815 24.01135482 0.00952220 -0.00134412 -0.00100938
O 5.98370471 1.64596207 25.20971148 -0.00608762 0.00138772 0.00172429
O 2.21163005 5.17417490 0.96249307 -0.00394310 0.00345813 0.01136596
O 6.09474588 15.30273403 7.37961201 -0.00023817 -0.00032753 0.00013403
O 3.07939851 16.57580658 14.97394634 -0.00365630 -0.00076628 -0.00188241
O 1.39510115 22.93083699 1.17098938 0.00633002 0.00469382 -0.00101863
O 6.99252421 22.29416143 9.41932699 -0.00289363 -0.00210326 0.00066208
O 2.65229135 22.66764015 9.42987131 0.00255732 0.00374594 -0.00589310
O 5.90840860 22.28146259 1.27420659 -0.00541459 0.00475251 0.00452095
O 7.26515936 15.85050191 15.16654949 0.00283173 0.00071854 0.00184547
O 1.43911535 16.42641519 6.92964489 0.00102156 0.00313246 -0.00171803
O 6.60282964 14.59353248 17.64418191 -0.00316131 0.00577988 -0.00318978
O 1.76842169 17.92399787 8.93982445 0.00111243 0.00204600 -0.00397356
O 2.13396896 24.14954244 7.34522284 -0.00020835 0.00208346 -0.00521625
O 6.15198285 20.52785729 32.14163622 0.00481932 0.00307817 0.00064279
O 2.19347449 24.39023119 31.97806186 -0.00011133 -0.00026288 -0.00015961
O 6.88078777 20.41654115 7.53763798 -0.00441778 -0.00468311 -0.00107300
O 6.75912758 13.75399148 9.38577580 0.00207900 0.00439493 0.00516274
O 2.38100262 18.15021604 16.95615074 0.00057293 -0.00033788 -0.00023867
O 5.97236693 15.46944863 23.87895725 -0.00048904 -0.00246684 -0.00826218
O 2.49313025 16.51087726 31.83257956 -0.00242431 0.00289333 -0.00206593
O 2.53546940 23.24523927 17.44601961 0.00291185 0.00106939 0.00007469
O 6.52636748 22.26308582 26.04327207 0.00196701 0.00037321 -0.00354797
O 2.44903387 23.13802087 25.64877525 -0.00846748 -0.00341128 0.00070515
O 5.93722663 22.21362968 17.81304632 0.00441776 -0.00713288 0.00184107
O 6.61324879 15.73988192 31.80119181 0.00141974 0.00022242 -0.00254925
O 1.29599274 16.25691023 22.91863483 0.00625877 -0.00127085 0.00009588
O 6.41238982 14.07968042 0.87691238 0.00257680 0.00658499 0.00149369
O 1.76942950 17.71468874 25.56047641 -0.00083260 0.00531062 0.00375323
O 1.74168728 24.47788540 23.59902603 0.00342038 -0.00355736 -0.00228421
O 6.25705067 20.59896147 15.70634556 -0.00233491 0.00362249 0.00078883
O 1.95732291 24.69949013 15.41882171 0.00611272 0.00479419 -0.00231706
O 6.14892757 20.52980518 23.88071797 0.00035809 -0.00517107 -0.00257418
O 6.45601758 13.80570372 25.75983864 -0.00910140 0.00132241 0.00113413
O 2.37589630 18.15313260 0.91261855 -0.00116701 0.00289831 -0.00024498
O 14.43081807 2.40086454 6.85413284 0.00515411 -0.00037355 -0.00113816
O 11.19742632 4.10885305 15.15834041 0.00285704 0.00063857 -0.00250701
O 10.47486869 10.03495591 1.20981549 0.00150437 -0.00242363 -0.00284557
O 15.51227035 9.28696631 9.35507503 -0.00472228 -0.00091321 0.00115014
O 10.76632199 9.89513416 9.58235088 0.00155944 0.00066327 -0.00244344
O 14.51517827 8.82902545 1.11606354 0.00317651 -0.00240753 0.00876614
O 15.55045295 3.01860163 14.85612420 0.00455895 0.00293804 0.00021320
O 10.23266757 3.66787574 7.36431025 0.00324512 0.00241864 -0.00722265
O 15.29967274 1.54933243 16.95976336 -0.00131724 -0.00023667 0.00215140
O 11.07555033 5.34711885 9.11334507 -0.00154434 0.00147324 0.00301137
O 10.80853178 11.31345808 7.39781282 0.00402587 -0.00202697 -0.00116273
O 14.80243634 7.41573297 31.73287945 0.00084825 -0.00017376 -0.00202573
O 10.94434302 11.78475801 32.19221855 0.00088784 0.00000508 -0.00808200
O 15.07604053 7.58215333 7.62922706 0.00504400 0.00347027 -0.00059764
O 14.84160820 1.11779187 8.93207896 -0.00031754 0.00501739 -0.00435124
O 10.31024086 5.46493620 17.07858540 0.00635365 0.00073175 -0.00184866
O 14.11402274 2.53539339 23.08181559 0.00022190 -0.00140658 0.00484677
O 11.44611442 3.66090483 31.64624538 0.00102210 -0.00120779 -0.00099553
O 10.27372234 10.24217411 17.66939862 0.00208644 -0.00588145 0.00008957
O 14.92998680 9.04356759 25.65330410 -0.00120849 0.00007406 0.00363794
O 11.52983991 10.12970019 26.13147594 0.00576526 0.00007171 0.00651307
O 14.49492239 9.21733587 17.57278539 -0.00507546 0.00383895 0.00425994
O 15.12229984 2.96893792 31.30150109 -0.00080076 0.00120102 0.00082704
O 10.26496318 3.90438436 23.38064826 0.00520469 -0.00489204 -0.00515455
O 14.95826077 1.46536732 0.52712501 0.00374337 0.00483680 0.00054950
O 10.81626481 5.14481191 25.58076317 0.00024518 -0.00155930 0.00147404
O 10.84273232 11.59922178 23.95105718 -0.00305870 -0.00127769 0.00477920
O 15.08103879 7.83810309 15.50226291 0.00310054 -0.00685625 0.00256268
O 10.75250957 11.71185919 15.71113864 -0.00370382 -0.00127181 -0.00088150
O 14.26224160 7.49443368 23.64653467 0.00124965 -0.01123986 -0.00367107
O 14.90408276 1.34189669 25.31021320 0.00132890 -0.00713977 -0.00005284
O 10.85100983 4.86843271 1.03016833 -0.00034920 -0.00559994 -0.00459635
O 14.39732933 15.51567100 6.95693458 -0.00165498 -0.00512705 -0.00228702
O 11.52551844 16.87316788 15.34455104 -0.00672904 -0.00052562 -0.00257940
O 9.65461684 22.87792593 1.13638993 0.00240893 0.00629412 -0.00975193
O 15.29631236 21.83119231 9.01706326 0.00236200 -0.00560527 0.00073881
O 11.10318417 22.96530638 9.19838762 -0.00432408 -0.00027363 -0.00165684
O 13.90598911 22.04639562 1.24245625 0.00203441 0.00337342 -0.00205295
O 16.04921493 15.75762133 15.07799862 -0.00447614 0.00035938 0.00186436
O 10.16771577 16.76531513 7.04816709 -0.00104816 0.00141660 -0.00652266
O 15.29617720 14.37963754 17.19668435 -0.00107739 0.00334352 0.00165969
O 10.71439281 17.90218100 9.28301258 -0.00260444 0.00011663 0.00388324
O 10.73513166 24.29356137 7.09205382 -0.00029176 0.00091634 0.00721027
O 14.53762683 20.72612851 31.71385804 -0.00445631 -0.00261334 0.00656310
O 10.04832662 24.40049997 31.94248056 0.00318587 0.00341843 -0.00230716
O 14.72670394 20.27226786 7.13968929 0.00292542 0.00575174 -0.00578672
O 14.54008363 14.11858085 9.11432481 0.00421388 -0.00576993 -0.00594790
O 10.55430982 18.15669021 17.35141230 0.00235153 -0.00196713 0.00171648
O 14.28918576 15.43450823 23.38412546 0.00203575 0.00529639 0.00229930
O 11.44580344 16.74351300 31.74359771 0.00121862 -0.00250329 0.00452247
O 10.36050393 23.24119739 17.31809433 -0.00040178 0.00427076 -0.00336134
O 15.60814089 22.17432471 25.59891618 0.00256226 -0.00486818 0.00765105
O 11.41703860 22.88540706 25.94925488 -0.00529550 0.00029561 0.00742429
O 14.91055542 22.44659167 17.74820533 -0.00167461 -0.00010076 -0.01025575
O 15.24755995 15.71818877 31.49674209 0.00339746 0.00939431 -0.00898789
O 9.83303149 16.55080116 23.26745820 -0.00079225 0.00031178 -0.00505084
O 14.84920079 14.01071427 0.69157543 -0.00012929 -0.00032284 -0.00018756
O 10.30449471 17.81083805 25.50880556 -0.00259511 -0.00828374 -0.00148399
O 10.90832854 24.28326022 23.70424467 -0.00108357 -0.00011932 -0.00125546
O 14.78814550 20.76738525 15.40575239 0.00102730 -0.00020913 -0.00489403
O 10.89895969 24.90611217 15.24208222 0.00550422 -0.00289176 -0.00542637
O 15.34086299 20.53701642 23.70732375 -0.00167376 -0.00163326 0.00053121
O 15.11063306 14.28285714 25.37600252 -0.00293261 -0.00103860 0.00016226
O 10.68229042 18.13910482 0.90059935 0.00039563 0.00016331 -0.00035815
O 23.18805177 2.74316697 6.77836111 0.00257696 -0.00071078 -0.00059130
O 19.67634526 4.19591984 15.13729305 0.00160664 -0.00947583 0.00198129
O 18.08564023 10.17687698 1.50959891 0.00297271 0.00213618 -0.00090473
O 24.13206603 9.31140196 9.62050183 0.00095666 -0.00484979 0.00345455
O 19.35732744 10.04294644 9.66517327 -0.00160001 0.00117237 0.00072651
O 22.57037946 9.13759774 1.36724660 0.00294393 0.00915852 -0.00030689
O 23.64982235 3.03731299 14.77913869 -0.00417664 0.00016418 0.00105499
O 18.22914822 3.57564016 6.80969869 0.00317149 -0.00586852 0.00241353
O 23.65396661 1.50291372 16.82687138 0.00497947 -0.00030453 0.00330013
O 19.07406400 4.95635539 8.82901775 0.00493208 0.00015670 -0.00477312
O 19.10233748 11.64745244 7.61655777 -0.00211514 -0.00054754 0.01082675
O 23.24804815 7.53845905 32.15343750 0.00379355 0.00441175 -0.00228075
O 18.65824613 11.62149886 32.13512986 0.00448563 -0.00490341 -0.00233286
O 23.75465178 7.79045173 7.56247988 0.00294806 0.00124512 0.00140759
O 23.58044275 1.09775562 8.57425153 0.00193198 0.00391359 -0.00456992
O 18.79869141 5.49722819 17.01627242 -0.00145261 -0.00069059 0.00222239
O 22.85338639 2.61280457 22.96823061 0.00474640 0.00926288 -0.00471281
O 20.01085013 3.59456347 31.45594719 -0.00185292 0.00649307 0.00279562
O 18.40967603 10.06256439 17.73404325 0.00092993 0.00294198 0.00358073
O 23.72690512 9.29193005 25.99731928 -0.00692453 0.00033667 -0.00236481
O 19.86143046 9.59258454 26.33354179 -0.00513500 0.00170212 0.00635611
O 22.99036265 9.28817408 17.71292526 -0.00235099 0.00010780 0.00135858
O 23.99809304 2.61059564 31.03469106 0.00027213 -0.00278239 -0.00026004
O 18.69525182 3.50923077 23.24323271 0.00350668 0.00205129 0.00131101
O 23.56993622 1.21002337 0.50784478 -0.00065133 -0.00071449 0.00277189
O 19.36426209 4.84108125 25.38232227 -0.00581552 0.00007469 0.00010660
O 19.31719538 11.45024637 23.93443313 0.00381725 -0.00435542 -0.00507087
O 23.62217475 7.66641974 15.80568009 -0.00162317 -0.00299733 0.00259913
O 19.19129368 11.77710052 15.72619145 -0.00041242 0.00201827 0.00199030
O 23.76213974 7.80158514 23.88663368 0.00010735 0.00082088 0.00096350
O 23.29863448 0.93304767 24.90091556 -0.00201669 -0.00655770 -0.00005957
O 19.73360188 5.00698121 0.84554043 0.00136008 -0.00079781 0.00679564
O 22.34885528 15.40653363 7.38196104 0.00171440 -0.00414699 0.00842880
O 20.09368672 16.84414640 15.03867498 0.00507198 0.00100797 -0.00728718
O 18.38740684 23.02669358 0.79923456 0.00471126 0.00255628 -0.00364920
O 24.03758174 21.89248435 9.51196032 -0.00057645 0.00120728 0.00110616
O 19.58928655 22.84947400 9.17805373 0.00007680 0.00552598 0.00517362
O 22.77836231 22.32554076 1.44719950 -0.00134688 -0.00023532 0.00070169
O 23.60022614 15.68073556 15.53137582 0.00161868 0.00160222 0.00555971
O 18.73761995 16.31334460 6.82522623 -0.00911103 -0.00531016 -0.00120914
O 23.47574319 14.11739139 17.45715657 0.00308738 0.00129254 -0.00134920
O 19.25579556 17.95147263 8.78146502 -0.00300256 -0.00652188 -0.00406601
O 19.12706396 24.38332286 7.15378293 0.00056710 -0.00066403 -0.00045429
O 22.98084065 20.52316011 32.19011619 0.00192541 0.00303054 -0.00215448
O 19.36605714 24.56528417 31.65499780 0.00004321 -0.00024217 -0.00871958
O 23.58710116 20.42676980 7.59338268 -0.00347245 0.00451422 0.00170484
O 23.59173716 14.23834506 9.25527833 -0.00071308 0.00371888 -0.00130682
O 19.37176052 18.05653569 17.08822947 -0.00394356 -0.00228438 -0.00141020
O 22.53717572 15.74158866 23.51847273 0.00116244 0.00610677 0.00296438
O 19.73416008 16.46571836 31.38150975 -0.00146243 -0.00334372 -0.00071458
O 18.98899363 23.09710775 17.34179161 0.00413744 -0.00356474 0.00673572
O 23.94863948 22.07716875 25.87772398 0.00419059 0.00083594 -0.00308082
O 19.20564851 23.15199281 25.49658438 -0.00023815 -0.00338071 -0.00392577
O 23.56836862 22.51694328 17.46620658 0.00443803 -0.00211705 0.00332476
O 24.13063175 15.49238425 31.91048076 0.00208552 0.01025050 0.00465066
O 18.50577481 16.59411299 23.14943981 0.00017239 0.00147007 -0.00382077
O 23.74474675 14.12199350 1.13386990 -0.00210114 0.00251000 0.00007983
O 19.28615316 17.90245245 25.23503175 -0.00260148 -0.00141543 0.00221699
O 18.63160345 24.57330889 23.39239099 0.00293958 0.00141761 0.00402866
O 23.72737612 20.76183013 15.58218661 0.00094252 0.00300615 -0.00417779
O 19.39908764 24.79955959 15.31009196 0.00076188 -0.00141828 0.00118331
O 23.47299100 20.60186817 23.75618133 0.00051350 -0.00851103 -0.00096548
O 23.13175039 14.47185078 25.76236735 -0.01005661 -0.00447125 -0.00369626
O 18.89927821 17.88870879 0.67123488 0.00270167 -0.00248357 -0.00379423
N 7.44208444 12.86684791 2.50972904 -0.00098892 0.00269489 -0.00590479
N 0.89440288 6.46184590 10.84475989 -0.00931449 0.00194635 0.00385278
N 2.95482544 25.47398366 5.70407314 -0.00165468 0.00535235 -0.00109856
N 5.32175182 6.53415738 14.13401548 0.00125528 -0.00127324 0.00416213
N 1.12073011 0.11304870 13.61586803 0.00130300 -0.00495833 -0.00518648
N 7.66350895 6.12548571 6.12418139 -0.00025980 -0.00753580 0.00133492
N 5.14989022 13.07028886 10.85155160 -0.00684327 -0.00193803 -0.00728258
N 3.30229558 6.41012526 2.60968315 0.00385918 0.00086382 0.00168974
N 7.70682315 13.28001520 19.11391182 0.00222214 0.00065575 -0.01069791
N 0.87619915 6.19105615 27.26390858 0.00207993 0.00305442 0.00653149
N 3.08353016 0.04633766 22.34393962 0.00426971 -0.00511699 -0.01052176
N 5.23451439 6.20619937 30.63045754 0.00093450 -0.00174488 0.00260621
N 0.87966827 25.34143313 30.42437017 -0.00215926 -0.00154173 0.00227021
N 7.19487441 6.33670665 22.36740336 0.00686502 0.01154402 0.00375356
N 5.34899472 12.56609532 27.39835630 0.00004892 0.01101700 0.00135955
N 3.04594563 6.46850669 19.00555588 0.00464505 0.00066582 -0.00134722
N 7.07289709 25.61944289 2.40869701 -0.00305786 0.00112415 0.00371252
N 1.00475193 19.29895007 10.68121654 -0.00286456 -0.00231139 0.00049694
N 3.07028404 12.90469716 5.93747532 0.00198603 -0.00244773 0.00661140
N 5.01469863 19.70742874 13.97568415 0.00058694 -0.00179307 -0.00197901
N 0.74137775 12.85191972 14.20885339 0.00185254 0.00138548 -0.00118559
N 7.33204221 19.11317250 5.76378416 0.00026438 0.00358389 0.00733567
N 5.45424983 0.12486348 10.45425520 -0.00926300 0.00189163 0.00002927
N 3.07539778 19.44935861 2.65116949 -0.00796364 0.00342198 0.00090982
N 7.61503632 0.18637058 18.67462972 0.00224639 0.00300914 0.00330327
N 1.30029518 19.35693222 27.18064721 0.00311256 -0.00307073 -0.00351800
N 3.45016954 12.76165210 22.55049926 -0.00056104 -0.00251507 0.00100644
N 5.30306845 19.11876706 30.54900374 -0.00005557 0.00157110 -0.00087836
N 1.09870068 12.87699815 30.52397802 -0.00058698 -0.00526359 -0.00017244
N 7.57026565 19.53233093 22.38363021 0.00240545 -0.00041710 -0.00374925
N 5.42222258 0.08845788 26.75645120 0.00125831 -0.00395802 -0.00300432
N 3.48892093 19.17267620 18.72687888 0.01112358 0.00324397 0.00130797
N 15.78842321 12.73480090 2.34169827 0.00280857 -0.00008856 -0.01162152
N 9.63131479 6.47954412 10.51416096 -0.00407116 -0.00280403 0.00488883
N 11.77030942 25.50812201 5.48738143 -0.00414888 -0.00540201 0.00008174
N 13.58887030 6.87397038 13.99376457 0.00348849 -0.00725265 0.00380608
N 9.73126498 0.18801785 13.58181630 0.00374951 -0.00369433 0.00231160
N 16.05504424 6.40503066 5.90378604 0.00083523 0.00065791 0.00224630
N 14.06325602 12.80753610 10.88113194 0.00219252 0.00576889 -0.00184249
N 12.13903800 5.91010854 2.60361270 0.00144907 -0.00365670 0.00246239
N 16.14067741 13.03368884 18.75504245 0.00317649 0.00025767 -0.00342995
N 9.38541791 6.05380926 27.10321906 -0.00577167 0.00337113 -0.00361647
N 11.92201733 25.50057422 22.03648987 -0.00174571 0.00169047 0.00227900
N 13.63590999 6.25780481 30.23895909 -0.00518882 0.00163611 -0.00447462
N 9.52862314 0.09596937 30.27341004 -0.00522999 0.00275316 -0.00331159
N 15.91102235 6.66229870 22.28196191 -0.00077884 -0.00277479 0.00155445
N 13.90170766 13.05942710 26.89879578 -0.00457235 -0.00187371 0.00001434
N 11.76604583 6.49310900 18.63710959 0.00004481 -0.00328381 -0.00411247
N 16.09937117 0.29583774 2.07071727 0.00349354 -0.00262587 0.00105206
N 9.62131248 19.26424194 10.75922015 0.00668323 0.00753415 -0.00101795
N 11.82252818 12.59112258 5.83057137 -0.00108453 -0.00379340 0.00353655
N 13.79533169 19.57453488 13.71371993 -0.00368860 -0.00415050 0.00168938
N 9.59011164 12.80552622 14.12127227 -0.00196135 -0.00423857 0.00058834
N 16.17767504 19.32312677 5.60496380 0.00161109 -0.00098367 -0.00752652
N 13.57945707 0.17624253 10.53732687 0.00149196 -0.00385321 0.00186321
N 11.81197926 19.29546285 2.51313538 0.00269934 0.00166783 0.00382363
N 16.42583176 0.30453205 18.57061472 -0.00375224 -0.00427127 -0.00421598
N 9.54945186 19.11687556 27.20476316 0.00298200 0.00383011 -0.00024640
N 11.84810006 12.82933390 22.32419764 0.00388108 -0.00275905 0.00176214
N 13.29302786 19.76474134 30.06110643 -0.00393591 -0.00329962 0.00393437
N 9.59435798 12.77551225 30.72329389 0.00238957 -0.00270934 0.00060002
N 16.34526253 19.28614439 22.03744668 0.00051574 -0.00126158 0.00488545
N 13.92052781 25.67462774 26.85162295 0.00015419 -0.00290223 -0.00275604
N 11.88454331 19.17797560 18.86686904 0.00279872 -0.00106047 -0.00213959
N 24.80278244 13.28030124 2.97401969 -0.00889465 0.01127168 0.00162378
N 18.39214327 6.52767647 10.30525218 -0.00385968 -0.00216138 -0.00241016
N 20.37350547 25.32292712 5.42750328 -0.00295496 0.00204131 -0.00118784
N 22.55348542 6.49906707 14.10138434 0.00331233 0.00190582 -0.00206856
N 18.10923926 0.05106091 13.59285709 -0.00413461 -0.00478837 -0.00529272
N 24.66137837 6.63078941 5.82965296 -0.00406498 0.00258906 0.00343700
N 22.42576156 13.01146686 10.80817992 -0.00090849 0.01199180 0.00083816
N 20.46351465 6.30878428 2.55011508 0.01338155 -0.00262031 -0.00284403
N 24.58611010 12.94147879 19.07307313 -0.00430302 -0.00547048 0.00325365
N 17.98529677 5.85094933 26.87942253 -0.00071675 0.00171297 -0.00528124
N 20.21586429 25.56062174 22.16036255 0.00142586 0.00689267 -0.00636202
N 22.41059226 6.21642867 30.48180301 0.00039158 0.00185265 0.00514791
N 17.94658064 25.58635114 30.21386163 0.00476531 -0.00348147 0.00173401
N 24.49038859 6.47925277 22.25276299 0.00082500 0.00187682 0.00327327
N 22.14179549 13.07167585 27.34045980 0.00809316 0.00230376 -0.00037760
N 19.81648943 6.58228039 18.73459409 -0.00043057 0.00424110 0.00613623
N 24.60186663 25.70389413 2.18696209 0.00348842 -0.00059508 -0.00037519
N 17.90108330 18.83939840 10.45246724 0.00387538 0.00164048 0.00121898
N 20.19240368 12.84896559 5.84456955 0.00670906 0.00583309 -0.00073677
N 22.36301552 19.49062287 14.21057709 -0.00357388 -0.00299606 0.00316481
N 18.06487838 12.95154281 14.15080254 -0.00376964 0.00414658 -0.00333020
N 24.47860841 19.27119310 5.78242656 0.00174962 0.00265935 -0.00710189
N 22.61261829 25.57161655 10.31836551 0.00268088 -0.00343122 -0.00694427
N 20.31075766 18.90981091 2.14908795 -0.00771525 0.00082549 -0.00164309
N 24.33289023 25.70534709 18.34601651 -0.00515741 0.00420547 -0.00200021
N 17.95846238 18.99458677 26.76631113 0.00057139 -0.00318498 -0.00180017
N 20.32547344 12.63207734 22.31622788 -0.00153384 0.00321488 0.00351711
N 22.21118641 19.39386769 30.37662437 -0.00309819 0.00116184 0.00153050
N 17.61965165 12.60450004 30.41061018 -0.00488712 -0.00525731 -0.00602677
N 24.53264654 19.51690321 22.01884487 0.01578330 0.00191963 0.00568921
N 22.20623747 25.55185135 26.60584824 0.00479764 0.00405751 0.00322260
N 20.56310611 19.17003309 18.70774259 0.00507783 -0.00439677 0.00305778
C 7.35245568 0.36280696 4.74425861 -0.00228401 -0.00732398 -0.00037061
C 0.83826528 6.09118375 13.21133835 0.00018163 -0.00044770 -0.00388280
C 3.14793892 12.50321088 3.62808657 -0.00132262 0.00804998 0.00620709
C 5.25814423 6.85905271 11.73074516 -0.00313663 -0.00467034 -0.00093471
C 0.88846094 12.55560893 11.88044355 0.00333615 0.00465006 -0.00243366
C 7.92218798 6.59421322 3.80864858 -0.00347874 -0.00065500 0.00178773
C 5.32553008 0.69269647 12.84696012 0.00027005 -0.00030175 -0.00074659
C 3.37522828 6.00004488 4.95347778 -0.00268801 0.00849477 -0.00128543
C 7.05670944 1.13398835 5.85484509 0.00089735 -0.00016327 -0.00367182
C 1.06047131 5.34244585 14.36748281 0.00388948 -0.00474120 -0.00636813
C 2.88809098 11.71921072 2.53617661 -0.00026423 -0.00464563 -0.00144162
C 5.64113513 7.62555832 10.65278691 -0.00374325 -0.00248949 -0.00106780
C 1.36660119 11.86786787 10.80158363 0.00036588 0.00174677 0.00449056
C 7.47620167 7.26233104 2.61656050 0.00181478 -0.00207026 -0.00891629
C 5.68076614 1.45638521 13.92808323 -0.00539939 -0.00302693 0.00874026
C 2.85733534 5.33708037 6.02525934 0.00026503 0.00458653 -0.00277938
C 6.21445952 2.30103206 5.75311769 0.00572843 0.00079983 -0.00243832
C 2.00709312 4.30687508 14.34366861 -0.00055413 0.00082127 -0.00539070
C 2.13040528 10.56436145 2.64563793 -0.00419247 0.00174786 0.00018448
C 6.43250273 8.73428741 10.71263370 0.00348136 0.01073410 0.00508840
C 2.13975628 10.65775203 11.00012405 -0.00080090 0.00240300 -0.00262176
C 6.60489875 8.39311207 2.72614840 -0.00599655 0.00319016 -0.00052800
C 6.40882940 2.58515048 13.76934439 -0.00599377 0.01132154 0.00815301
C 2.01969003 4.22563872 5.91476810 0.00601344 -0.00189891 -0.00325542
C 5.93443548 2.75702982 4.42999507 0.00028783 0.00034856 0.00246657
C 2.38782024 3.88374706 13.07332326 -0.00126735 0.00153453 -0.00333688
C 1.88239397 9.97156913 3.90425001 -0.00289750 0.00445043 -0.00151214
C 6.60019631 9.26048759 12.01009723 -0.00482473 -0.00383007 0.01647270
C 2.23677168 10.09521179 12.25338698 -0.00650929 0.00714221 0.00416240
C 6.31730364 8.87911509 4.03061856 0.01167545 0.00624397 0.00501145
C 6.70983981 3.00107464 12.44248154 -0.00055843 -0.00003798 0.00448901
C 1.90121888 3.63640476 4.65328224 -0.00099693 0.00669476 -0.00317936
C 6.33358242 2.02413732 3.33809076 -0.00495404 0.00052790 -0.00296471
C 1.94619759 4.50088378 11.92642155 0.00219084 0.00573261 -0.01618465
C 2.39764545 10.67799483 4.99191723 -0.00308210 -0.00095006 0.00319920
C 6.17964706 8.59637040 13.16531153 0.00075729 0.00293789 -0.00688585
C 1.75115464 10.75976139 13.38068736 -0.00392091 -0.00355857 0.00566120
C 6.73539551 8.24984620 5.18744316 0.00377287 0.00312983 0.00763474
C 6.43852817 2.24312682 11.37532222 -0.00372071 0.00195611 0.00695960
C 2.26963572 4.33196627 3.57543171 -0.00320444 0.00448476 0.00486207
C 6.95357011 0.76736098 3.48106284 -0.00767607 0.00805237 -0.00172350
C 1.24943717 5.68338170 11.96510486 0.00570156 0.00499583 0.00434663
C 2.83815020 12.01262153 4.87592383 0.00267766 -0.00594452 0.00115256
C 5.57238781 7.33852474 13.05287383 0.00181922 -0.00245722 0.00061402
C 1.17570051 12.00696810 13.15793357 0.00454175 -0.00258967 0.00258259
C 7.51369020 7.00754367 5.07591204 -0.00088280 0.00105741 -0.00042596
C 5.71390433 1.00396024 11.54049668 0.00591267 0.00329889 -0.00085628
C 2.97488629 5.56795575 3.67711864 0.00140619 -0.00752503 -0.00644554
C 7.06057458 0.16809927 1.11204260 -0.01248322 -0.00289306 -0.00687347
C 1.37718682 6.22732102 9.59158532 0.00434006 -0.00168624 0.00872381
C 2.66188764 12.74382966 7.20549845 0.00329647 0.00641457 0.00747643
C 5.75683209 6.70305326 15.46627731 -0.00036342 0.00160067 0.00099819
C 1.44845153 12.78869498 15.42317032 0.00483804 -0.00017492 0.00129641
C 7.24711987 6.33668107 7.42361214 -0.00263335 0.00033709 0.00712277
C 5.85414036 0.31970223 9.18508354 -0.00460384 -0.00103921 -0.00234995
C 2.80549278 6.17808670 1.31350752 0.00343097 0.00154158 0.00164306
C 7.20629799 12.33069418 16.91246656 0.00200451 0.00196219 0.00003233
C 1.39539326 7.49466404 8.63051680 0.00446390 -0.00524792 0.00647664
C 2.41726590 0.81041202 7.67468240 -0.00117357 -0.00263433 -0.00557208
C 5.54551647 5.28727670 32.79401271 0.00204430 0.00229980 0.00169237
C 1.39963039 0.92084719 32.32190626 -0.00320375 -0.00998079 0.00351726
C 7.34530420 5.13649299 8.29650407 -0.00373414 0.00668811 0.00132031
C 5.33138692 11.98256400 8.75159687 -0.00129002 -0.00139105 0.00361594
C 2.34934896 7.60462522 16.99748326 -0.00684912 -0.00263446 0.00380937
C 7.69021170 0.70247991 21.00166986 -0.00186887 0.00802507 -0.01107135
C 0.87046831 5.78665747 29.58071642 -0.00363413 0.00025982 0.00045406
C 3.41212205 12.46878419 20.13319946 -0.00174202 0.00080663 0.00712717
C 5.10957219 6.53134902 28.25339352 -0.00339427 -0.00749817 0.00124923
C 1.01138115 12.46667322 28.14188665 0.00390959 -0.00062230 -0.00429930
C 7.45861928 6.86433855 20.06751338 -0.00451770 -0.00150114 0.00143744
C 5.42615760 0.30401386 29.14379276 0.00032990 -0.01630006 0.00416194
C 3.07285351 6.00078597 21.31909884 0.00570298 0.00652575 0.00304987
C 7.25318635 1.43570793 22.07290928 0.00046978 0.00115081 0.00291151
C 1.30589898 5.14532244 30.70732903 -0.00415413 -0.00360109 0.00318552
C 3.07020770 11.84851131 18.93351374 0.00216145 0.00222434 -0.00380613
C 5.42497437 7.29249426 27.18219953 -0.00345373 0.00112131 -0.00255482
C 1.30651397 11.67409924 27.06544544 -0.00180590 0.00315622 -0.00748369
C 7.28377997 7.69838955 18.98852582 0.00377465 -0.00099727 0.00700881
C 5.71237682 1.01395392 30.31241971 -0.00109304 0.00252789 -0.00006811
C 2.79630310 5.20652937 22.44513065 0.00070690 0.00051570 -0.00507814
C 6.35735987 2.50767475 21.89174718 0.00034492 -0.00184962 0.00340363
C 2.17623908 4.08484675 30.60332831 0.00743099 -0.00153143 -0.00044643
C 2.06991274 10.84006383 19.01314857 -0.00839572 0.00154389 0.00209496
C 6.41513205 8.28270407 27.28361288 -0.00275486 -0.00028233 -0.00201883
C 2.09004499 10.51859377 27.15184268 -0.00476393 -0.00307200 0.00007837
C 6.34631755 8.76339862 19.16720637 -0.00024068 0.00470583 0.00768759
C 6.48266408 2.24726918 30.19292797 -0.00193875 0.00156480 0.00085006
C 1.92434235 4.14256651 22.31560277 -0.00119023 -0.00271730 -0.00317995
C 6.10344416 2.95225833 20.59798569 0.00374049 0.00417419 0.00180521
C 2.44284944 3.52000588 29.30316878 0.00131805 -0.00085400 -0.00074640
C 1.79695797 10.25748055 20.23308419 0.00572228 0.00048183 -0.00587878
C 6.80851563 8.76072429 28.55204740 0.00061620 -0.00581684 -0.00075363
C 2.25873977 10.02466192 28.47611164 0.00096803 0.00416452 -0.00729727
C 5.91810253 9.19708887 20.41600087 0.00523006 -0.01106980 -0.00216716
C 6.82153761 2.73196895 28.95973977 0.00285374 -0.00273187 -0.00314783
C 1.52706262 3.69071018 21.00219435 0.00354178 -0.00235386 -0.00194801
C 6.66172873 2.29453738 19.50422878 -0.00417226 0.00149839 -0.00089241
C 1.90797578 4.12605658 28.16852995 0.00523006 0.00327737 0.00922506
C 2.19586507 10.85200227 21.45505964 0.00352179 -0.00249749 -0.00123749
C 6.28185907 8.15302376 29.64520607 -0.00379367 0.00198073 0.00757319
C 1.88467471 10.72313011 29.61967073 -0.00133887 -0.00820876 -0.00079657
C 6.20901932 8.35872284 21.49221169 -0.00608505 0.00328872 0.00142742
C 6.56410595 1.95943135 27.82691179 -0.00008342 0.00292089 -0.00056699
C 2.07656869 4.32384873 19.87606286 0.00149530 0.00200017 -0.00077930
C 7.31416276 1.05013635 19.71673099 -0.00370728 0.00436877 0.00260759
C 1.27174620 5.38741415 28.32600633 0.00871028 0.00106756 -0.00758690
C 2.93276379 12.04939132 21.35658504 0.00652330 0.00100038 -0.00280415
C 5.61443757 6.94419311 29.51185268 -0.00424841 -0.00333054 0.00024632
C 1.30225059 12.01172647 29.46360466 -0.00195217 0.00162158 0.00355440
C 6.96946710 7.19268943 21.30401991 0.00036529 0.00383549 -0.00058819
C 5.75791844 0.79070505 27.92011320 0.00116360 0.00377613 0.00320791
C 2.71400268 5.60945933 20.03811670 0.00026612 0.00001549 0.00278064
C 7.21472560 0.32982331 17.35331486 0.00754640 -0.00212003 -0.00367350
C 1.39828185 6.04886553 26.01579293 0.00203851 0.00352722 -0.00458402
C 2.91093283 12.60322623 23.78581544 -0.00131989 0.00060096 -0.00403871
C 5.72326710 6.44684751 31.84798622 0.00123284 0.00393534 0.00390826
C 1.54824444 12.59381670 31.76569138 0.00180395 -0.00774539 0.00825323
C 6.73991075 6.54253092 23.57535551 0.00485847 0.00616421 -0.00160669
C 5.72657961 0.47738974 25.49723980 -0.00730286 -0.00619331 0.00286293
C 2.46206380 6.33298258 17.80164421 -0.00431422 -0.00389591 -0.00150615
C 7.02041896 11.84919515 0.34072634 0.00186489 -0.00384055 0.00428640
C 1.44419348 7.38841478 25.16533293 0.00650665 -0.00493562 0.00123797
C 2.59960885 0.72136410 24.63117991 -0.00544427 -0.00693180 -0.00217687
C 5.62823082 5.50344626 16.29779260 0.00476687 0.00166501 -0.00913706
C 1.34924535 1.30717702 15.78144891 -0.00878379 -0.00383129 -0.00797280
C 7.05566760 5.40057951 24.51699549 0.00406653 -0.00754754 -0.00254581
C 5.72536584 11.63759637 25.24958192 0.00510231 0.00158062 -0.00018396
C 3.08839465 7.28667586 0.36489625 0.00443007 -0.00987409 0.00012227