1920
Time=50000.00000004 pbc="T T T" Lattice="25.65519655 0.00000000 0.00000000 0.00000000 25.65686494 0.00000000 0.00000000 0.00000000 32.74056253" energy=-12253.53583503 virial="-66.59222805 -3.07615045 3.97308290 -3.07615045 -75.06590797 -15.59546819 3.97308290 -15.59546819 -74.99499509" stress="-0.00092549 -0.00016271 0.00015384 -0.00016271 -0.00142850 -0.00066755 0.00015384 -0.00066755 -0.00136232" Properties=species:S:1:pos:R:3:vel:R:3
O 5.99721644 2.76132282 6.77203367 0.00208964 0.00025952 -0.00249177
O 2.21523734 3.83710723 15.28915186 0.00056722 -0.00471246 -0.00193587
O 1.78393855 9.61859868 1.74716194 -0.00052691 0.00065815 -0.00074694
O 7.59139629 8.80002731 9.63560625 -0.00035750 0.00676760 0.00147235
O 2.64075365 9.95557675 9.81964838 -0.00175900 0.00171243 -0.00393652
O 5.93575662 8.70676844 1.24810913 -0.00578729 0.00636399 0.00109118
O 7.20693310 2.79690774 14.96360528 -0.00651337 0.00282631 -0.00781721
O 1.50859956 4.11207313 7.08028546 -0.00225920 -0.00180077 -0.00428113
O 6.61335168 1.19316128 16.92338923 0.00604159 0.00004095 -0.00458728
O 2.42973360 5.40813821 9.17491081 0.00248444 0.00178897 0.00637641
O 2.30344423 11.85215053 7.84725058 0.00037209 0.00242181 0.00084001
O 6.50618877 7.29698427 31.94214668 -0.00638786 0.00082343 -0.00137846
O 1.56180960 11.34244375 32.46215194 -0.00075076 -0.00469288 0.00022007
O 6.69896672 7.56876330 7.55463575 0.00188477 -0.00197999 -0.00096936
O 6.75184847 1.37785081 8.78635394 -0.00147621 -0.00032816 0.01033127
O 2.29468065 5.59098363 17.29717252 -0.00388582 -0.00191151 -0.00198356
O 5.94465645 3.23242524 22.79016762 -0.00557299 0.00427263 0.00236789
O 2.50310268 3.66719125 31.48630893 0.00048822 0.00455053 0.00575937
O 1.75224143 10.19993981 18.06926509 0.00354008 -0.00714101 0.00636822
O 6.71393640 9.39336556 26.05959054 -0.00548059 -0.00088994 -0.00001677
O 2.68159998 9.92780824 26.21027123 -0.00175821 -0.00295577 0.00266848
O 6.18131233 8.87332364 17.91152992 -0.00505815 -0.00041918 0.00250826
O 6.25595126 2.64529592 31.21700906 -0.00241152 0.00217924 -0.00400208
O 1.17344940 3.87979199 23.15949775 -0.00598889 0.00204122 0.00242203
O 5.89139145 0.95566768 0.65532747 -0.00318588 -0.00564899 -0.00067376
O 1.92915293 5.17490520 25.37076566 0.00632801 0.00335049 -0.00111996
O 2.36860240 11.57365517 24.33723470 0.00374974 0.00133889 -0.00333856
O 5.87711832 7.71455409 15.62915389 0.00418499 0.00339540 0.00221856
O 2.41658514 11.59031789 16.13451621 0.00249789 -0.00363915 0.00713673
O 6.58153809 7.60753762 24.17789783 -0.00708060 -0.00847359 0.00044886
O 6.15233704 1.57881354 24.86256293 0.00497933 -0.00662556 -0.00129392
O 2.02616392 5.01542191 0.88052934 -0.00175193 -0.00074988 -0.00285773
O 5.92816031 15.45511171 7.32931945 -0.00029665 -0.00208637 0.00164053
O 2.85412275 15.99391973 14.70315384 0.00338070 -0.00190196 0.00191107
O 1.75822265 22.42031424 1.33904278 0.00565403 0.00208515 -0.00313244
O 7.29374608 21.96862176 9.25694900 -0.00137996 0.00045088 0.00078498
O 3.27033350 22.86905000 9.28938755 -0.00326932 0.00652398 0.00154092
O 5.95679283 21.73333493 0.84863365 -0.00439651 0.00519528 -0.00062155
O 7.08739327 15.34276770 15.41384966 -0.00088253 -0.00787688 -0.00176617
O 1.85199521 16.49024034 6.61842182 -0.00128445 -0.00004380 0.00005154
O 5.97466620 13.94624349 17.47320471 0.00288554 0.00923610 -0.00699000
O 2.30390030 18.08861973 8.69289836 -0.00326184 0.00138359 0.00470260
O 2.49983692 24.47223709 7.27075903 -0.00319236 0.00311468 0.00083023
O 6.50003109 20.44048513 31.43839700 0.00670599 0.00174854 -0.00017857
O 1.82416552 24.10015823 31.94376092 -0.00327675 -0.00464395 -0.00235324
O 6.72829951 20.42782370 7.26438800 -0.00481778 -0.00283441 -0.00867775
O 6.64558500 13.90393023 9.23935739 0.00115073 0.00291064 -0.00445055
O 2.85907405 17.52519198 16.85304433 -0.00026532 -0.00154413 0.01126698
O 5.87785063 15.67353735 23.65591716 -0.00197572 -0.01121535 -0.00999081
O 2.54554339 16.07114200 31.18167349 -0.00103008 -0.00273868 0.00222632
O 1.51242628 22.94392339 17.50456051 0.00319377 -0.00158258 0.00049972
O 6.73668717 22.11975565 25.41330175 -0.00097873 0.00384429 0.00172897
O 2.65216055 23.27784470 25.60771852 0.00083843 -0.00499525 0.00040529
O 5.73170406 21.81257906 17.14323219 -0.00390374 -0.00121617 -0.00399232
O 6.73376321 15.58019262 31.70440873 0.00384880 0.00502261 -0.00018776
O 1.80845201 16.15916065 23.05779130 0.00597905 0.00596612 -0.00663525
O 6.61783752 13.95408045 1.09397825 -0.00106355 0.00110271 0.00286792
O 1.91551993 18.02583753 25.12473944 0.00256999 0.00070760 -0.00349272
O 1.88131070 24.66756008 23.48822511 0.00470448 0.00333560 0.00915269
O 6.68046509 20.25927005 15.27928875 -0.00616069 -0.00216495 -0.00267980
O 1.98174583 24.38251659 15.37906467 -0.00243470 0.00407041 0.00036471
O 6.33369781 20.41359966 23.36540080 0.00473612 0.00032076 0.00033878
O 6.38580946 14.09451778 25.66398776 0.00095374 -0.00136189 -0.00382192
O 2.23127830 17.81639509 0.45784888 0.00585967 0.00235454 -0.00300063
O 14.69643859 3.16403643 6.74049434 -0.00960115 -0.00040498 -0.00235051
O 11.39198501 3.70686776 15.23686199 -0.00645836 -0.00675994 0.00188944
O 10.02764814 9.84093707 1.89008398 -0.00472185 0.00514659 0.00665886
O 15.63498484 9.21996578 9.57192373 -0.00059253 -0.00200323 -0.00217499
O 11.42363378 10.29004721 9.55035473 0.00003373 -0.00714930 -0.00153232
O 14.46002576 9.33481661 1.07911152 0.00094730 0.00279321 -0.00371207
O 15.34078843 2.71594479 15.13233552 -0.00467854 -0.00157872 0.00191943
O 10.65190193 3.59179823 6.97492626 -0.00286287 0.00290365 -0.00020324
O 14.82671883 1.13418168 17.06541337 -0.00308071 0.00179058 0.00916607
O 10.95079921 5.14006105 8.99638275 0.00197213 0.00029259 0.00458100
O 10.54265101 12.03687291 7.82805222 -0.00042108 0.00039856 0.00476410
O 14.73479977 7.66220296 31.70415783 0.00708936 -0.00375248 0.00102294
O 10.01025520 11.31224278 32.61687831 0.00147015 0.00058600 0.00209033
O 15.39660331 7.89676082 7.30889518 -0.00435057 -0.00376625 0.00163506
O 15.00403787 1.58465685 8.89574248 -0.00079028 0.00595754 -0.00241563
O 10.90454968 4.93131797 17.39105697 0.00247967 -0.00370672 -0.00607474
O 14.51093482 2.95283334 23.17256753 -0.00871019 -0.00228351 -0.00563204
O 10.93685441 3.57850375 31.71539741 -0.00249359 0.00144679 -0.00823214
O 9.80276099 10.23655275 18.11817462 0.00217529 0.00014909 0.00251550
O 15.71788082 9.12002322 25.52553131 0.00015992 -0.00356787 -0.00239515
O 11.15720536 10.34840406 26.27854480 0.00432627 0.00059132 0.00155669
O 14.26447080 9.12809939 17.46325281 0.00326025 0.00088907 -0.00597951
O 15.05236856 2.80181850 31.31839148 -0.00653417 0.00283201 -0.00060987
O 9.75984239 3.86299349 23.49434647 -0.00453532 -0.00100573 0.00365295
O 15.18845231 1.29843257 0.74882488 -0.00807574 0.00587540 0.00337369
O 10.48196001 5.37691028 25.32584692 0.00335591 0.00049825 -0.00093854
O 10.46891583 11.90956175 24.17001341 -0.00306409 -0.00352956 -0.00310567
O 15.06172405 7.52588032 15.61067107 0.00390649 0.00348884 0.00586048
O 10.59439293 11.06961855 15.91144086 -0.00594822 0.00183523 -0.00446961
O 15.20060228 7.60547060 23.56067789 0.00465136 -0.00068539 -0.00095836
O 14.97116532 1.33641870 25.12792538 -0.00842105 0.00318047 0.00230219
O 10.56646046 5.21590715 0.83003154 -0.00218731 -0.00145725 0.00326690
O 14.40005143 15.87105246 7.20435211 0.00336833 0.00389364 0.00156530
O 11.16390189 15.99824294 14.59628414 -0.00479637 -0.00585395 0.00120226
O 9.57097443 23.37294790 1.33225891 -0.00062710 0.00705564 -0.00087006
O 15.65146416 22.23591189 9.10930613 -0.00089337 0.00629814 0.00640365
O 11.67158522 22.85592427 9.25052401 -0.00109940 0.00001492 -0.00053501
O 13.92947987 21.82560122 0.98431879 0.00174249 0.00300439 0.00172722
O 15.59358271 15.34178131 15.65442475 0.00341477 0.00249684 0.00740858
O 10.14042847 16.81854763 6.49274753 0.00392745 -0.00141007 -0.00226013
O 14.70831359 13.87975679 17.55965374 0.00427610 -0.00072438 0.00184843
O 10.43590271 18.11111397 8.66863438 -0.00085218 0.00151679 0.00268290
O 10.83173119 24.45502177 7.31203675 -0.00263166 -0.00082024 -0.00017119
O 14.62762949 20.51448023 31.59363935 0.00537057 0.00461811 0.00558200
O 9.99484135 24.44042761 31.82057166 -0.00561663 -0.00242945 -0.00219711
O 15.68486963 20.73450783 7.00141801 -0.00004880 -0.00045482 0.00104974
O 14.57001718 14.19957781 9.24532747 0.00077051 0.00226341 0.00530804
O 11.32281946 17.50305094 16.62141965 -0.00145206 0.00675306 -0.00280379
O 14.92096659 15.55559403 23.86027863 -0.00635432 -0.00023780 0.00322096
O 10.60068762 16.41715363 31.25822143 -0.00263544 -0.00072010 0.00328528
O 9.66844943 22.44262959 17.53810857 -0.00158122 0.00132874 0.00161310
O 15.46601408 22.32682983 25.52150714 0.00732114 -0.00010311 -0.00653466
O 10.88998586 22.84228145 25.72180782 0.00629337 0.00354394 0.00960932
O 14.35484075 21.78133711 17.15658620 0.00289092 0.00058393 0.00394667
O 15.62615298 15.34802614 31.82202059 0.00249599 0.00518895 -0.00329394
O 10.56790612 16.48215054 22.93530858 0.00086121 0.00459302 0.00406196
O 14.65360887 14.23466131 1.10832427 0.00282212 0.00203100 0.00139458
O 10.79176370 18.00310915 25.03955830 0.01222227 0.00333796 -0.00311579
O 10.61627173 24.37029297 23.56771058 0.00238386 0.00127114 -0.00316331
O 15.20470576 20.34915020 15.10454322 0.00121169 -0.00204707 -0.00450409
O 10.53868326 23.93188937 15.42718443 -0.00305334 -0.00013301 0.00410110
O 15.06221952 20.70141810 23.43624664 0.00766450 -0.00069772 0.00218389
O 15.20529959 13.73590512 25.70735909 -0.00766391 -0.00223195 -0.00486877
O 10.58395347 18.35414194 0.26659551 0.00485946 0.00156773 0.00297840
O 23.63395835 2.86006505 7.19318546 -0.00362103 0.00301824 0.00093222
O 20.20894274 4.01770385 15.47414233 -0.00144346 0.00020077 -0.00460303
O 18.20726607 10.30011239 1.87225181 -0.00223136 0.00274370 0.00121480
O 24.13771131 9.14643623 9.93096397 0.00723575 -0.00040979 0.00085104
O 19.52147388 10.25480182 9.76532540 -0.00101036 -0.00118171 0.00213968
O 22.96982789 8.96763082 1.43685197 -0.00066290 0.00239964 -0.00152514
O 24.13667778 3.15639061 15.05422008 -0.00309311 0.00262570 0.00462337
O 19.29309145 3.86530900 7.14223162 0.00207830 -0.00588051 -0.00109325
O 23.57038493 1.39814071 17.06135167 0.01122738 -0.00661744 0.00345619
O 18.96517195 5.26075324 9.33964489 0.00057561 -0.00544107 0.00289589
O 19.33567369 12.15343452 7.99091166 0.00422584 0.00080169 -0.00163090
O 23.23522475 7.45310350 32.12335730 -0.00087614 -0.00837496 -0.00084474
O 19.09135820 11.65057804 32.40091365 -0.00002725 -0.00697477 -0.00752954
O 23.24545533 7.58563939 7.68651723 0.00609555 -0.00924082 -0.00472090
O 23.56460839 1.19417028 9.03720667 0.00260795 0.00013110 -0.00478305
O 19.30560490 5.42787581 17.25707676 -0.00170684 0.00766101 0.00220373
O 22.64863093 2.65515604 23.24981534 0.00267012 0.00720741 -0.00383337
O 19.67414759 3.79317610 31.47555993 0.00534103 -0.00227813 -0.00376319
O 18.61566426 9.85846097 18.23319922 0.00022514 0.00523896 -0.00042323
O 24.18243051 9.01343459 26.17409403 0.00179734 -0.00036741 0.00489938
O 19.40055442 10.06397936 26.12772163 0.00013472 -0.00098495 -0.00009365
O 22.92714041 9.08491417 17.91027170 0.00220234 -0.00226653 -0.00308074
O 23.85700194 2.34295678 31.76755176 0.00131214 0.00201039 -0.00506045
O 18.75742331 4.04287199 23.40550654 -0.00008054 0.00434311 -0.00242884
O 23.49783435 1.08578783 1.14771348 0.00780850 0.00508349 0.00114228
O 19.58766911 5.35094470 25.48470894 -0.00191940 -0.01119980 0.00275651
O 19.01247284 12.00234113 24.16241944 0.00537429 -0.00074094 0.00250218
O 23.52139141 7.66091215 15.96225125 0.00056065 -0.00272710 0.00587098
O 19.01886423 11.37046833 16.01630099 0.00329127 -0.00090151 -0.00377140
O 23.50922159 7.59886161 24.12815394 -0.00014825 0.00234296 0.00184004
O 23.07396470 1.53939673 25.54415655 -0.00075951 -0.00378608 -0.00127997
O 19.13483780 5.24263186 0.88653628 -0.00099477 0.00185122 -0.00546474
O 23.40544427 15.87347097 7.41269746 -0.00506327 0.00231008 0.00126248
O 19.78104139 16.26248002 14.72462019 -0.00138170 -0.00899020 0.00482163
O 18.67909855 23.02321595 1.01508816 -0.00520036 0.00293686 -0.01072907
O 24.18108434 21.83565615 8.98597201 0.00045226 0.00341802 0.00276555
O 19.84514488 22.89262170 9.35368029 0.00183124 -0.00000039 0.00018893
O 22.64629312 21.74444414 0.83080382 0.00303128 0.00361842 0.00631472
O 24.26406157 15.11249546 15.46151297 0.00564572 0.00404872 -0.00239997
O 18.76400147 16.30640904 6.45571613 0.00058366 -0.00281219 0.00118606
O 23.45809895 13.81351090 17.61894221 -0.00157198 -0.00416375 -0.00052432
O 19.40598850 17.85723827 8.54450940 -0.00475860 0.00552972 0.00370626
O 19.43401293 24.54520578 7.29523458 0.00219497 -0.00078812 0.00097004
O 23.92719685 20.33760046 31.74241255 -0.00331653 -0.00643048 -0.00412829
O 19.11341799 24.30512578 31.61216550 -0.00405240 0.00046437 0.00372254
O 23.12979772 20.33248922 7.04037462 -0.00514163 -0.00063437 -0.00433667
O 23.72776752 14.05393602 9.19250384 0.00517255 0.00565011 0.00237573
O 19.09935635 18.05532653 16.73685749 0.00329109 -0.00537887 -0.00087704
O 22.94624614 15.52646880 23.68080098 0.00374536 -0.00764842 -0.00018103
O 19.35629827 16.41459131 31.12073061 -0.00013609 -0.00085778 0.00872692
O 18.74956689 23.00792070 17.46154458 0.00342674 0.00381280 -0.00116096
O 23.91499356 21.77338839 25.45908389 -0.00064984 0.00118835 0.00111086
O 20.22585602 22.98730406 25.79091506 -0.00694123 -0.00454551 -0.01109012
O 23.03641803 21.94849219 17.33815451 -0.00137618 -0.00202506 0.00340031
O 23.84606112 15.55691137 32.05844141 -0.00276362 0.00519180 0.00200194
O 18.79882688 16.16091588 22.72888107 -0.00055771 -0.00304721 -0.00299858
O 23.31343808 14.02001710 1.41610275 -0.00578096 0.00094190 -0.00050629
O 19.22029197 17.81518467 24.80673764 0.00413047 0.00300452 0.00044767
O 19.52199770 24.55055309 23.73345760 -0.00509226 -0.00596008 -0.00041448
O 23.82816855 20.31427851 15.23511355 0.00639124 0.00326683 -0.00107762
O 19.58386315 24.74546760 15.56367287 0.00595446 -0.00281440 0.00278933
O 23.57079172 20.35170177 23.34260825 -0.00199143 0.00457074 -0.00649875
O 23.49033089 14.07628786 25.63317914 -0.00883648 0.00127677 -0.00536002
O 19.60588111 18.08395832 0.34552928 -0.00231968 0.00280469 -0.00576055
N 7.49204819 12.69615261 2.78121143 0.00132229 -0.00125590 -0.00088546
N 1.10549797 6.59572149 10.68870276 -0.00938476 0.00133642 0.00184383
N 3.30453727 0.13287121 5.58537818 0.00308253 0.00551761 -0.00131649
N 5.11643677 6.48055732 13.88070832 -0.00168168 0.00090498 -0.00209533
N 1.04041314 25.36066536 13.61077841 -0.00691520 0.00532736 -0.00337078
N 7.57404894 6.19182482 5.95531084 -0.00112877 -0.00190047 -0.00194019
N 5.73425319 12.54109633 10.77066841 0.00228137 -0.00937245 -0.00201949
N 3.37655691 6.15656752 2.27421919 0.00014567 -0.00176350 -0.00728696
N 7.51375228 13.17040558 18.96469094 -0.00040652 -0.00060905 -0.00165943
N 0.62179752 6.16870809 26.97278185 -0.00303375 -0.00103976 -0.00019965
N 3.07221854 0.10813575 21.91985132 -0.00114058 0.00369355 -0.00337768
N 5.08245413 6.34856362 30.46363299 0.00020982 -0.00390384 -0.00082025
N 0.54190141 25.19803725 30.36204201 -0.00532838 0.00270580 -0.00138532
N 7.52678957 6.31078742 22.56953358 0.00321785 -0.00311379 -0.00146204
N 5.18729388 12.87252030 27.17543596 0.00063190 0.00130513 -0.00411898
N 3.41079434 6.64230025 18.96361374 -0.00472323 -0.00026697 0.00382302
N 7.40178931 0.02459927 2.15175439 0.00205320 0.00066758 -0.00389208
N 1.08001705 18.96556603 10.46780000 -0.00276358 -0.00518800 0.00000353
N 3.41196419 12.84292404 5.99885411 0.00619483 0.00049552 0.00651017
N 5.42888392 19.25512435 13.64257804 -0.00230157 -0.00372054 0.00242803
N 1.37492707 12.81716611 14.48174464 0.00161519 -0.00226020 0.00366701
N 7.83688291 19.35964981 5.59202083 0.00921743 -0.00476175 0.00383823
N 5.34046859 0.24896223 10.25811652 0.00037844 0.00029342 0.00722652
N 3.39991254 19.05803811 1.99744152 -0.00333940 -0.00465204 0.00257188
N 7.37622343 25.60504716 18.63249002 -0.00052908 -0.00151480 0.00267794
N 1.10440764 19.31705780 26.91015058 0.00392717 0.00405739 0.00098650
N 3.05354532 13.00821702 22.66861149 -0.00302426 -0.00736138 -0.00208072
N 5.03274518 19.47198761 29.97231039 -0.00019158 0.00299477 -0.00378124
N 0.85093850 12.63691695 30.66834193 0.00227795 -0.00241164 -0.00378292
N 7.67563514 19.44440822 21.73974012 0.00043397 -0.00384999 0.00847567
N 5.00060828 0.19648935 26.34385018 0.00088734 -0.00366272 -0.00567302
N 3.45910709 18.84077195 18.49702487 -0.00085215 0.00690740 -0.00811343
N 15.97712067 13.14696681 2.59079053 -0.00288061 -0.00520824 0.00019635
N 9.60660388 6.15902194 10.54062037 -0.00600533 -0.00439858 0.00364437
N 12.14929442 25.36352172 5.72268098 -0.00338475 0.00469585 0.00051156
N 13.74057561 6.50729005 13.99430900 -0.00394559 -0.00572877 -0.00458292
N 9.50378377 25.26207192 13.83145341 -0.00045852 0.00439183 0.00340220
N 16.15334483 6.54183834 5.65853997 -0.00055376 -0.00614737 -0.00493840
N 14.25671097 12.68228142 10.99316661 0.00291784 0.00607901 -0.00224251
N 11.70769302 6.41524157 2.40971046 0.00136519 -0.00066683 -0.00179911
N 15.84486614 12.77932632 19.12304194 -0.00005923 0.00429643 -0.00229085
N 9.60219449 6.54107802 27.16906940 -0.00582963 -0.00399337 0.00100813
N 11.83901364 25.32998290 21.84402280 -0.00093108 -0.00157525 -0.00046976
N 13.75093416 6.58502248 30.02349041 -0.00071614 -0.00140794 0.00004630
N 9.17560049 0.05999321 30.09884338 -0.00303383 -0.00031181 0.00059061
N 16.23135785 6.45822913 21.96113555 0.00373926 -0.00037488 -0.00664927
N 13.67968807 12.93143851 27.22062495 -0.00235355 -0.00055145 0.00304031
N 11.96831839 6.13298396 18.99904060 -0.01167515 -0.00199041 0.00657719
N 16.08753245 25.64079413 2.36354997 0.00046774 0.00481528 0.00550554
N 9.78296191 19.34651797 10.42935857 -0.01014785 0.00186307 0.00712523
N 11.69377624 13.02725092 6.08049858 0.00224406 -0.00767583 -0.00129589
N 14.19531825 19.10657098 13.43872994 0.00021095 -0.00641324 -0.00659866
N 9.74186167 12.61682464 14.48884907 -0.00221411 0.00309116 -0.00258832
N 16.36664548 19.41024579 5.22003932 0.00001135 -0.00179461 -0.00286838
N 14.03658607 0.14211666 10.40144784 -0.00402375 0.00046288 0.00361887
N 11.90394787 19.32244056 1.88302672 0.00096572 -0.00038696 -0.00219366
N 16.11797135 0.09773676 18.58190271 -0.00590404 -0.00045436 0.00386513
N 9.55146009 19.24718935 26.53093191 0.00403859 -0.00044833 -0.00531793
N 11.78170724 12.83814650 22.49035563 0.00115082 0.00749666 0.00987276
N 13.65626924 19.43844285 29.81132801 -0.00795944 -0.00039130 -0.00053813
N 9.44333762 12.84884461 30.90016796 0.00123845 0.00131370 0.00469503
N 16.28268371 19.49669711 21.89832866 -0.00073901 0.00120805 0.00177783
N 13.74477182 0.10110707 26.63177593 -0.00253733 0.00085840 0.00010123
N 11.78077654 19.02347144 18.23068624 -0.00338661 -0.00485470 -0.00471574
N 24.53862451 12.83912669 2.86960945 -0.00035581 -0.00061324 0.00333234
N 17.82379493 6.33854280 11.03429374 0.00363007 0.00887768 -0.00067953
N 20.58772572 25.49233115 5.57066125 -0.00198056 0.00624215 -0.00706444
N 22.44976743 6.48514705 14.40358754 -0.00120569 -0.00070486 -0.00395185
N 18.26274820 0.07757409 13.93725229 0.00076467 0.00235452 -0.00230978
N 24.63018718 6.52412639 6.12996035 0.00766787 -0.00347709 -0.00145504
N 22.77426263 12.62147518 10.76142331 -0.00535829 -0.00543059 -0.00330544
N 20.43422971 6.48291703 2.37307778 0.00643846 0.00394904 -0.00226937
N 24.72566124 12.83316500 19.20518687 0.00213251 0.00147811 -0.01068279
N 18.15565551 6.41813156 26.87127254 0.01253143 -0.00101299 -0.00491319
N 20.45695058 0.01394407 21.95373461 0.00868060 -0.00078157 -0.00121109
N 21.93702601 6.36152748 30.40687388 -0.00150846 0.00023553 0.00103536
N 17.57571388 25.17384511 30.13584772 -0.00533008 0.00298824 0.00787624
N 24.72154360 6.51222978 22.55634013 -0.00016652 0.00756931 0.00258565
N 22.14999750 13.17591246 27.28480299 0.00204812 0.00438849 -0.00075409
N 20.59817879 6.48954887 18.80759751 0.00369466 -0.00687762 -0.00309703
N 24.73021362 25.64553453 2.68197215 0.00573488 -0.00436307 -0.00383218
N 18.50903213 19.17590476 10.21867398 0.00027063 -0.00241794 0.00463410
N 20.44028026 13.07904458 6.16691266 0.00075222 0.00657030 -0.00555045
N 22.41776072 19.50461876 13.66188027 -0.00208161 0.00893693 -0.00153510
N 18.16632085 12.75757439 14.46871839 0.00661956 0.00187946 0.00143532
N 24.68424652 19.51134078 5.45941905 -0.00205654 0.00390744 -0.00136561
N 22.21287862 0.19729580 10.61728193 -0.00167247 -0.00139180 -0.00064381
N 20.56991236 19.29223057 2.11058079 -0.00616845 -0.00565850 0.00133234
N 24.79042276 0.37505132 18.67511433 -0.00067565 -0.00474046 -0.00194157
N 18.18282334 19.13932854 26.43271961 -0.00258912 -0.00441670 0.00445867
N 20.26717274 13.00177130 22.52189581 0.00083946 0.00157566 0.00315272
N 22.38092793 19.41711826 30.32988844 -0.00266563 0.00209442 -0.00226336
N 18.13241909 12.95587894 30.81567456 0.00116369 0.00458790 0.00505131
N 24.88486947 19.35183295 21.78359969 0.00101143 0.00430492 0.00064499
N 21.99116924 0.14673294 27.00123904 -0.00273857 0.00225321 -0.00101027
N 20.41893020 19.14276682 18.27960814 -0.00280356 -0.00537769 0.00212437
C 7.73593036 0.46235714 4.51419567 0.00555105 -0.00461425 -0.00011481
C 0.89296081 6.40471557 13.11615614 0.00315887 0.00305808 -0.00986345
C 3.20514164 12.41746054 3.67792786 0.00797264 0.00328273 0.00572349
C 5.31283102 6.82427597 11.51615997 0.00028715 -0.00635583 0.00279528
C 1.24545661 12.35145409 12.14118926 -0.00077154 0.00363691 -0.00533696
C 7.52667917 6.43896664 3.55242709 0.00335356 0.00207172 -0.00609791
C 5.45595954 0.44799842 12.68274974 -0.00699955 0.00332240 0.00504890
C 3.27077951 6.20477637 4.71802946 -0.00561013 0.00265190 -0.00340606
C 7.45255778 1.16567899 5.64869611 -0.00815086 0.00174401 0.00544592
C 1.05592591 5.68053922 14.23460680 0.00123641 0.00038215 -0.00209234
C 2.86757501 11.55547740 2.65315822 0.00167097 0.00115728 -0.00448411
C 5.76133448 7.57469405 10.46707384 0.00266191 -0.00273969 -0.00762910
C 1.45599148 11.68441796 10.96736229 -0.00065048 -0.00441445 -0.00336007
C 7.13313372 7.00637171 2.40577536 0.00207363 0.00422093 -0.00306916
C 5.92891935 1.08784204 13.85486440 -0.00377738 -0.00375211 0.00072112
C 2.95211462 5.61016221 5.89884251 0.00582982 -0.00088866 0.00301600
C 6.54757219 2.27655884 5.57526961 0.01088221 -0.00131026 0.00253360
C 1.91428045 4.53470126 14.16595896 0.00037366 0.00004261 0.00023266
C 2.18446192 10.30960098 2.83921896 -0.00884356 -0.00220090 0.00533737
C 6.83643975 8.46103387 10.65011400 -0.00213751 -0.00190031 -0.00062850
C 2.31999897 10.59740626 10.93596131 -0.00403421 -0.00206268 0.00406372
C 6.36511242 8.19023580 2.43416245 0.00309786 -0.00524117 0.00558485
C 6.74235491 2.19781625 13.79647758 0.00093520 0.00780024 0.00348912
C 2.10758974 4.45453936 5.92434611 0.00617124 -0.00251531 -0.00006571
C 6.05413530 2.72773878 4.32400104 0.00363907 0.00288498 -0.00101134
C 2.42243732 4.09203414 12.97525970 -0.00039491 -0.00709572 0.00344755
C 2.03849197 9.94714046 4.17857719 0.00137508 -0.00840674 -0.00307648
C 7.06449054 8.95574277 11.96900122 0.00034647 -0.00158608 0.00150330
C 2.73026930 10.14905176 12.15128188 0.00227649 -0.00881468 0.00639167
C 6.10216196 8.79368133 3.67245472 -0.00224538 0.00164210 -0.00071276
C 6.94480371 2.74720128 12.50838640 0.00394103 -0.00115554 -0.00257283
C 1.85660575 3.80815048 4.71561597 0.00264823 0.00136614 -0.00192322
C 6.47111496 2.06982551 3.17595463 0.00386050 0.00324678 0.00483442
C 2.10980038 4.74129859 11.80055271 -0.00109781 0.00189146 -0.00396588
C 2.44785980 10.76707825 5.22419245 0.00595274 0.00410164 -0.00365726
C 6.48610770 8.36681882 13.06804956 0.00123621 -0.00817034 -0.00456104
C 2.32036912 10.76685227 13.37336455 -0.00611539 0.00323087 0.00096928
C 6.50008294 8.20896814 4.83778387 -0.00361618 -0.00125044 -0.00167776
C 6.52480382 2.10007805 11.38056020 -0.00559152 0.00043687 -0.00633406
C 2.22093912 4.44740081 3.51028270 0.00693292 0.00068999 0.00138142
C 7.17275667 0.86307824 3.32679845 0.00607086 -0.00147745 -0.00143868
C 1.35559533 5.90855251 11.87055255 -0.00711708 0.00472127 0.00175810
C 2.93884264 12.07153825 4.95986177 -0.00729018 -0.00529194 0.00322546
C 5.72242912 7.20158591 12.83874015 -0.00888424 -0.00165042 0.00090241
C 1.68863172 11.98420315 13.36664032 0.00120921 -0.00234407 0.00434122
C 7.23716915 6.91487498 4.81776635 -0.00568943 0.00719989 0.00712596
C 5.78298939 0.94062467 11.40368091 0.00026009 0.00349949 -0.00316859
C 2.94766121 5.65549026 3.48652786 -0.00212473 0.00246092 -0.00530204
C 6.64933608 0.00650816 0.98042184 -0.00408569 -0.00423522 0.00301269
C 1.71903551 6.38061174 9.47817973 0.00539456 -0.00231501 -0.00368105
C 2.77728498 12.80210184 7.24484660 -0.00295222 -0.00369022 -0.00613701
C 5.42677443 6.63325497 15.22801394 -0.00343092 -0.00528507 -0.00118311
C 1.83190714 12.64388294 15.73478587 0.00179198 -0.00406645 0.00010647
C 7.11095326 6.43895095 7.20878950 -0.00301188 0.00596050 -0.00756990
C 6.01616137 0.35758510 9.05661645 0.00474452 0.00273665 -0.00410686
C 2.69937753 6.01809299 1.08928668 -0.00744204 0.00897131 -0.00069867
C 6.80196531 11.79566077 17.07125913 0.00016785 -0.00264234 0.00011159
C 1.39885129 7.50014105 8.49406928 -0.00232216 0.00684844 0.00600628
C 3.17432504 1.04669138 7.84633456 -0.00547166 0.00025110 -0.00133089
C 5.60464094 5.13673302 32.55339616 -0.00162907 -0.00832364 -0.00044712
C 1.35711960 0.79538784 32.26399543 -0.00225218 0.00363906 -0.00498699
C 7.19543171 5.31057099 8.24001610 0.00520686 0.00433348 -0.00107835
C 6.19549694 11.61072070 8.67982081 0.00684147 0.00395866 0.00271253
C 2.88541695 7.86489220 16.77071930 -0.00302417 0.00231942 -0.00471750
C 7.53991636 0.49812546 20.97044332 -0.00612046 0.00054147 0.00962881
C 0.57014588 5.76718614 29.28880451 0.00368409 0.00102547 -0.00417600
C 3.30350038 12.64410645 20.27923128 0.00932354 0.00360613 -0.00604792
C 5.21064874 6.72167508 28.14126798 0.00436441 0.00678861 -0.00081037
C 0.80599383 12.24136938 28.23721626 -0.00459513 0.00588964 -0.00685397
C 7.72170312 6.57187920 20.21568939 0.00408101 -0.00062935 -0.00295435
C 4.82377078 0.34610116 28.73046436 -0.00069353 0.00359147 0.00106436
C 3.42921302 6.01098671 21.25389734 0.00278313 0.00374665 0.00507634
C 7.23883335 1.35113500 22.00729401 -0.00814817 0.00076203 0.00350833
C 0.86509176 5.05786799 30.44035342 -0.00287456 -0.00497350 0.00567958
C 3.01365985 11.94274280 19.20324548 -0.00145492 -0.00097628 0.00294566
C 5.57640481 7.47683288 27.03212654 -0.00467190 0.00858457 -0.00445956
C 1.21061613 11.52265037 27.12978510 -0.00207069 0.00190519 -0.00036386
C 7.37893621 7.17686363 19.00518716 -0.00102008 -0.00157007 -0.00314259
C 5.14971127 1.05326079 29.86603360 -0.00060776 0.00148651 0.00025139
C 2.96817117 5.24649704 22.29284726 0.00181958 -0.00320964 0.00036198
C 6.47677896 2.56279492 21.75262379 0.00631058 0.00292322 -0.00253611
C 1.91799445 4.09029428 30.39016130 -0.00308808 0.00778366 -0.00904906
C 2.17852029 10.79404959 19.18692128 0.00468669 -0.00208912 0.00334870
C 6.28993626 8.70584055 27.19492468 0.00070254 0.00338111 0.00517216
C 2.11131456 10.43079960 27.28190788 -0.00103053 0.00601623 -0.00106320
C 6.59029131 8.32555095 19.04689552 0.00057414 0.01409057 0.00243650
C 5.98064478 2.15976525 29.90705659 0.00598119 -0.00732162 0.00207544
C 1.87663903 4.36071836 22.09349301 0.00107962 0.00011225 0.00334100
C 6.25503299 3.00288011 20.47611783 -0.00424136 -0.00585976 0.00067254
C 2.30881104 3.64088970 29.17757610 0.00193810 -0.00655324 -0.00656255
C 1.78625278 10.31244897 20.46895618 -0.00141496 -0.00020285 0.00441076
C 6.70929527 9.11637225 28.48098210 -0.00094750 -0.00050566 0.00040231
C 2.28605703 9.87813873 28.62159248 0.00548204 -0.00765818 -0.00689713
C 6.25000718 8.95975419 20.27787355 -0.00549838 0.00161623 -0.00365800
C 6.45874334 2.66951048 28.72485025 0.00004062 -0.00090019 0.00459169
C 1.59214907 4.01813618 20.79904667 -0.00044704 -0.00453695 -0.00133113
C 6.49541038 2.11204436 19.47056993 -0.00612553 0.00430013 -0.00079271
C 1.85668563 4.19392552 28.01489663 -0.00266445 0.00266049 -0.00182891
C 2.15087212 10.93434172 21.60543753 -0.00714514 -0.00168391 -0.00551646
C 6.22056859 8.39527324 29.55495295 0.00546800 -0.00113605 -0.00734875
C 1.82160922 10.58230267 29.73183397 0.00715933 0.00031154 -0.00336612
C 6.57535892 8.29465983 21.43757042 0.00515338 -0.00076413 -0.00454951
C 6.15944048 2.08706030 27.49534605 -0.00402432 -0.00078606 -0.00408826
C 2.14138162 4.74634146 19.75385673 -0.00325647 -0.00483505 -0.00111017
C 7.13310738 0.87691865 19.64261302 0.00560021 -0.00708210 0.00487776
C 1.05929361 5.32168613 28.08212255 -0.00607917 -0.00279203 0.00509961
C 2.79873322 12.20926735 21.54354892 0.00470083 -0.00138609 0.00564101
C 5.48810555 7.19441899 29.39100781 0.00317629 0.00607540 0.00473664
C 1.11901184 11.83872655 29.56446390 -0.00125236 0.00497451 0.00308190
C 7.25014491 7.04106165 21.42657060 -0.00577302 0.00652674 -0.00649883
C 5.34966304 0.86563899 27.48265228 0.00185758 0.00125437 0.00184666
C 2.96632346 5.81432637 19.98106107 -0.00168944 -0.00997885 0.00330131
C 7.03253141 0.10877324 17.34958943 0.00569935 -0.00811808 -0.00014869
C 1.30138730 6.13930770 25.74315885 -0.00162547 0.00298652 0.00323882
C 2.62996764 12.71188050 23.94990578 0.00466534 0.00474855 0.00641532
C 5.78205627 6.34401673 31.62439485 0.00350235 -0.00024930 0.00590859
C 1.25296309 12.42469708 31.95919403 -0.00133416 -0.00507013 -0.00218275
C 6.96966377 6.45980766 23.77179279 -0.00315919 -0.00243027 -0.00063606
C 5.53250948 0.54157195 25.11139934 -0.00042658 -0.00548231 -0.00439383
C 2.82187884 6.60867951 17.71586513 0.00940554 0.00176958 0.00194578
C 6.79494508 11.58141664 0.62945166 -0.00123930 -0.00357118 -0.00054824
C 1.29528216 7.43684267 24.92019028 -0.00107523 -0.00745850 0.00016178
C 2.57837247 1.14193785 24.17408114 -0.00059627 0.00246291 -0.00401285
C 5.47955420 5.47888930 16.15488999 -0.00281193 0.00244950 -0.00587379
C 1.47010117 1.06981762 15.60373299 -0.00091808 0.00834413 0.00334190
C 6.91719737 5.29511403 24.76279371 -0.00312420 -0.00196722 0.00285745
C 5.60371210 12.10376543 24.82101753 -0.00662221 -0.00059607 -0.00366654