1920
Time=21999.99999999 pbc="T T T" Lattice="25.57695768 0.00000000 0.00000000 0.00000000 25.58856297 0.00000000 0.00000000 0.00000000 32.86559541" energy=-12252.11868703 virial="-40.80703981 25.16565266 14.33773226 25.16565266 -63.98206914 38.86169072 14.33773226 38.86169072 -27.37822036" stress="0.00030390 0.00121558 0.00066181 0.00121558 -0.00078973 0.00184571 0.00066181 0.00184571 0.00094483" Properties=species:S:1:pos:R:3:vel:R:3
O 6.13318156 2.79290269 7.04113924 0.00079251 0.00494235 -0.00269111
O 1.89559506 3.54636643 15.16347680 0.00359283 0.00109595 0.00525585
O 1.64829680 9.59833881 1.19645639 0.00166359 0.00855556 -0.00011876
O 6.95809488 9.28285216 9.44851619 -0.00207534 -0.00155764 0.00144195
O 2.40789063 10.54065722 9.07502793 -0.00414042 0.00423290 -0.00464308
O 6.03271174 9.22625680 1.33862467 -0.00140204 -0.00484784 -0.00519744
O 6.65954131 2.65760657 15.30160271 0.00657725 -0.00060849 -0.00077775
O 1.36406526 3.64338043 6.85252862 -0.00181272 0.00368791 0.00607223
O 6.23598220 1.21587498 17.39882466 0.00432643 -0.00125808 -0.00047011
O 1.55176801 5.24278757 8.85724010 0.00429234 0.00179815 -0.00160490
O 1.62197218 11.83089848 6.92101287 -0.00017967 -0.00434134 -0.00601902
O 6.39077919 7.60473297 32.25874045 0.00123157 -0.00254585 0.00096271
O 1.24695319 11.14190158 31.82167619 0.01292538 -0.00396869 -0.00295161
O 6.24343959 7.63286785 7.50943322 -0.00105564 -0.00380851 -0.00079221
O 6.44202052 1.25525950 9.18259831 -0.00339823 0.00269497 0.00127894
O 2.05981125 5.24341714 17.15155884 0.00019957 -0.00429321 0.00047735
O 5.74692846 2.03936507 23.46168363 0.00570341 0.00051839 -0.00341976
O 2.92384314 3.60113488 31.53618550 0.00168528 -0.00314323 -0.00104026
O 1.33909672 9.97537912 17.31926599 -0.00249023 0.00191831 0.00745801
O 7.08489096 8.98932162 26.12250918 0.00353689 -0.00024897 -0.00546027
O 2.90050910 9.60761285 25.93859965 -0.00384156 -0.01000548 0.00767542
O 5.64531494 9.00340255 17.81266718 0.00329090 -0.00260190 0.00185704
O 7.08354201 2.77975903 31.42222116 -0.00250267 0.00012761 0.00826878
O 1.26871192 3.72478153 23.39017253 0.00131696 -0.00629495 -0.00060016
O 6.48339345 1.38308290 0.84046845 -0.00131885 0.00101403 -0.00175521
O 2.44650185 5.23054992 25.45541280 -0.00189135 0.00620862 0.00409061
O 2.46267116 11.01263606 23.78641261 0.00622987 -0.00950720 -0.00100209
O 6.33289028 7.78730491 15.67285543 0.00556115 0.00327555 -0.00260223
O 1.99847235 11.43304058 15.39632043 0.00160836 -0.01061086 -0.00860650
O 6.43566508 7.53016641 24.02007010 0.00086351 -0.00008043 -0.00021590
O 6.50123763 0.66840896 25.49001324 0.00256135 0.00177040 0.00120933
O 2.18019675 5.11481803 0.74142934 0.00012893 0.00435387 -0.00065798
O 6.17644548 15.99324074 6.45260454 -0.00345615 0.00369632 0.00328842
O 2.01381213 16.29219677 15.18278261 -0.00345226 0.00201823 -0.00600108
O 2.03552261 22.87938890 1.55436611 -0.00489187 -0.00654714 -0.00679319
O 6.66685347 21.97239989 9.49512236 -0.00204754 -0.00247452 0.00535588
O 2.84283268 22.73840788 9.72660176 -0.00416832 0.00049079 0.00690569
O 6.01029489 21.89644457 1.07530960 0.00510862 0.00074102 0.00129720
O 6.94197514 15.27211241 15.17716631 -0.00458152 0.00451976 -0.00283122
O 1.86970894 16.57880596 6.85458071 0.00731035 0.00532331 0.00239831
O 6.00277423 13.74747834 17.11796361 -0.00246173 -0.00287956 -0.00412932
O 2.29129829 18.20466632 8.88383409 -0.00437052 -0.00292604 -0.00846760
O 2.28619701 24.55907735 7.72348164 -0.00401401 0.00114919 -0.00075681
O 6.27512584 20.29358271 31.77279052 0.00202600 -0.00449643 0.00440749
O 2.27067429 24.45137641 32.30271766 -0.00400512 0.00115721 -0.00026520
O 6.26120611 20.56577524 7.30727674 -0.00743852 0.00633805 0.00289526
O 6.21943897 14.36685601 8.68328808 0.00013129 0.00091465 -0.00083849
O 1.95177283 17.97934140 17.02896393 0.00214637 0.00286224 -0.00747239
O 5.89143372 15.35963014 23.34631246 -0.00525906 0.00947688 0.00195551
O 2.75992209 16.26034971 31.47252564 0.00236320 0.00128017 0.00521675
O 1.77081643 22.44089152 18.18782524 0.00211249 -0.00609503 0.00227919
O 7.06288849 21.72635970 25.58204902 0.00102782 0.00282604 -0.00083098
O 2.18458355 22.68290284 26.10140957 -0.00152340 0.00403198 0.00419369
O 6.19739438 21.86596957 17.55018902 0.00827767 0.00437531 -0.00230431
O 7.26833508 15.28181875 31.18893858 0.00056473 -0.00421594 -0.00033767
O 1.98137208 16.46486103 23.38953701 -0.00075855 0.00368564 0.00704437
O 6.47710587 14.00317874 0.36912907 -0.00538313 0.00111501 0.00554175
O 2.52089713 17.84405017 25.40142074 -0.00078469 -0.00199064 -0.00342530
O 1.91071305 24.37831708 24.20846875 0.00005141 0.00004085 -0.00000208
O 6.61826067 20.26436203 15.64241301 -0.00134362 -0.00023990 -0.00100557
O 1.67612156 24.03778563 16.00515953 -0.00415203 0.00482858 0.00049170
O 6.34017203 20.40796953 23.73157367 -0.00254156 0.00600238 0.00189953
O 6.35322064 13.72215710 25.25611977 -0.00336115 -0.00108331 0.00535711
O 2.24763162 17.82315056 0.53123544 -0.00552773 -0.00031253 0.00161957
O 14.47061916 2.89020618 7.18673803 0.00240209 -0.00653990 0.00224248
O 11.66657279 3.73680892 15.13058964 0.00366042 0.00675737 -0.00008434
O 10.14784516 10.27663371 0.98197479 -0.00021056 -0.00248848 0.00302497
O 15.55148854 9.27552749 9.27968837 0.00507429 -0.00371905 0.00330693
O 11.16093671 10.42942510 9.35829169 0.00162863 0.00223831 -0.00562263
O 14.53040580 9.12656482 0.91565269 -0.00466229 0.00233741 0.00176865
O 15.40991554 2.98417952 15.51457848 -0.00120533 0.00115046 -0.00649520
O 10.03768889 4.08927515 7.10483358 -0.00272257 0.00047166 0.00130487
O 15.56123337 1.39696256 17.52406049 -0.00072360 -0.00348368 -0.00768919
O 10.64929558 5.33692873 9.11970426 0.00290648 0.00092916 -0.00194860
O 10.68779617 11.87078989 7.18624524 0.00331610 -0.00000382 -0.00035602
O 15.40929707 7.49030296 31.95951924 -0.00361580 0.00013949 -0.00273844
O 10.73791792 11.44959040 31.73841900 -0.00661008 -0.00206130 0.00225803
O 15.36160680 7.97235078 7.03226529 -0.00131555 -0.00063889 0.00102180
O 14.65573433 1.31750048 9.48613647 0.00208960 -0.00247706 0.00261273
O 10.81144223 5.00309761 17.30286793 0.00779495 0.00421254 -0.00073651
O 14.06636808 2.38095572 23.70927490 0.00625663 -0.00093428 0.00055107
O 11.67693798 3.71494455 31.70106321 -0.00039641 -0.00231190 -0.00001348
O 9.80301352 9.99628987 17.29738360 0.00003961 0.00145747 -0.00496023
O 15.75108428 8.95855226 25.83671831 0.00257604 -0.00492060 0.00184802
O 11.64101450 10.25718493 25.67847308 -0.00113365 0.00481330 0.00351183
O 14.41066762 9.65377670 17.80700819 -0.00069989 0.00289938 0.00071771
O 15.79016855 2.53101280 31.85951614 -0.00181760 0.00543491 -0.00408620
O 9.56045032 4.01675894 23.30765757 0.00403539 0.00431338 0.00629123
O 14.66457232 0.95952941 0.98895658 0.00765428 0.00183679 0.00337134
O 10.48291143 4.94730850 25.42064780 0.00854348 -0.00248788 -0.00088698
O 11.24401017 11.14369494 23.38776199 0.00555984 -0.00578981 0.00144018
O 14.75398037 8.19834781 15.68217422 0.00648030 0.00007008 -0.00093911
O 10.52145630 11.65952126 15.53427109 -0.00024233 -0.00210238 -0.00908155
O 14.87928474 7.46186312 23.97775512 -0.00086827 0.00396222 -0.00305947
O 14.88850753 0.96192476 25.77345528 0.00644370 -0.00267550 0.00185961
O 10.77546751 5.16537343 0.84066672 0.00337857 0.00386484 0.00084914
O 14.40218665 15.82885754 6.39813126 0.00024441 0.00118157 0.00191876
O 11.29258026 16.54173455 15.33271827 -0.00297239 -0.00285304 -0.00014019
O 10.28513835 22.47619044 1.54232318 0.00315650 0.00067755 -0.00316722
O 15.73503386 22.20227383 9.50345909 0.00340087 -0.00735286 0.00192202
O 11.22453812 22.94099641 9.63770847 0.00313897 0.00130247 -0.01019419
O 14.45986350 21.86290953 1.07619336 0.00285815 0.00008399 0.00413575
O 15.52814718 15.42887765 14.84009642 -0.00233489 -0.00118230 0.00013994
O 10.02587694 16.74921171 6.85033107 -0.00087077 0.00252135 0.00236207
O 15.03499606 14.29334875 17.05669924 -0.00870677 0.00166412 -0.00118078
O 10.35413800 18.11332909 8.98989056 -0.00004295 -0.00574577 0.00182324
O 11.01721014 24.40239361 7.44675251 -0.00370099 -0.00363090 -0.00190455
O 14.85764830 20.13606317 32.05292651 -0.00732772 -0.00277759 -0.00662182
O 10.34791211 23.94864280 32.18949606 0.00826660 0.00183065 0.00593534
O 15.03586052 20.61272598 7.21524961 0.00050832 -0.00665633 0.00013694
O 14.60937234 14.23658421 8.56967436 0.00028607 0.00297802 -0.00486468
O 10.37399378 18.10105718 17.45685004 0.00253719 0.00197723 -0.00679969
O 14.40388343 15.43720431 23.29656651 -0.00406041 -0.00487416 -0.00149448
O 10.86056049 16.53734072 31.77536678 0.00781384 0.00232566 -0.00200148
O 9.76719440 23.35538447 17.54416696 0.00514434 -0.00167784 0.00348037
O 15.16488507 21.68821891 25.94223206 -0.00026658 0.00434099 0.00334273
O 10.73130806 22.80222426 25.84038317 0.00074702 0.00700700 0.00028706
O 14.21009497 21.93393636 17.74305719 0.00277692 0.00037025 0.00303399
O 15.53232401 15.55378496 31.31828383 0.00283626 0.00068865 0.00348717
O 10.32978737 15.92572544 23.51572316 0.00125901 0.00182500 -0.00206252
O 15.07805464 13.98925719 0.33736894 0.00007735 0.00399550 0.00305733
O 10.75461071 17.65446487 25.40105386 0.00242952 0.00665111 0.00403433
O 10.53945530 24.13430420 23.77778700 -0.00066145 -0.00113123 -0.00089841
O 14.36283128 20.48944456 15.58735998 0.00039601 0.00403764 -0.00625992
O 11.01357723 25.07857807 15.75920975 0.00364911 0.00372613 -0.00580014
O 14.68282991 20.35628525 23.88535324 0.00507447 0.00162779 0.00303641
O 15.38157342 14.17068815 25.26825202 -0.00190674 0.00129949 -0.00013908
O 10.32092151 18.18878284 0.90444064 0.00115387 -0.00077673 0.00046439
O 23.17190570 2.33219826 7.29568790 -0.00488094 0.00159993 -0.00489950
O 19.60973914 3.65207960 15.16622315 0.00127554 -0.00104934 -0.00107613
O 18.41564429 10.39119513 0.97244683 0.00392112 0.00312023 -0.00058158
O 23.78384200 9.18670861 9.74195375 0.00569855 -0.00354082 0.01026176
O 19.20867940 9.98614605 9.36395546 -0.00412246 -0.00731755 0.00400038
O 22.76454095 9.02052015 1.18597737 -0.00300850 -0.00047273 0.00262686
O 24.33770152 2.76851904 15.40039657 0.00869681 -0.00212707 -0.00350216
O 18.94431500 3.78364446 7.04373278 -0.00134949 -0.00138588 0.00032834
O 23.53405197 1.24937967 17.31221842 0.00472579 0.00179264 0.00529165
O 19.55729135 5.12175983 9.07968337 0.00195050 0.00101244 -0.00701384
O 19.27643326 11.66460855 7.31239212 -0.00509993 -0.00436587 -0.00154658
O 23.33204203 7.55688297 32.01665513 -0.00329515 -0.00183040 -0.00152019
O 19.23489921 11.91287697 31.88013575 0.00499555 0.00231955 0.00057216
O 23.21961751 7.77113615 7.51079230 -0.00134841 -0.00330218 -0.00732721
O 23.56897518 1.05933874 9.41698523 -0.00291288 0.00079301 0.00413431
O 19.29342208 5.15242591 17.26172742 -0.00171358 -0.00736046 -0.00262846
O 22.55782173 2.58195550 23.52376845 0.00251056 0.00034252 -0.00240224
O 19.38496062 3.67690497 31.83654404 0.00100377 0.00584734 -0.00320896
O 18.52590857 9.96817135 17.81166432 -0.00509979 -0.00313423 0.00189305
O 23.78969612 9.47122809 26.01304189 -0.00414830 -0.00042836 0.00764628
O 20.00024057 10.20988199 25.88552476 -0.00013531 -0.00057738 0.00051601
O 23.27805536 9.48252388 18.11556933 0.00259766 -0.00225247 0.00789121
O 24.32393849 2.53149869 31.85024635 -0.00061660 0.00273057 -0.00018813
O 18.67810576 3.43225989 23.40067644 0.00104003 0.00077360 0.00116437
O 23.19361607 1.33699039 1.00213650 -0.00317659 0.00420218 0.00101870
O 18.66038015 5.02063468 25.47289075 0.00045240 0.00270707 0.00618610
O 19.31509930 11.85136711 23.84950794 -0.00205521 -0.00698987 0.00527030
O 23.31461815 7.78749030 15.89440860 -0.00386544 -0.00008056 -0.00340807
O 19.40511099 11.45237373 15.61836972 0.00365282 0.00201612 0.00616477
O 23.99592106 7.60866452 24.13819184 -0.00541771 0.00097078 0.00024831
O 23.28368506 1.27644123 25.62546910 0.00021057 -0.00475346 0.00241649
O 18.48712768 5.49396818 0.78933806 -0.00595368 0.00159035 -0.00011292
O 23.44607312 15.47791607 6.56561569 0.00124812 0.00744079 0.00375306
O 19.46077711 16.12900909 15.05018977 0.00632646 -0.00446221 -0.00134793
O 19.04202436 23.08141646 1.95864588 -0.00502795 -0.00045464 -0.00424853
O 23.85586182 21.93715978 9.46078864 -0.00188999 -0.00050463 -0.00195166
O 19.53286850 22.70682556 9.75922002 -0.00441020 -0.00300462 -0.00260309
O 23.38442192 22.36706726 1.39604332 0.00235365 0.00009127 0.00285900
O 23.93990980 15.54748969 15.11966438 0.00113762 0.00148840 0.00125739
O 18.94101059 16.48040694 6.89959255 0.00855895 0.00231403 -0.01063741
O 23.47233949 13.94057158 16.98230339 0.00305664 0.00251432 0.00235060
O 19.33377192 17.94586766 9.01068027 0.00797244 -0.00116324 0.00172814
O 19.75142239 24.82167868 8.18354641 -0.00694116 -0.00445038 -0.00122718
O 23.17501001 20.76846523 32.26660871 -0.00129895 -0.00196670 0.00216191
O 19.45221786 24.40760376 32.64052265 -0.00504953 0.00238841 -0.00363533
O 23.78205933 20.29932172 7.36835510 -0.00354506 -0.00011142 -0.00632248
O 23.69745614 14.07277333 8.88875083 0.00166757 0.00915310 -0.00569828
O 19.14817441 17.57893019 17.40313595 0.00293513 -0.00079452 0.00470110
O 23.52095606 15.78895509 23.02563761 -0.00429001 -0.00892251 0.00295946
O 19.75999615 16.61097536 31.55780838 -0.00074470 0.00507496 0.00057120
O 18.92085852 22.76451987 18.01055500 0.00410909 -0.00093576 -0.00377316
O 23.96767883 21.65209675 26.02733615 -0.00124952 -0.00349988 -0.00150971
O 19.48070004 22.82884721 26.50318010 0.00536560 0.00806374 -0.00762200
O 22.33843928 21.36915473 17.76266298 -0.00009210 -0.00106426 -0.00311682
O 24.05284180 15.54022908 31.28926944 0.00211286 -0.00176886 0.00145596
O 18.12605778 16.53995470 23.46582072 -0.00453866 0.00124528 -0.00613752
O 23.25233595 14.02357962 0.38166839 -0.00506915 -0.00096368 -0.00166048
O 18.85003664 18.05109527 25.38273157 -0.00576678 -0.00424059 0.00066580
O 18.82944727 24.12619906 24.21373240 -0.00156338 0.00257560 -0.00061577
O 23.47716567 20.07733219 15.61776843 -0.00080761 -0.00164978 0.00050095
O 19.28753613 24.05707800 15.85664431 -0.00150783 -0.00636860 -0.00628081
O 23.24844028 20.39551871 23.88527977 0.00301550 0.00421765 -0.00512486
O 23.60507304 14.22958950 25.00930011 0.00136785 -0.00265707 0.00464862
O 18.94177431 18.35778637 0.92325375 -0.00701893 -0.00441826 -0.00494777
N 7.53271692 12.88168241 2.08749389 -0.00351140 -0.00033253 -0.00287386
N 1.24042936 6.63717094 10.67854223 0.00243235 -0.00418108 0.00306545
N 3.14973607 0.23945027 6.02535698 -0.00342482 0.00395293 0.00212190
N 5.23341361 6.63393716 13.98448307 0.00294405 -0.00264754 -0.00363835
N 1.12335148 25.48329325 14.27653814 -0.00279085 -0.00217998 -0.00568611
N 7.44766626 6.56242532 5.95246714 -0.00019912 0.00148027 -0.00446950
N 5.34673355 13.08285728 10.33996513 -0.00599141 -0.00088505 0.00385765
N 3.10517785 6.40215648 2.34311684 0.00181279 0.00478113 -0.00031986
N 7.52638055 12.81814746 18.53003112 -0.00490800 0.00412073 -0.00401390
N 1.00788590 6.08031026 27.01502470 -0.00312522 -0.00007000 -0.00609653
N 3.01712256 25.56814457 22.59016226 0.00161297 -0.00491688 0.00211668
N 5.40007477 6.33471846 30.62819139 0.00046057 -0.00051253 -0.00226213
N 1.08017573 25.57546083 30.67336399 0.00416238 0.00355821 0.00187867
N 7.46822552 6.43771009 22.29178173 0.00165804 0.00308847 -0.00219801
N 5.02737127 12.60777670 26.78245395 -0.00601358 -0.00029579 0.00831964
N 3.37449484 6.03199812 18.89397353 -0.00482288 0.00489592 0.00342464
N 7.63533180 0.16491702 2.41010103 -0.00260995 -0.00007556 -0.00502435
N 0.97981110 19.19283047 10.50579332 -0.00689501 -0.00171881 0.00129535
N 3.18170921 12.77957748 5.52208178 0.00006940 0.00133195 0.00402886
N 5.26937645 19.22158526 14.13167682 -0.00850835 -0.00184573 0.00096854
N 0.98277168 12.78785679 13.84514794 0.00113976 -0.00212972 0.00260845
N 7.63063209 19.49418819 5.80396124 0.00266258 -0.00638948 -0.00368319
N 5.10059169 0.12670701 10.64852325 0.00311492 0.00200973 -0.00208714
N 3.22356365 19.20722686 2.11926129 0.00550074 -0.00342645 0.00100490
N 7.64277647 0.09639772 18.74438186 -0.00286602 -0.00399344 -0.00516864
N 1.10487581 18.87889780 26.80165634 0.00248310 -0.00033110 0.00335191
N 3.41351957 12.17558059 22.04664471 0.00145777 0.00247591 0.00096226
N 5.08474420 19.23012033 30.18566949 -0.00001573 -0.00314678 -0.00061925
N 0.77459233 12.61781756 30.05098021 -0.00007661 -0.00088716 -0.00330667
N 7.36530443 19.07729636 22.21301814 0.00066052 0.00325353 -0.00550004
N 5.09008841 25.50794148 27.11094103 -0.00738513 -0.00310455 -0.00303510
N 3.01010888 19.26866286 18.61942372 0.00039733 0.00037309 -0.00276492
N 16.18594619 12.98820326 2.03889746 0.00467584 -0.00668395 0.00545122
N 9.44298736 6.36382631 10.83481267 -0.00424324 -0.00601694 0.00091912
N 11.93808484 0.01999988 5.71177744 -0.00148569 -0.00009566 -0.00163387
N 13.86473234 6.89500839 14.09849665 0.00222202 -0.00563197 -0.00190598
N 9.46394195 0.02750243 14.16440781 -0.00030733 0.00038469 0.00184985
N 16.10478680 6.50417398 5.51853221 0.00356180 0.00849954 0.00465568
N 13.50691099 13.10708379 10.27763772 0.00266460 0.00409448 0.00790514
N 11.81298360 6.38073692 2.42491155 0.00078380 0.00017734 0.00314153
N 15.90271824 12.84684203 18.60707181 -0.00015494 -0.00442647 0.00463503
N 9.83645594 6.28791533 27.19265624 0.00090421 -0.00254922 0.00702160
N 11.78156869 25.37495847 22.31515044 0.00337115 -0.00068829 0.00355652
N 13.88283569 6.70950265 30.50891338 -0.00168557 0.00194521 0.00969785
N 9.63639601 25.40496219 30.61648259 -0.00369401 -0.00312874 0.00228081
N 16.08178641 6.66341288 22.21246916 0.00670677 -0.00002911 -0.00048173
N 13.90421317 13.15523198 26.68048392 0.00373952 0.00499584 -0.00481072
N 12.10105705 6.03435080 18.86534107 0.00353998 -0.00053617 -0.00153574
N 16.04346169 0.11074339 2.55345727 0.00500374 0.00017343 0.00277906
N 9.43929684 19.17920983 10.79016159 -0.00330182 -0.00498007 0.00497567
N 11.74724331 13.06013004 5.56862640 0.00042069 -0.00474418 0.00309526
N 13.88168291 19.20798541 13.76234035 -0.00412783 0.00346493 -0.00628392
N 9.45902592 12.86681436 14.04463450 -0.00516655 0.00394977 0.00059930
N 15.99162091 19.23685298 5.73449378 0.00251005 0.00399557 0.00104406
N 13.90049174 25.47368442 11.12980001 -0.00783977 0.00036002 -0.00034100
N 11.95311992 19.14265119 2.31733971 0.00019375 -0.00404753 0.00208799
N 16.14471441 25.51708525 19.21313954 -0.00041477 -0.00010477 -0.00117723
N 9.29480550 18.69634661 26.82266390 -0.00072828 -0.00548750 0.00297575
N 11.71778228 12.68846564 21.79521664 -0.00128539 -0.00288775 0.00112387
N 13.74053099 18.88674752 30.50417175 -0.00162629 0.00002371 0.00298145
N 9.26680818 12.43321595 30.25174003 0.00197495 -0.00549791 0.00349831
N 15.93096245 19.23041604 22.33726904 0.00105986 0.00384037 -0.00440415
N 13.53616029 0.05879065 27.39814528 -0.00240560 -0.00163444 0.00050200
N 11.70668855 19.04521671 19.02173950 -0.00216901 -0.00524326 0.00006152
N 24.31422736 12.54274833 1.90717930 0.01173997 -0.00388013 -0.00437937
N 18.04261629 6.18015392 10.50517890 -0.00145617 -0.00169340 -0.00419427
N 20.26143252 0.56104963 6.34702698 -0.00044937 -0.00006607 0.00384700
N 22.38422015 6.51492985 14.27989973 -0.00390665 -0.00023210 -0.00168068
N 18.06693249 25.31985364 14.44658264 0.00288425 -0.00242513 -0.00625648
N 24.44602578 6.62926533 5.87733500 -0.00521595 0.00267241 -0.00583536
N 22.17100711 13.13268760 10.39079605 -0.00890414 -0.00901456 0.00145446
N 19.84876018 6.58970553 2.38953044 0.00140537 -0.00185992 -0.00579530
N 24.59571837 12.76929116 18.54293471 -0.00144597 0.00497593 0.00584967
N 18.18607867 6.50853100 27.16775422 0.00579763 0.00150089 0.00063837
N 20.07163299 25.42932638 22.65737577 -0.00328462 0.00176684 -0.00206659
N 22.44207706 6.32673435 30.39980581 -0.00805425 0.00145359 0.00197605
N 18.31649175 25.58359875 31.11250963 0.00179384 0.00475475 0.00534422
N 24.35126854 6.07419624 22.50888366 0.00164847 0.00195700 -0.00354922
N 22.55836688 12.99095600 26.62500012 -0.00049148 -0.00019779 0.00399720
N 20.00334083 6.48049126 18.92071601 0.00619403 0.00359913 -0.00719793
N 24.54040992 0.14035159 2.38345955 -0.00183650 -0.00309485 0.00220314
N 18.00738986 18.96058213 10.52255706 0.00638835 0.00033876 -0.00311966
N 20.44280094 12.71905772 5.61565592 0.00327385 -0.00527099 -0.00052756
N 22.24880526 18.96857009 13.98593526 -0.00514058 -0.00038232 -0.00196513
N 17.99534238 12.40937583 14.13795197 -0.00119281 0.00446337 -0.00484304
N 24.96009269 19.18870345 5.76599125 -0.00126028 -0.00015875 -0.00138556
N 22.26122701 0.07205229 10.93083099 0.00441910 0.00143122 0.00221489
N 20.60355618 19.03292980 2.32848998 -0.00050265 -0.00524493 -0.00318884
N 24.64170844 0.16245433 18.95806990 0.00646283 0.00560587 0.00216494
N 17.83985842 19.27861161 27.00997019 0.00668918 0.00035360 0.00441193
N 20.32431795 12.95832141 22.13956458 -0.00869187 0.00226729 0.00243934
N 22.12954307 19.48303757 30.69169375 0.00105230 -0.00408324 0.00408677
N 18.18435772 13.03701226 30.19246295 -0.00573980 -0.00263769 0.00163951
N 24.43095956 19.14900996 22.34245194 -0.00042370 0.00017328 -0.00762531
N 22.35565746 0.05403137 27.32657240 -0.00346389 -0.00162039 -0.00236270
N 20.25233055 18.83098479 18.93313671 -0.00207861 -0.01025206 0.00280246
C 7.71947881 0.38745481 4.75078553 0.00148503 0.00193413 0.01068084
C 1.00133718 6.26458762 13.03566523 -0.00585469 0.00029184 0.00389290
C 3.23647841 12.30382373 3.15005819 0.00164084 0.00539013 0.00323315
C 5.18969340 6.95756981 11.64171652 0.00410488 0.00792863 -0.00610092
C 0.64049423 12.60040790 11.57420899 -0.00370143 -0.00303069 0.00347533
C 7.58338237 6.89400020 3.58222175 -0.00719253 -0.00222802 0.00968217
C 5.14861664 0.30318400 13.06640609 0.00508145 0.00399812 -0.00325667
C 3.20485592 5.90208325 4.68524104 0.00264903 -0.00121588 -0.00357442
C 7.28785028 1.01549224 5.94112757 0.00036385 0.00075686 0.00602556
C 1.19537189 5.53165794 14.15495109 -0.00681811 -0.00031254 -0.00174597
C 2.89815681 11.45596271 2.14540945 0.00283585 -0.00117029 0.00262455
C 5.49591977 7.66811956 10.49580836 -0.00335612 -0.00691616 -0.00687017
C 0.99507256 12.10021316 10.39295225 -0.00167152 0.00622751 0.00482384
C 7.22743361 7.52105645 2.41135087 0.00214142 -0.00439291 0.00323950
C 5.36463859 1.01885002 14.22064074 -0.00922639 -0.00537805 0.00392353
C 2.81284417 5.26590708 5.81274975 0.00531774 0.00183565 -0.00572024
C 6.54196923 2.21679998 5.87291646 -0.00870947 -0.00103581 -0.00227720
C 1.83984714 4.28319765 14.07894229 0.00071984 0.00238189 0.00465221
C 2.11737174 10.27870387 2.31818346 -0.00057067 -0.00553706 -0.00899850
C 6.40217659 8.78070019 10.55348980 -0.00208400 0.00313995 0.00191643
C 1.93345500 10.96195606 10.25009695 -0.00696614 -0.00208257 -0.00687543
C 6.40109985 8.62145775 2.51088109 -0.00220953 0.00194612 -0.00166444
C 6.24647895 2.11674928 14.17063230 -0.00199347 -0.00087146 -0.00610246
C 1.93867016 4.12930253 5.74472842 -0.00105244 -0.00647683 -0.00897750
C 6.21170805 2.78354728 4.62835166 0.00317245 -0.00958549 -0.00173010
C 2.20190850 3.81131390 12.82659251 0.00166138 0.00187970 -0.00104222
C 1.77830016 9.88934638 3.60816381 -0.00736143 0.00085943 -0.00323592
C 6.83073337 9.15502891 11.85301830 0.00121506 0.00378346 0.00379449
C 2.21123353 10.25883551 11.43027843 0.00051401 0.00632843 -0.00488773
C 6.10520260 9.24662382 3.74839785 0.00616308 -0.00694533 0.00093552
C 6.76947992 2.58913655 12.93095460 -0.00686029 -0.00368876 0.00017573
C 1.73338864 3.58753832 4.44576803 -0.00528124 -0.00867542 -0.00383409
C 6.57305633 2.15459773 3.45701149 -0.00004489 0.00222217 0.00750601
C 1.89421033 4.50431022 11.62391881 0.00802292 -0.00324916 0.00249538
C 2.21812339 10.67617717 4.71378633 -0.00149086 -0.00074135 -0.00077594
C 6.37988652 8.51108978 12.97419632 0.00636212 0.00348487 -0.00187986
C 1.75373479 10.67339444 12.68892322 0.00364294 -0.00402083 0.00227256
C 6.39131069 8.54511665 4.89001918 0.00251241 0.00268228 0.00149584
C 6.32395430 2.05668894 11.76815008 -0.00016262 0.00278135 0.00544596
C 2.15887768 4.30811652 3.35833915 -0.00592244 0.00371942 -0.00185850
C 7.26507820 0.90572426 3.55902049 0.00482610 -0.00276455 -0.00200653
C 1.38029116 5.82276965 11.72518618 0.00111983 0.00249418 0.00008434
C 2.88358106 11.92152709 4.50658593 -0.00256234 -0.00196607 0.00787213
C 5.60700014 7.37238615 12.88737382 0.00520006 -0.00129187 -0.00370637
C 1.14937900 11.99716733 12.76488321 -0.00611775 -0.00344546 -0.00124170
C 7.15621441 7.35395583 4.85854639 -0.00589763 -0.00968048 0.00214965
C 5.57900141 0.83729381 11.77151690 -0.00088511 -0.00480756 0.00194007
C 2.86408048 5.57635063 3.40653777 0.00109876 -0.00193140 0.00753426
C 7.11485058 0.33386432 1.19592265 0.00171607 -0.00698406 0.00212037
C 1.33008533 6.33874692 9.34225923 -0.00741177 -0.00172693 0.00426115
C 2.41974080 12.71710788 6.65123793 0.00235610 -0.00152720 -0.00622628
C 5.83192804 6.73959079 15.22241487 0.00447830 0.00115791 0.00067909
C 1.56350567 12.51471094 15.06652856 0.00347700 0.00363394 0.01610918
C 6.89164306 6.64026792 7.19863076 0.00773982 0.00181697 0.00351933
C 5.74794445 0.26756662 9.44864153 0.00235351 -0.00388760 -0.00264113
C 2.72772994 6.18694972 1.04916823 0.00118184 0.00288261 -0.00016051
C 6.89292075 11.64049297 16.43592697 -0.00212197 0.00248684 0.00343723
C 1.16031392 7.67498151 8.53688091 0.00569025 0.00743783 -0.00468661
C 2.82424013 1.24567756 8.34589712 -0.00323919 0.00134207 -0.00542563
C 5.84328985 5.33887274 32.78304771 -0.00337538 0.00577526 0.00509686
C 1.44595922 1.04113112 32.79840464 0.00657164 0.00254868 0.00149078
C 7.18016186 5.54319889 8.14706334 0.00115972 -0.00120115 0.00111100
C 5.79469747 12.09247927 8.21654024 0.00399087 -0.00118171 0.01371742
C 3.01726974 7.33712686 16.70892619 0.00459687 -0.00393470 0.00276650
C 7.77019174 0.09643840 21.16185841 -0.00263194 -0.00043587 0.00149787
C 1.13325982 5.79387731 29.33276153 -0.00066018 0.00342250 -0.00101271
C 3.21098299 12.10499809 19.59784658 -0.00459832 -0.00125176 0.00308471
C 5.37222462 6.72540372 28.37962829 -0.00069186 -0.00504879 -0.00901679
C 1.17994701 12.23841645 27.66342804 0.00439365 0.00220209 0.00158865
C 7.58603808 6.78320825 19.89632754 0.00239748 -0.00312465 0.00189261
C 5.21897212 0.40844224 29.46173282 0.00493086 0.00066250 -0.00529882
C 3.40948784 5.65895368 21.23627350 0.00238956 -0.00836997 -0.00497283
C 7.32877243 0.56481539 22.39870762 0.00277637 0.00507943 -0.00478237
C 1.36280318 5.14044373 30.49515990 -0.00355910 0.00530049 -0.00322835
C 2.78395088 11.53505617 18.44992577 -0.00389046 -0.00376139 -0.00118948
C 5.69861181 7.42908903 27.22413197 -0.00386158 -0.00040110 0.00318613
C 1.65427601 11.47693505 26.61206113 0.00229183 -0.00301025 -0.01003701
C 7.13244660 7.45948674 18.81613539 -0.00087465 0.00397487 0.01140034
C 5.77504936 1.10453717 30.49642591 -0.00120263 0.00070480 0.00714235
C 2.99292108 4.96275406 22.32585702 -0.00243032 -0.00478123 -0.00501353
C 6.28571194 1.64469370 22.35528113 -0.00197181 -0.00632718 -0.00016524
C 2.29690164 4.06139288 30.42148499 -0.00117068 -0.00116689 -0.00449598
C 1.81392882 10.44830752 18.43650623 0.00591066 0.00143079 -0.00328430
C 6.66669757 8.47692948 27.30494176 -0.00045777 -0.00409025 0.00151974
C 2.38114345 10.34102736 26.87972992 -0.00043378 0.00064698 -0.00414327
C 6.17958854 8.49189478 18.94032233 0.00341576 0.00539706 -0.00192454
C 6.58935056 2.16017068 30.34192353 -0.00104206 -0.00544400 -0.00249131
C 1.95641222 4.04086574 22.25267719 -0.00098011 0.00560255 -0.00560841
C 6.04750126 2.38477374 21.19013609 -0.00267322 0.00124260 -0.00116504
C 2.66271342 3.56129272 29.18554820 -0.00468067 -0.00456506 -0.00423093
C 1.71864104 9.79304353 19.68259230 -0.00199849 0.00224848 0.00956674
C 6.98223142 9.03482386 28.51000401 -0.00164767 0.00158840 -0.01110994
C 2.47194932 9.93047515 28.26434749 -0.00436387 -0.00816557 -0.00858796
C 5.88350108 9.03292634 20.20826070 0.00442989 0.00433849 -0.00498075
C 6.72323083 2.70218448 29.02159964 0.00099269 0.00484689 -0.01267643
C 1.60323699 3.58440327 21.01486040 0.00148456 0.00623331 0.00179644
C 6.48563861 1.89893087 20.00566001 -0.00176783 0.00484284 -0.00136309
C 2.25762111 4.12908174 27.99626250 0.00742663 -0.00796617 -0.00347388
C 2.24247719 10.34211723 20.87046433 -0.00481736 -0.00331796 -0.00269173
C 6.56775612 8.45397589 29.68713617 -0.00544812 -0.00652204 -0.00133108
C 1.78760472 10.56362841 29.27282190 -0.00151566 0.00269128 -0.00240992
C 6.33164088 8.35366934 21.28140013 0.00800874 -0.00735195 0.00267710
C 6.29485423 1.90947312 27.95500320 -0.00473730 -0.00488709 0.00250328
C 2.13864764 4.14601372 19.88603784 0.00055139 0.00067345 -0.00600334
C 7.20630061 0.60780735 19.99900007 0.00664401 -0.00448917 -0.00479693
C 1.53978477 5.34899568 28.09134254 -0.00969282 0.00095721 0.00431813
C 2.97423233 11.55567944 20.90839831 -0.00516037 0.00195042 -0.00062372
C 5.72215009 7.25229992 29.65653051 0.00182906 -0.00134828 0.00621463
C 1.17476902 11.77294759 28.99160922 0.00217147 -0.00407395 -0.00347740
C 7.09039248 7.18074464 21.22695506 0.00094727 0.00195146 -0.00090289
C 5.49871942 0.75264759 28.16035876 -0.00104085 0.00089578 0.00719461
C 2.96800134 5.27953224 19.98136066 0.00723773 0.00212876 0.00244477
C 6.89506661 0.20967801 17.66645440 0.00136855 -0.00962233 -0.00233639
C 1.67643650 6.12457104 25.80987839 0.00569713 0.00075586 -0.00116620
C 2.99913353 12.00627737 23.35610761 0.00333665 -0.00460563 -0.00608818
C 5.90957107 6.55540868 31.90945914 -0.00229841 -0.00502868 0.01109706
C 0.93553915 12.29271648 31.36933386 -0.00322916 -0.00017817 0.00326685
C 6.81857543 6.45868390 23.52108122 0.00576595 0.00397982 0.00902994
C 5.63021760 25.50338530 25.89215973 -0.00012621 -0.00410449 0.00107056
C 2.77804517 6.09399140 17.63843683 0.00286024 0.00986803 -0.00017166
C 6.99182963 11.73985687 0.02773202 0.00173306 -0.00058842 -0.00478576
C 1.41797236 7.31721130 24.91879317 -0.00341522 0.00247722 -0.00540138
C 2.28941024 1.06271909 24.65121519 0.00314053 -0.00127056 -0.00725007
C 5.79048867 5.50450060 16.02385647 0.00826843 0.00937400 -0.00173141
C 1.48054087 0.80493496 16.41522731 -0.01187402 -0.00353329 -0.00062713
C 6.61373989 5.11893884 24.21556447 -0.00364903 0.00218769 -0.00135112
C 5.79320458 11.44699476 24.91794015 -0.00591117 0.00129175 -0.00800464