1920
Time=65000.00000006 pbc="T T T" Lattice="25.56943634 0.00000000 0.00000000 0.00000000 25.73046791 0.00000000 0.00000000 0.00000000 33.00871284" energy=-12253.41964090 virial="-63.12593325 13.38294358 -17.60690663 13.38294358 -74.10496381 8.42981208 -17.60690663 8.42981208 -48.26363796" stress="-0.00080335 0.00059811 -0.00072320 0.00059811 -0.00117681 0.00037917 -0.00072320 0.00037917 -0.00012328" Properties=species:S:1:pos:R:3:vel:R:3
O 6.00885979 3.21128188 7.05684227 -0.00934495 0.00418015 -0.00094799
O 2.04543987 3.33636441 14.88900617 0.00066360 0.00729817 -0.00702042
O 1.72840639 10.24928496 1.32934059 0.00076802 0.00217157 -0.00021285
O 6.86594450 9.25713142 9.20475249 -0.00875594 0.00033566 -0.00450329
O 2.58011897 10.01505405 9.43160838 -0.00286244 0.00182541 -0.00502978
O 6.23405035 9.32771849 0.76145645 -0.00304615 -0.00528573 -0.00148901
O 7.23477237 2.92342567 15.17397991 -0.00894476 -0.00450435 -0.00627361
O 1.46272269 3.82424338 6.90827379 0.00079497 0.00076952 -0.00056937
O 6.98052213 1.62884856 17.40419073 0.00035489 -0.00244500 0.00034960
O 2.20502707 5.31359641 8.86118986 -0.00053109 0.00486234 -0.00398037
O 2.19100258 11.65954440 7.37194144 -0.00141479 -0.00001048 0.00565883
O 6.57262531 7.64258367 31.89973674 -0.00167794 -0.00474102 0.00171920
O 2.34173784 11.60386312 32.02021412 -0.00478440 -0.00296195 0.00264996
O 6.87327403 8.02595662 6.88992929 -0.00206131 0.00094532 -0.01046635
O 5.94677924 1.62496338 8.93673598 0.00514675 -0.00037964 0.00440117
O 2.32545356 4.77605911 17.09877316 0.00032756 0.00620751 0.00170960
O 5.63549064 2.70801746 23.73842614 -0.00449876 0.00227259 0.00534896
O 2.79926763 3.70091298 31.57491538 -0.00388627 -0.00660634 -0.00522170
O 1.08219106 9.92151174 17.76885866 -0.00948630 0.00119034 0.00314085
O 7.02993563 9.01840776 25.63865106 -0.00330056 -0.00258053 0.00081197
O 2.85867848 9.82524897 26.04308515 -0.00148857 -0.00751496 -0.00027851
O 5.67672586 9.05018505 17.33606797 -0.00475664 0.00177965 -0.00254874
O 6.98087102 2.71669514 31.92033116 -0.00805165 -0.00292847 -0.00326266
O 1.61006892 3.40723934 23.33367436 0.00139718 -0.00247648 0.00042411
O 6.37965785 1.21578076 0.98543903 0.00191094 -0.00138555 -0.00110728
O 1.72646216 4.89883551 25.43435654 0.00342661 -0.00477467 -0.00145661
O 2.65189569 11.24472063 23.79064887 0.00613847 0.00152100 0.00719092
O 6.18372008 7.54732145 15.23451326 0.00222476 0.00338997 -0.00195317
O 1.76839824 11.20311452 15.65467430 -0.01062719 0.00238646 -0.00389969
O 6.59100096 7.63038812 23.45828540 0.00686785 -0.00529002 0.00096707
O 5.99509489 1.30703056 25.83636632 0.00310273 0.00099291 0.00095992
O 2.20482071 5.32210393 0.62069442 -0.00131170 -0.00576548 -0.00224119
O 6.23744529 15.84489281 6.75979256 -0.00189118 -0.00229483 0.00839036
O 2.63428110 16.32358297 15.49369325 0.00530317 -0.00000620 0.00222936
O 1.50241944 23.10001653 1.48313844 0.00459776 -0.00101529 0.00360109
O 6.68036561 22.60603357 9.89220999 -0.00457032 -0.00063955 -0.00250316
O 2.40865940 22.85972248 9.54115213 0.00161968 -0.00252735 0.00553404
O 5.60884881 21.73995337 1.46698341 -0.00147126 -0.00063371 -0.00752366
O 7.16152810 15.45313953 15.09269333 0.00580279 0.00284355 0.00392128
O 1.76979477 16.48403077 7.13496310 0.00382057 0.00021497 0.00012316
O 6.63084894 13.90780938 17.11872249 0.00223160 -0.00570008 0.00252544
O 2.21901563 17.84417176 9.23942624 -0.00409343 0.00149333 0.00125045
O 2.45174312 24.61241725 7.59874104 0.00085722 0.00125585 0.00271732
O 6.35108199 20.64379512 32.42671039 0.00638498 -0.00002181 -0.00159649
O 2.26765534 24.40911380 32.42110554 -0.00287678 0.00705069 0.00093866
O 6.33852995 20.96377807 7.71660596 0.00073851 0.00497959 0.00242212
O 6.26187577 14.38800817 8.93735346 0.00035225 0.00188492 -0.00538475
O 2.46053122 17.90778096 17.56683007 -0.00314500 -0.00591809 -0.00240030
O 5.93653881 15.31883486 23.24357019 0.00675728 -0.00297669 0.00154827
O 2.49020645 16.73635811 31.87082715 0.00360260 -0.00188121 -0.00368582
O 1.76379843 22.85086610 18.05408854 0.00278773 -0.00006190 0.00446384
O 6.77461433 21.87538848 26.07256248 0.00365446 0.00816470 -0.00145086
O 2.95981705 22.62061073 26.19458618 -0.00290842 0.00292954 0.00236687
O 6.23255753 22.04461567 17.87174266 0.00293199 -0.00270004 0.00515938
O 6.64269593 15.99677403 31.37107222 -0.00201141 -0.00426432 0.00077917
O 1.70769518 16.37184013 23.77275972 0.00644865 -0.00062647 0.00467934
O 6.80156773 14.42888037 0.57849217 0.00017404 -0.00052564 -0.00049414
O 2.29134120 17.94608813 25.75612786 0.00202389 0.00157256 -0.00121675
O 2.40556964 24.48849937 24.35961785 -0.00395674 -0.00010923 0.00388831
O 6.42570392 20.47817381 16.01529316 -0.00134297 0.00016780 0.00151535
O 1.99853685 24.05328763 15.66948347 0.00445818 -0.00241925 0.00594201
O 6.19592276 20.38717089 24.03702433 -0.00019454 -0.00024626 -0.00222337
O 6.34405233 13.84823596 25.39732443 0.00599631 0.00092396 -0.00116821
O 2.20203501 17.99328777 1.07552554 0.00021721 -0.00516277 0.00295373
O 14.65342521 2.87196554 7.30671784 0.00283646 -0.00260831 -0.00389739
O 11.55534629 3.69068845 14.83098986 0.00275000 -0.00295080 0.00266803
O 10.34365346 10.37060170 0.81930557 0.00320868 0.00010090 -0.00109797
O 15.05718101 9.51551744 9.44026710 0.00576907 0.00364630 -0.00373713
O 11.44953865 10.44487929 9.29924527 -0.00505938 -0.00218190 -0.00209589
O 14.07208504 9.20584874 1.09281724 -0.00186744 -0.00270213 -0.00111163
O 15.14374668 2.76636542 15.31411951 -0.00109608 -0.00070609 -0.00812866
O 10.55922607 3.98724901 6.67850951 0.00137290 -0.00076690 -0.00511499
O 14.79496212 1.27408560 17.44131941 -0.00144811 -0.00388764 0.00205139
O 11.17197050 5.38627506 8.92007286 0.00079497 -0.00376497 0.00451058
O 10.61893199 11.97299434 7.30068466 -0.00144634 -0.00193201 -0.00191759
O 14.88837168 7.89554229 31.98105590 -0.00221550 0.00018339 0.00616773
O 10.84628518 11.97158820 31.94590244 -0.00165667 -0.00362324 -0.00001825
O 14.89542306 7.94175087 7.35369848 0.00254820 0.00017483 0.00675239
O 14.69200433 1.29689609 9.29160016 0.00210576 -0.00451705 -0.00138500
O 10.77424319 4.83115198 16.86974282 -0.00287957 -0.00948073 -0.00260232
O 14.58887930 2.72330980 23.58285544 -0.00695084 -0.00511160 -0.00389739
O 10.83418744 3.66418247 31.40661416 0.00209753 -0.00872853 0.00632994
O 10.40062084 9.98342172 17.38543664 0.00315614 -0.00029046 0.00269371
O 15.34341079 8.64560392 25.65342180 -0.00806611 -0.00106993 -0.00289833
O 10.93566691 9.90554839 25.87345774 -0.00227322 0.00086289 0.00247524
O 14.31472056 8.79920793 17.63610813 0.00712046 0.00727855 -0.00123774
O 15.44756857 2.60705487 31.84883361 0.00260738 -0.00263148 -0.00150783
O 10.71552847 3.43910920 23.19354898 0.00299384 0.00799709 -0.00194450
O 14.91855555 1.57574767 1.03119703 0.00443662 0.00099867 -0.00348503
O 10.69545557 5.15323976 25.16128914 0.00047624 -0.00173934 -0.00534563
O 10.70262948 11.44808299 23.62888369 -0.00357850 -0.00534656 -0.00147251
O 15.18813899 7.61523926 15.45326178 -0.00241861 -0.00052248 -0.00675948
O 10.77497739 11.67893688 15.53007686 -0.00088366 0.00123192 -0.00232430
O 14.84439151 7.19579828 23.65612206 -0.00450998 -0.00360847 0.00006636
O 14.91383230 1.09747341 25.66594948 -0.00199333 -0.00281413 0.00322343
O 10.45919445 5.18650669 0.38483276 0.00424590 0.00224749 0.00125584
O 14.15425586 15.73279877 6.89382359 0.00197040 -0.01141867 0.00243844
O 10.69112337 16.87498391 15.66385921 -0.00222446 0.00099982 -0.00335594
O 10.02669648 23.06826304 1.33623234 -0.00930094 -0.00419943 0.00235918
O 15.74979672 22.16776977 9.93479984 0.00196335 0.00376318 0.00507540
O 10.91268910 23.29636994 9.53297688 0.00679036 0.00053821 0.00370623
O 14.21577495 22.06931955 1.54192327 -0.00452486 0.00193317 0.00318979
O 15.18128818 15.85560581 15.15373929 -0.00269108 -0.00421796 0.00219320
O 9.79665688 17.04969249 7.16961502 0.00444140 0.00039455 -0.00109869
O 15.07936069 14.35547788 17.17947468 0.00909379 0.00650731 0.00253438
O 10.53663904 18.13639988 9.36487953 0.00176342 0.00253744 -0.00316487
O 10.16772087 24.91901039 7.34583118 -0.00105777 -0.00445242 0.01082023
O 14.85437834 20.34063907 32.65027334 0.00211789 -0.00445244 -0.00471282
O 10.78956738 24.63573165 32.35633410 0.00489837 0.00079495 0.00199939
O 14.99017299 20.83777696 7.81402863 -0.00214300 0.00156098 0.00197676
O 14.87995022 14.30734327 8.85337252 0.00344081 0.00095449 -0.00320959
O 9.96802120 18.53332336 17.56123651 -0.00055101 -0.00566662 0.00369127
O 14.39339236 15.74390602 23.49445635 -0.00801302 0.00144473 0.00376524
O 11.32977525 16.64310467 32.01268613 0.00240415 -0.00596119 -0.00471669
O 9.86725024 23.20749381 18.13239114 0.00377921 -0.00799450 0.00758516
O 15.45870557 21.62823940 26.42271859 -0.00261484 0.00084850 0.00021210
O 11.26805579 22.83274762 26.33564336 0.00158734 0.00463532 0.00117368
O 14.53628800 22.08391631 18.31310696 -0.00479642 0.00322963 -0.00062786
O 15.26350444 15.93927333 31.67548599 0.00163282 0.00550589 0.00040475
O 10.30343678 16.30865950 23.55511419 0.00575807 -0.00386151 -0.00200657
O 15.11845005 14.13131530 0.68030559 0.00826499 -0.00505297 0.00202663
O 9.77639668 17.73351651 25.70859412 0.00167022 -0.00856029 0.00411371
O 10.98965685 24.52038090 24.20416970 0.00294254 -0.00046072 0.00509769
O 14.64504754 20.79881573 16.06450092 0.00153078 0.00358869 -0.00428054
O 10.30329847 24.69060625 15.69612451 0.00576440 0.00039492 -0.00485199
O 14.67848008 20.12912863 24.39329756 -0.00267605 -0.00096581 -0.00054760
O 14.44913857 13.81843268 25.47426709 -0.00329457 0.00088064 -0.00359116
O 10.74627414 17.94243399 1.04986375 -0.00157099 -0.00173953 0.00468067
O 23.01536105 2.60962633 7.26789721 0.00491011 0.00947177 0.00861404
O 19.60803430 3.25714067 15.20355674 -0.00106572 -0.01211185 0.00068675
O 18.62527706 10.20159725 1.46777816 0.00656611 -0.00129353 -0.00439963
O 23.96661824 9.11621406 9.34462439 -0.00526090 0.00165491 0.00666907
O 19.54279364 10.03028116 9.32823865 -0.00398965 -0.00205423 0.00217296
O 22.66101436 9.24282045 0.98466517 -0.00369995 -0.00262126 -0.00168350
O 23.65543792 2.43872444 15.41905431 -0.00478821 0.00668230 -0.00328245
O 18.20471002 3.86071000 6.85847275 -0.00191919 -0.00570702 -0.00088943
O 23.12820685 0.71693623 17.41830619 -0.00399717 0.00121628 0.00644358
O 19.14853108 4.96924838 9.06184833 0.00120825 -0.00555047 0.00737172
O 19.44525118 11.75186240 7.51762862 -0.00315712 0.00478895 0.00157583
O 23.50383528 7.85986104 31.92056989 0.00110118 -0.00325662 -0.00459979
O 18.80698551 11.68901436 32.41487156 -0.00361685 0.00617363 -0.00608538
O 23.47087952 7.85503387 7.09510467 0.00180772 0.00538317 0.00643057
O 23.78753375 1.04090468 9.17373313 0.00228710 0.00092463 0.00069935
O 19.48747738 4.97242561 17.11661113 -0.00366101 -0.00171084 -0.00536479
O 22.97299349 2.65491277 23.35420024 -0.00337675 0.00093087 -0.00201609
O 19.36276516 3.56394151 31.58778973 0.00732967 -0.00787269 0.00108945
O 18.80674558 10.03058261 17.57254891 0.00377020 0.00535205 -0.00359338
O 24.24222912 8.82298252 25.76195979 -0.00190544 0.00025451 -0.00332432
O 19.41940862 10.20491781 26.03066084 0.00116982 0.00094282 0.00609604
O 22.94106886 9.36856062 17.58342587 -0.00099332 0.00259776 -0.00098125
O 24.06492277 2.53699782 31.59220167 0.00117739 -0.00692337 -0.00121094
O 18.77712949 3.67783262 23.34729196 -0.00524360 0.00535335 -0.00346481
O 23.31719062 1.59138950 0.90164134 -0.00369932 0.00197380 0.00088691
O 18.98363839 5.13271645 25.37184236 -0.00094965 0.00304951 0.00734763
O 19.31298219 11.52799487 23.88393269 0.00308666 -0.00230097 -0.00386127
O 23.20926899 7.67507584 15.56724100 -0.00185505 0.00010827 0.00638918
O 18.96944735 11.73502910 15.49668314 0.00065577 -0.00023930 -0.00189548
O 23.21807595 7.60776932 23.70836936 0.00094071 -0.00613596 0.00252846
O 23.60619378 1.09366055 25.48724832 -0.00230762 0.00121933 -0.00424205
O 19.45943122 5.08821033 0.64647818 -0.00465525 -0.00422724 -0.00075623
O 22.77884790 15.43400638 7.01306795 0.00013654 -0.00137212 -0.00162733
O 20.03861179 16.58136369 15.44233270 0.00133525 0.00419800 0.00374454
O 18.61333843 22.99059140 1.42559037 0.00505899 0.00195821 0.00272899
O 23.84548885 22.41099840 9.77582662 0.00447424 -0.00954736 0.00330019
O 19.85305611 23.16465622 9.49870763 -0.00158772 -0.00262954 -0.00471842
O 23.39127710 22.18206191 1.72716204 -0.00092725 -0.00065473 -0.00094984
O 24.46947207 15.49277801 14.97658131 0.00136585 -0.00597226 0.00112686
O 18.34090019 16.70978385 7.28946076 -0.00746167 -0.00361052 0.00536135
O 23.77199002 14.27689816 17.03426663 -0.00132973 0.00156595 0.00145345
O 19.00876002 17.94782590 9.33846772 -0.00161514 -0.00083681 -0.00242807
O 18.94350314 24.73782806 7.56283992 0.00641844 0.00263942 -0.00012014
O 23.52903240 20.82825147 32.61955741 0.00153842 0.00166655 -0.00062887
O 19.09809344 24.57939902 32.49991256 0.00105823 0.00190544 0.00221250
O 23.75829292 20.46714707 7.98744199 -0.00661183 0.00035567 -0.00394723
O 23.41789728 13.79736178 8.87234854 -0.00222200 0.00392425 -0.00181346
O 19.27584044 17.83620695 17.54121081 -0.00420120 0.00203387 0.00496214
O 22.92944665 15.75606907 23.41055077 -0.00044105 -0.00189214 0.00155554
O 19.92004550 16.73644844 32.14253199 0.00308290 0.00305790 -0.00984519
O 18.49656177 23.07634117 17.57294553 0.00074498 -0.00167280 0.00050398
O 23.18012018 21.64966678 25.98911949 -0.00069428 0.00223489 -0.00323054
O 19.57698600 23.16720381 26.16637202 0.00341547 -0.00053562 -0.00062586
O 23.38842120 21.90291238 17.94996749 0.00190750 0.00276333 -0.00343535
O 24.11640532 15.61268797 31.53810574 -0.00084121 -0.00167582 -0.00255815
O 18.63050356 16.52453537 23.71998050 0.00044508 -0.00091376 -0.00172687
O 23.80052125 14.23645245 0.79825037 0.00312313 -0.00245480 -0.00280067
O 18.86743513 17.99961934 25.81479908 -0.00071947 -0.00318819 0.00560993
O 19.67000706 24.42005651 23.83049720 0.00186762 0.00262748 0.00834330
O 23.63718543 20.25023164 15.85274271 0.00394042 -0.00385921 -0.00103757
O 19.70712296 24.34192486 15.55856370 0.00693458 -0.00359857 0.00621290
O 23.01017493 20.16647262 24.01714043 0.00299408 -0.00078010 -0.00062299
O 23.23750261 14.04667669 25.36790273 0.00177736 -0.00063296 -0.00599019
O 19.64866281 18.16666142 1.23281999 -0.00013887 0.00638343 0.01091599
N 7.71165657 13.12607814 2.29490420 -0.00215179 -0.00248566 -0.00195382
N 0.96500893 6.44316752 10.46832763 0.00237571 0.00513504 -0.00071792
N 3.09049609 0.30761028 5.97232543 0.00059308 0.00343749 -0.00272067
N 4.94204227 6.50502189 13.60780286 0.00263603 0.00045768 -0.00657535
N 1.29645811 25.61293501 14.18604442 -0.00213305 -0.00464390 0.00136575
N 7.86213404 6.69139230 5.38795866 0.00513208 -0.00751129 0.00480736
N 5.04746576 13.20284261 10.49045946 0.00604956 0.00000597 0.00309448
N 3.32053361 6.29959271 2.37035470 0.00864018 0.00332635 -0.00491606
N 7.37852570 12.42237743 18.67519062 0.00156540 0.00103461 0.00491190
N 0.95512402 6.24895268 27.10226176 -0.00174846 -0.00313933 0.00249760
N 3.35969213 25.60381113 22.55972161 0.00203222 0.00369448 -0.00716749
N 5.17398130 6.66760254 30.31812677 -0.00716339 -0.00592376 0.00176807
N 1.06612859 25.38965961 30.65122871 -0.00500109 -0.00488181 0.00019286
N 7.48554925 6.35499102 21.80232479 0.00591793 0.00138232 -0.00175281
N 5.09360428 12.81659250 27.03588728 -0.00112546 -0.00070115 -0.00166656
N 2.81369376 6.18611266 18.76984828 0.00409969 0.00010807 -0.00532191
N 7.49193111 0.20375556 2.67367744 0.00351689 0.00329322 0.01066418
N 1.22157921 19.14538713 10.88878583 -0.00609526 -0.00037464 -0.00063552
N 3.63575617 12.73470214 5.84071148 -0.00016126 -0.00429123 -0.00082002
N 5.46454315 19.37037290 14.26493799 -0.00271974 0.00388377 0.00479778
N 1.04477864 12.63571835 14.07920033 -0.00539452 -0.00570968 -0.00033656
N 7.44802169 19.64131308 6.21178402 0.00519600 0.00033476 -0.00717176
N 5.18218587 0.40557155 10.68843539 0.00226587 0.00598727 -0.00010639
N 3.21197504 19.29538521 2.61897487 -0.00059337 0.00186466 -0.00098578
N 7.58635895 0.21644765 19.15990074 0.00587472 -0.00411834 0.00557197
N 0.91239888 19.11469951 27.10041698 0.00094343 -0.00188081 -0.00870274
N 3.29049977 12.62216938 22.12745526 -0.00284705 -0.00357926 0.00129852
N 5.19363949 19.43554711 30.85814544 -0.00120126 -0.00199457 0.00498514
N 0.90072288 12.50163316 30.48152368 0.00280947 0.01102688 -0.01054677
N 7.39790768 19.21289456 22.50215025 -0.00355933 -0.00645932 -0.00007111
N 5.16097878 25.64455138 27.50483424 -0.00415071 -0.00181700 -0.00233936
N 3.57080652 18.96513389 19.22785338 0.00562119 -0.00350681 0.00098717
N 16.07025590 13.10818535 2.48436027 -0.00017817 -0.00491176 0.00008095
N 9.92506397 6.50389507 10.51449645 0.00595139 0.00619769 0.00562719
N 11.59553645 0.14716785 5.85341695 -0.00893310 0.00299895 0.00090818
N 13.88220894 6.46035063 13.94433617 0.00170756 0.00706965 0.00208274
N 9.55948935 0.40733692 14.13740278 -0.00110832 -0.00309832 0.00124899
N 16.19256414 6.95766948 5.71371529 0.00062868 0.00285950 0.00384722
N 13.72658166 13.18140127 10.51214288 -0.00135365 0.00693083 0.00302302
N 11.78786795 6.36208041 1.80990977 0.00067452 0.00925463 0.00231556
N 16.01743161 13.12167099 18.92910044 0.00290777 0.00333934 0.00169858
N 9.72654388 6.47473689 26.82566846 -0.00212561 -0.00042509 -0.00187386
N 11.93928670 0.02892533 22.48449965 -0.00025498 0.00023451 -0.00025784
N 13.84653462 6.51696691 30.44748492 -0.00251235 -0.00368615 0.00277455
N 9.39294358 25.46028177 30.75992183 0.00573082 -0.00040130 0.00279135
N 16.43108914 6.27972960 22.22977830 0.00118136 -0.00244943 0.00027038
N 13.43379486 12.96871736 27.26664703 -0.00204673 -0.00094468 0.00316348
N 11.88059200 6.05621420 18.44233055 0.00027609 0.00126033 -0.00194209
N 16.05332998 0.43980700 2.60886552 -0.00099187 -0.00222521 -0.00425768
N 9.65277494 19.60824594 10.80688368 -0.00581866 -0.00246833 -0.00045538
N 11.95365919 12.72038761 5.58913961 0.00185901 0.00286807 0.00189404
N 13.48910800 19.71657507 14.37546894 0.00007332 -0.00248946 0.00572655
N 9.43973701 12.74446438 14.03535280 0.01166805 0.00649944 -0.00441684
N 16.03515029 19.76624665 6.11827879 -0.00114872 0.00874680 0.00034624
N 13.70123587 25.67118122 10.87125943 -0.00064988 0.00439467 -0.00477780
N 11.81474324 19.26839219 2.61711774 -0.00158950 0.00155003 -0.00026822
N 15.84906350 0.00306802 19.00776937 0.00024173 0.00275642 -0.00709158
N 9.44880288 19.19476852 27.42370599 0.00432757 -0.00327746 -0.00110524
N 11.81852956 12.66499519 22.00017600 -0.00636628 -0.00760170 -0.00387423
N 13.82018074 19.12596125 31.03044690 0.00928290 0.00233103 0.00038303
N 9.42327559 12.79745974 30.39309633 -0.00108220 0.00016479 -0.00141665
N 15.76281156 18.96978503 22.70358307 0.00255267 -0.00148363 -0.00215700
N 13.77060112 25.70628804 27.27290580 0.00092555 -0.00593869 0.00340394
N 11.70592662 19.09180460 18.94865456 0.00647295 -0.00172511 -0.00213182
N 24.50959203 12.87596487 2.51452904 0.00293082 -0.00128796 -0.00034192
N 18.00137370 6.06409518 10.75754048 -0.00220778 0.00145982 0.00569834
N 20.09641872 0.08893430 5.96349703 0.00197846 -0.00229444 -0.00713743
N 22.12116846 6.48535567 13.93771816 0.00548397 0.00173028 0.00148275
N 18.04217802 25.29455081 14.25805553 0.00182939 -0.00073641 0.00237208
N 24.50644651 6.64224848 5.40935044 -0.00106736 -0.00051657 0.00210948
N 22.21084953 12.95864302 10.59086857 0.00800438 0.00253330 -0.00177321
N 20.26312467 6.44475308 2.33341815 0.00131877 -0.00515388 -0.00091599
N 24.39291278 12.98877858 18.86526033 -0.00264377 0.00429601 -0.00359440
N 17.93605657 6.24863801 27.05264131 -0.00168549 0.00264363 0.00346717
N 20.49881993 25.66662570 22.13809515 -0.00590011 0.00009955 -0.00417774
N 22.24846645 6.73437774 30.31152993 0.00003054 0.00294131 -0.00414384
N 18.33324569 0.23932125 30.85440494 -0.00319138 0.00468895 0.00378322
N 24.52500499 6.54441116 22.11830215 -0.00164218 0.00315690 -0.00099528
N 22.35777645 12.85840303 27.10789461 -0.00132965 -0.00449798 0.00059176
N 20.14979710 6.31444867 18.75988288 0.00080446 -0.00214944 0.00342583
N 24.62048029 0.50501169 2.39255419 -0.00814971 -0.00120942 -0.00339411
N 17.95602575 19.08776968 11.03394614 0.00285404 0.00379364 0.00276264
N 20.42852739 12.88760841 5.80225968 0.00753130 0.00159765 0.00448790
N 22.59560627 19.14609598 14.13109521 0.00033879 0.00125663 0.00387714
N 17.91547991 12.88858417 13.75765665 0.00230755 -0.00261826 0.00139507
N 24.61944275 19.28913965 6.23063341 -0.00360785 -0.00001757 -0.01183399
N 22.47984429 25.58013899 10.66942203 -0.00221831 0.00041512 -0.00056945
N 20.45577108 19.45463320 2.93495473 0.00292813 0.00027102 -0.00659300
N 24.56710229 25.43685968 18.92490465 0.00482406 0.00245802 -0.00298476
N 18.05315713 19.31977839 27.55360900 -0.00207569 -0.00380877 0.00431449
N 20.30866778 12.71120560 22.25809315 0.00344136 -0.00267829 0.00872214
N 22.48093619 19.57515838 31.03581085 -0.00582841 -0.00718337 0.00614975
N 18.08255529 13.01370119 30.73424482 0.00421012 -0.00115904 -0.00181788
N 24.78450934 19.51906207 22.80090680 0.00263446 0.00080936 0.00022225
N 22.49808957 25.59064860 27.06462575 -0.00231610 0.00182885 0.00175479
N 20.45187604 18.95307652 19.18714302 -0.00318782 -0.00657338 -0.00364402
C 7.58559377 0.69649234 5.01704762 0.00523429 0.00671222 0.00341857
C 0.82334027 6.11747065 12.83974376 0.00097553 0.00424009 -0.00112003
C 3.56364290 12.54840164 3.48156361 0.00466116 -0.00114315 0.00109780
C 5.28100893 6.63585748 11.11780592 0.00984607 -0.00043428 -0.00370294
C 0.91566178 12.39960845 11.67173949 -0.00502884 0.00329441 -0.00664021
C 7.56527562 6.85329790 2.97890945 0.00058973 -0.00032403 0.00458464
C 5.24229579 0.69478539 12.99398635 0.01005702 0.00953290 0.00900216
C 3.34168950 5.98119245 4.69641832 0.00399494 -0.00062863 0.00095267
C 7.23157591 1.41418980 6.08715928 0.00434055 -0.00315714 -0.00200866
C 0.98532606 5.25308003 13.92366162 -0.00461284 0.00422299 0.00215665
C 2.95206702 12.01012298 2.35843748 0.00019945 0.00130453 -0.00095253
C 5.64406138 7.39560392 10.04261288 0.00031724 -0.00058751 0.00407100
C 1.20532386 11.68751600 10.46593415 -0.00335466 -0.00452743 -0.00190588
C 7.18960007 7.51764404 1.86164130 0.01169850 -0.00597664 0.00455506
C 5.81094879 1.28112774 14.17346311 0.00304236 0.00594833 0.00108533
C 2.92415581 5.32144265 5.80747451 -0.00101988 0.00474476 0.00809774
C 6.42812807 2.52115010 5.92996038 0.01047879 -0.00245199 -0.00398118
C 1.77684777 4.14401797 13.81987778 -0.01086527 0.00599981 0.00246360
C 2.21156768 10.76500463 2.44412313 -0.00246865 -0.00258638 0.00553704
C 6.37768738 8.60001975 10.25777914 -0.00000796 0.00317475 -0.00246912
C 2.08020345 10.56946670 10.55354235 -0.00159339 -0.00191896 -0.00073029
C 6.46085998 8.71459973 1.90739223 -0.00063317 -0.00575195 0.00003896
C 6.69209497 2.35418644 14.08395246 0.00528948 0.00538178 -0.00400175
C 2.00529598 4.28037217 5.81711494 -0.00298825 0.00030931 0.00242535
C 6.36846229 3.14848146 4.64416012 0.00209234 -0.00754657 0.00181808
C 2.21439305 3.67838286 12.57952923 0.00016709 -0.00405006 -0.01148951
C 2.06898250 10.07343744 3.68907751 0.00515354 0.00500020 0.00597196
C 6.51989250 9.12260327 11.48282130 -0.00458043 -0.00255891 0.00486626
C 2.39398571 9.98398159 11.76249436 -0.00321504 0.00145237 -0.00329747
C 6.16957637 9.15865154 3.18262401 -0.00897515 -0.00126291 -0.00352034
C 6.94587502 2.86424052 12.74319317 -0.00033576 0.00116113 0.00249435
C 1.69859951 3.76009286 4.53149003 -0.00672579 -0.00640420 0.00231297
C 6.64354756 2.35867847 3.50368479 0.00040297 0.00134982 0.00483226
C 1.97921618 4.47465340 11.48504961 -0.00950152 0.00000386 -0.00367762
C 2.56392486 10.72554975 4.81200979 0.00398831 -0.00368732 0.00219974
C 6.08803630 8.43637019 12.55271268 -0.00482074 0.00478978 0.00434833
C 2.04460638 10.70721071 12.95344519 0.00310963 0.00299912 -0.00024832
C 6.61820214 8.49880170 4.30583954 -0.00755420 0.00405312 -0.00570732
C 6.45112206 2.24804519 11.63561966 0.00213009 0.00780878 -0.00309688
C 2.15664609 4.29150158 3.37327370 0.00043079 -0.00049478 0.00050793
C 7.18243631 1.06170430 3.73519254 0.00076327 -0.00305770 0.00422619
C 1.30226116 5.69960002 11.57200294 0.00197110 0.00287953 0.00058915
C 3.22409381 12.03654792 4.69561936 -0.00581690 -0.00467201 0.00720192
C 5.49150496 7.15820941 12.45105779 0.00057331 0.00410127 0.00175119
C 1.31904475 11.92195992 12.92243059 -0.00979084 0.00054874 0.00298711
C 7.41445703 7.38328924 4.28811982 0.00497192 0.00091620 -0.00506143
C 5.63930288 1.13802436 11.73291982 -0.00047831 -0.00040360 -0.01054454
C 2.94710385 5.48740682 3.40883621 0.00080651 0.00650118 -0.00198383
C 6.99866141 0.26998780 1.45844510 0.00094588 0.00603260 0.00280382
C 1.50439889 6.28277170 9.24019557 0.00351312 0.00437503 -0.00025308
C 2.87736863 12.60994876 7.01038448 -0.00831552 -0.00606201 0.00640984
C 5.63539529 6.57733754 14.80248511 0.00512815 0.00894188 0.00172587
C 1.50150345 12.35698163 15.34358428 0.00104554 -0.00293190 -0.00191732
C 7.45812598 6.97523801 6.64098049 -0.00113231 0.00238615 -0.00121453
C 5.62971946 0.53650176 9.39755373 -0.00274924 -0.00234804 0.00452390
C 2.84722611 6.24366924 1.12057049 0.00455534 0.00413981 -0.00235498
C 7.49939459 11.87492310 16.26083299 0.00306527 0.00084845 -0.00633334
C 1.29200645 7.50617695 8.37103725 -0.00489653 -0.00755922 0.00107889
C 2.68354902 1.21922825 8.19397353 -0.00459018 -0.00190726 -0.00086640
C 5.74191913 5.43644901 32.33329846 0.00365196 0.00049351 -0.00271206
C 1.54625607 0.99176139 32.59431055 -0.00217016 0.00434358 0.00921401
C 7.85367515 5.98705741 7.73845582 0.00413041 0.00099228 -0.00137822
C 5.54003001 12.21557051 8.28193849 0.01150636 -0.00423370 -0.00540604
C 2.61769903 7.06808920 16.51529043 0.00398145 -0.00492061 -0.00083504
C 7.58336209 0.52172977 21.54423504 0.00101419 -0.00170958 0.00635551
C 0.86679816 5.94763476 29.39139479 0.00328604 0.00752008 0.00009379
C 3.09887027 12.27909838 19.80468026 -0.00025980 -0.00182343 -0.00204670
C 5.27955418 6.79627148 27.87258364 -0.00472038 0.00033044 0.00172463
C 1.06651611 12.22744936 28.06998814 -0.00226302 -0.00006384 0.00294106
C 7.65381339 6.81871282 19.43484980 -0.00427810 -0.00033778 0.00093892
C 5.41437420 0.09364015 29.90806039 -0.00110082 -0.01133962 0.00240572
C 3.15608272 5.79004280 21.11822367 0.00100500 0.00254882 0.00064907
C 7.09872306 1.13977683 22.68870858 0.00314907 -0.00326013 -0.00675403
C 1.41191216 5.42688968 30.55440669 -0.00596791 0.00272683 -0.00035336
C 2.48552908 11.66050429 18.64117555 0.00253645 0.00976881 -0.00211182
C 5.72593911 7.43831962 26.70531377 0.00075508 -0.00269558 0.00087177
C 1.48890635 11.59377207 26.95318430 -0.00242041 0.00054939 0.00147152
C 7.26747889 7.50942665 18.28128388 0.00087902 -0.00490304 0.00426547
C 5.74895694 0.89171048 30.93689081 0.00022573 -0.00189144 0.00968676
C 2.85133708 5.09570327 22.25820443 -0.00149746 0.00548872 -0.00275914
C 6.18590111 2.21912445 22.58444466 -0.00210840 0.00183450 0.00059833
C 2.15003067 4.15595406 30.45315072 -0.00952761 -0.00418529 0.00397893
C 1.63436000 10.56969587 18.85639965 -0.00221015 -0.00460963 0.00452291
C 6.54203971 8.57102966 26.79952786 -0.00551944 -0.00337201 -0.00867024
C 2.27541712 10.39849446 27.12617672 0.00238165 0.00140931 0.00458659
C 6.29140383 8.54870321 18.40364557 -0.00073917 -0.00584373 0.00329713
C 6.39182652 2.11064452 30.83285592 -0.00014978 0.00399531 0.00243859
C 2.02782802 3.95667607 22.19763801 0.00217236 -0.00798913 0.00190694
C 5.96343748 2.77621894 21.33274374 -0.00153683 -0.00815460 -0.00578436
C 2.33937360 3.52539817 29.24503447 -0.00801816 -0.01131711 -0.00080087
C 1.54220198 9.96637902 20.10402525 -0.00258649 -0.00150919 0.00308971
C 6.85074335 9.16852416 27.99370361 0.00279568 -0.00251381 0.00060268
C 2.35615152 9.81888309 28.42806858 -0.00132413 0.00861870 -0.00689041
C 6.04007039 8.98949981 19.72731673 -0.00244559 -0.00528907 -0.00153359
C 6.59222129 2.61553592 29.52987428 0.00067471 -0.00179616 -0.00319774
C 1.81964876 3.41320988 20.92835532 -0.00321116 0.00219583 -0.00506202
C 6.50527730 2.20652996 20.19810246 -0.00773911 -0.00023979 0.00002350
C 1.81342009 4.13398182 28.09192975 -0.01317783 0.00397230 0.00479281
C 1.99565135 10.70247654 21.20576748 -0.00592060 -0.01358698 -0.00267295
C 6.30169751 8.56895831 29.18206273 -0.00346166 -0.00581787 -0.00898547
C 1.84928306 10.46511855 29.54831920 -0.00290098 0.00285360 -0.00519709
C 6.43653225 8.31633635 20.86149714 0.00549379 -0.00468462 0.00240416
C 6.25102389 1.86910865 28.45670153 -0.00547775 0.01110613 0.00356609
C 2.08787971 4.13966968 19.73653852 0.00586989 0.00088616 -0.00288278
C 7.20565140 0.95145058 20.29156304 -0.00240453 -0.00523301 0.00565559
C 1.18851819 5.42304100 28.17829807 0.00408694 0.00550298 -0.00460481
C 2.79625031 11.83819034 21.05547948 -0.00890065 -0.00189888 -0.00479499
C 5.55879866 7.33719211 29.12033383 -0.00013619 -0.00105872 -0.00231671
C 1.27462300 11.74845190 29.39136902 -0.00504137 0.00152871 0.00669220
C 7.21179405 7.13941882 20.69864147 -0.00439172 -0.00049593 0.00207081
C 5.61214022 0.62151602 28.59686580 0.00502196 0.00122261 0.00466242
C 2.74693505 5.34580584 19.85727711 -0.00025950 0.00193248 0.00200099
C 7.14205049 0.49821269 17.89844114 0.00267637 -0.00238501 -0.00719118
C 1.26894712 5.97733149 25.81454958 -0.00489443 -0.00514568 -0.00155232
C 2.94270020 12.36838505 23.39405392 -0.00378047 -0.00410665 0.00944993
C 5.91315958 6.62167649 31.49079638 0.00295735 0.00891458 -0.00275317
C 1.55528021 12.51167521 31.66508487 0.00205893 -0.00415515 0.00192338
C 7.07450804 6.55712954 23.08213284 -0.00155820 0.00294920 -0.00091932
C 5.58240622 0.18754353 26.18231883 0.00041699 0.00238552 0.00030248
C 2.49625973 5.91947340 17.50283554 -0.00124447 0.00152497 -0.00140715
C 7.10590790 12.17011205 0.04428068 0.00426617 -0.00614631 -0.00224696
C 1.24265118 7.17376341 24.93535815 -0.00291103 0.00530246 0.00249579
C 2.92404862 1.06728273 24.66830097 -0.00138340 0.00088018 0.00105735
C 5.72638842 5.27732743 15.51366714 0.00285432 -0.00073497 0.00181950
C 1.87509660 0.70490842 16.37243380 0.00846746 0.00182711 -0.00256832
C 7.39699056 5.46528261 24.09593497 -0.00793809 0.00207679 0.00093954
C 5.71133665 11.59076734 24.93913584 -0.00119371 -0.00129940 -0.00150396