1920
Time=48000.00000003 pbc="T T T" Lattice="25.49853984 0.00000000 0.00000000 0.00000000 25.57230092 0.00000000 0.00000000 0.00000000 32.93430842" energy=-12252.96175134 virial="-69.14677438 -13.63983367 18.53849519 -13.63983367 -61.95248444 7.04444498 18.53849519 7.04444498 -54.81385696" stress="-0.00105157 -0.00058809 0.00083496 -0.00058809 -0.00063119 0.00037506 0.00083496 0.00037506 -0.00036569" Properties=species:S:1:pos:R:3:vel:R:3
O 6.25463459 2.53051678 7.23054998 -0.00318512 -0.00231210 -0.00600162
O 2.31254062 3.46323434 15.38956899 0.00012107 -0.00330768 -0.00175329
O 1.42977403 10.31347309 0.91363046 -0.00141985 -0.00802563 0.00246101
O 6.91707629 9.26433635 9.60766420 0.00378606 -0.00148939 0.00243562
O 3.09997396 10.30052303 9.36827231 -0.00753625 0.00025512 -0.00053241
O 6.09863221 9.48900079 1.38190081 -0.00201835 0.00012441 0.00604349
O 7.05036750 2.82320038 15.25040439 0.00380774 0.00777411 0.00105662
O 1.83984958 3.65668091 6.84309181 0.00020968 -0.00188460 -0.00436194
O 6.63153702 1.29344019 17.26863081 0.00310006 0.00210180 -0.00417723
O 1.95604455 5.10474979 9.05194875 -0.00033632 -0.00006597 0.00577834
O 2.63655693 11.31642741 7.05990320 -0.00006420 -0.00614535 0.00507371
O 5.57653418 7.95209107 32.13097983 -0.00000235 -0.00354503 0.00518542
O 2.00372661 11.88698833 31.79555783 -0.00428754 0.00161185 0.00261124
O 6.57519659 7.47808326 7.43722838 0.00188850 -0.00005975 0.00515609
O 6.62769318 0.93641647 9.26839282 -0.00324739 -0.00705376 0.00696662
O 1.84503965 4.90213358 17.35667990 0.00194886 0.00325356 0.00189509
O 5.90266431 2.44113067 23.50922847 -0.00427489 -0.00111969 0.00682239
O 2.27954499 3.76972995 31.85861831 0.00077644 0.00022900 0.00169916
O 1.44781641 9.93442975 17.26359436 -0.00154015 -0.00032538 0.00919074
O 6.85949826 8.81758370 25.92607970 0.00089512 -0.00295726 0.00484294
O 2.63122563 9.96393225 25.55848710 0.00019922 0.00166104 0.00335787
O 5.99344976 8.98427520 18.09540192 0.00205170 0.00373935 0.00230913
O 7.11799626 2.68784358 31.88469303 -0.00201043 -0.00637052 0.00122885
O 1.74196806 3.53178733 23.63188112 -0.00179285 -0.00037744 -0.00189872
O 6.14597243 1.32416098 1.01060257 -0.00241877 -0.00233167 -0.00403184
O 2.14337784 5.05549183 25.61237701 0.00053032 0.00004293 0.00253016
O 2.12472886 11.39839955 23.58084360 -0.00102245 -0.00702151 0.00014382
O 6.40440217 7.56321097 15.92080396 -0.00152878 0.00344962 -0.00100307
O 2.68640635 11.74445776 15.36638478 -0.00417876 0.00743013 0.00374343
O 6.20095423 7.30292378 24.11402017 -0.00203056 -0.00523628 0.00176440
O 6.30814330 1.21868204 25.74053451 0.00016300 -0.00302611 -0.00234785
O 1.56822564 5.39367885 0.82273183 0.00017625 0.00844518 0.00377680
O 6.33398081 15.56530928 6.80887255 0.00636527 0.00410028 0.00673645
O 3.13090989 16.53072844 15.50515066 0.00484479 -0.00486667 0.00072941
O 1.63059664 22.94974278 1.31372130 -0.00465030 0.00400209 -0.00230249
O 7.18046944 21.59822188 9.56833133 0.00008304 -0.00074751 0.00463608
O 2.77760234 22.61174457 9.73038080 -0.00088521 0.00270134 -0.00754463
O 6.04780009 21.83375416 1.30815148 0.00007233 0.00563015 0.00224555
O 6.93668032 15.67885357 14.69440364 0.00070222 -0.00040347 0.00285497
O 1.82514731 16.40214012 7.30276085 -0.00549824 -0.00495999 -0.00209900
O 6.41831296 13.79252229 16.64954371 -0.00468576 0.00144225 -0.00345892
O 2.43072403 17.82836810 9.32187041 0.00125466 0.00127507 -0.00034405
O 2.30063486 24.24239017 7.40487870 0.00140026 -0.00139419 0.00268771
O 6.77157827 20.20693778 32.51577872 0.00032764 0.00083387 0.00006012
O 2.15966152 24.50680357 32.30875828 0.00010281 0.00083335 0.00084582
O 6.55895114 20.41786190 7.45664487 0.00637441 -0.00044533 0.00402853
O 6.97322708 13.85604462 8.67350019 0.00073189 -0.00443164 -0.00031685
O 2.25091849 17.73380155 17.65724972 0.00193103 0.00682913 0.00498004
O 6.03915104 14.92291788 22.86094623 0.00071339 0.00196553 0.00104886
O 2.90920238 16.78440713 31.85167139 0.00068742 0.00411279 -0.00620486
O 2.06487334 22.93308970 17.85148720 0.00449536 0.00245769 0.00435953
O 6.49439070 21.62017193 26.21060297 -0.00706991 -0.00037401 -0.00161233
O 2.04143163 22.75995211 26.15621861 0.00466326 -0.00309049 -0.00177122
O 6.22931720 21.90913539 17.87486860 0.00123496 -0.00290057 -0.01233131
O 6.86224047 16.02541262 31.18864566 0.00287826 0.00243922 -0.00487926
O 1.11965554 16.39135651 23.64239019 -0.00266706 0.00562007 -0.00087087
O 6.55141206 14.35494046 0.36041114 0.00155785 -0.00230832 -0.00332730
O 1.93332720 17.64235506 25.70319551 0.00522502 0.00207276 0.00394524
O 2.02927127 24.20128919 24.06481682 -0.00285389 -0.00643057 -0.00131182
O 6.10904674 20.43504558 15.65012799 0.00008948 0.00100708 0.00634277
O 2.51850299 24.26713674 15.82933103 -0.00256017 -0.00204107 0.00715794
O 6.25286254 20.21618155 24.05865458 -0.00333823 0.00462068 -0.00524325
O 6.45274888 13.82717112 25.08299067 -0.00607800 0.00415542 -0.00348434
O 2.02312999 17.89910741 1.23858611 -0.00301617 -0.00196466 0.00547156
O 14.20930335 2.56475854 7.21002408 -0.00206642 0.00851469 0.00116254
O 11.15151194 3.56874788 15.06949543 0.00750106 0.00535257 0.00733553
O 9.73113937 10.40895374 0.75981222 -0.00001709 -0.00162342 0.00860103
O 15.17168236 9.35017938 9.37595847 0.00309565 -0.00161395 0.00017085
O 11.09039837 10.44687356 8.96420117 -0.00163752 -0.00089479 -0.00495453
O 14.65763674 9.60417021 1.32718449 -0.00395308 -0.00115208 0.00478224
O 15.76486718 2.33146284 15.41223338 -0.00345061 -0.00392860 0.00400839
O 10.36407427 3.29444225 6.85166528 -0.00442868 0.00965384 0.00248572
O 14.90284385 1.14316033 17.48221757 0.00314131 -0.00284881 -0.00255667
O 10.38938024 5.17840064 8.89658336 0.00014751 -0.00345640 -0.00698140
O 10.35526829 11.79171123 6.84580574 -0.00126853 0.00011252 -0.00554038
O 14.77053389 7.79303844 32.24168750 -0.00084851 -0.00451397 -0.00253152
O 10.71639217 11.94390014 31.63164547 0.00445562 0.00255704 0.00279986
O 14.80889658 7.68744578 7.40097751 -0.00253174 0.00404703 0.00074185
O 14.88051068 1.30319389 9.28666476 -0.01148888 -0.00101998 0.00284030
O 11.34086659 4.81397447 17.34100557 -0.00413313 0.00471486 0.00116786
O 13.77276699 2.52114772 23.48632633 0.00176795 0.00168990 -0.00076106
O 11.15088775 4.03483393 31.81292706 0.00434251 0.01120334 0.00293525
O 10.02672448 9.98458251 17.26295548 0.00212947 0.00608671 -0.00092231
O 14.98706256 9.23621134 25.94071512 -0.00230551 0.00484870 0.00208661
O 10.71956929 9.89929213 25.54998808 -0.00546938 -0.00647265 0.00911954
O 14.05096098 8.97209166 17.68939764 -0.00877857 0.00138660 -0.00675070
O 15.52960797 2.77669736 31.75579327 -0.00077415 -0.00191538 -0.00049392
O 10.19798394 3.86837660 23.75125289 0.00153872 -0.00359410 0.00110149
O 15.35435455 1.40234436 1.05117186 -0.00262645 -0.00423310 0.00194654
O 10.78484604 5.48782763 25.71526071 -0.00035051 -0.00333163 -0.00332859
O 10.57327472 11.40646571 23.45344777 0.00392798 0.00202195 -0.00436839
O 15.00476742 7.51056660 15.58448968 -0.00237697 0.00341400 0.00208060
O 10.73377944 11.51293168 15.31277605 -0.00112509 0.00373113 0.00517931
O 14.71236952 7.53235500 23.89876183 -0.00906161 -0.00609860 -0.00665666
O 14.37494995 1.05483841 25.56278252 0.00035498 0.00018683 0.00744666
O 10.36601614 5.48072550 1.03703493 -0.00421808 -0.00218479 -0.00000493
O 14.81358969 15.96926313 6.30652691 -0.00237368 -0.00162017 -0.00674548
O 10.87143577 16.39665012 14.95382179 0.00243302 0.00185939 0.00248478
O 10.47766155 23.30290496 1.14211461 0.00373591 0.00225163 -0.00227245
O 15.21508572 22.19634290 9.61957553 -0.00054749 -0.00266273 0.00274911
O 11.18418871 22.45052663 9.47151481 -0.00219433 -0.00730908 -0.00189488
O 13.97760601 21.85894263 1.51407430 0.00415393 0.00522500 0.00276695
O 15.73147338 15.78329097 14.70565964 -0.00708502 -0.00421494 0.00104954
O 9.86963203 16.75867214 6.66686142 0.00077558 -0.00029084 -0.00298209
O 15.40198997 14.22456696 16.73324714 -0.00238598 0.00016176 0.00422816
O 10.75050888 17.86473252 8.83114142 -0.00523008 0.00040456 -0.00146608
O 10.58877446 24.16380372 7.39263362 -0.00452288 -0.00289678 -0.00819341
O 14.59389108 20.70439640 32.19519169 0.00213405 -0.00132821 0.00050726
O 10.30370599 24.59354182 31.82496273 0.00219220 -0.00187741 -0.00294727
O 14.84226471 20.74317020 7.58352619 -0.00377114 0.00002378 -0.00025796
O 14.44453717 14.28708402 8.53489895 -0.00002959 0.00147990 0.00516887
O 10.89321129 17.87943921 17.26841888 0.00193424 -0.00529432 0.00031533
O 14.60203041 15.93005664 22.89041687 -0.00216390 -0.00742851 0.00489504
O 11.14884718 16.91880906 31.78191201 -0.00241845 -0.00457828 -0.00745932
O 10.35430793 22.67340188 17.83441401 0.00072016 0.00090839 0.00425439
O 15.24345156 21.92388262 26.04029075 -0.00886073 0.00580248 0.00076456
O 10.76735976 22.40927700 25.97107231 0.00408603 0.00496647 -0.00317412
O 14.98620760 21.77371667 17.93346980 -0.00427724 0.00151583 -0.00126376
O 14.94647402 15.85893827 31.20176774 -0.00032732 0.00304141 0.00101424
O 10.14042036 16.66949544 23.57700084 -0.00239584 -0.00071160 -0.00211068
O 15.10566394 14.16941873 0.14659953 -0.00295084 0.00414440 0.00038706
O 11.03749477 18.35030771 25.62406125 -0.00198995 -0.00536934 0.00080897
O 10.29965841 24.23349187 24.07588896 0.00358841 -0.00193733 -0.00754293
O 15.27316066 20.10808015 15.80070572 -0.00038605 -0.00004451 -0.00286531
O 10.61270991 24.00591453 15.58830125 0.00293508 0.00798041 -0.00551980
O 14.64249706 20.33901419 24.18004702 0.00472686 -0.00264104 0.00030878
O 14.47080848 14.17626630 24.99374107 0.00348901 0.00066745 -0.00041876
O 10.24252143 18.22951993 0.82929017 -0.00098078 0.00138485 -0.00321414
O 22.85720687 2.41989816 7.45762071 -0.00321217 0.00187798 -0.00023780
O 19.62305207 3.75820734 15.27860604 0.00042068 0.00262948 0.00115008
O 18.33993883 10.95481559 1.08637840 0.00035809 0.00002719 0.00062918
O 24.33419103 9.13595082 9.56971992 -0.00004560 0.00166531 0.00107230
O 19.49976514 10.13228760 9.13004478 -0.00415400 0.00126312 0.00176366
O 22.58462041 9.62201451 1.28993808 -0.00050585 -0.00321037 -0.00037511
O 24.29327366 2.42934805 15.57519986 -0.00901366 0.00090811 -0.00062106
O 18.97449969 3.58163768 6.89425459 0.00184129 0.00451187 0.00288758
O 23.25809795 1.19694268 17.59873023 0.00034189 -0.00077591 0.00380752
O 18.93548934 5.01939368 9.02188092 -0.00288240 -0.00225097 -0.00063166
O 18.79995863 11.69746681 7.27083302 0.00039520 -0.00375142 0.00094010
O 22.86579266 7.84211469 32.32164555 0.00174880 -0.00600504 0.00144599
O 19.09467474 11.92406382 31.52341605 -0.00098603 -0.00194047 0.00316588
O 23.66595439 7.85326654 7.39916470 0.00599410 0.00032318 -0.00336887
O 23.56027276 1.16844465 9.53047747 0.00078800 0.00532261 -0.00321443
O 19.28025546 5.08251028 17.36445306 -0.00044113 -0.00099399 0.00239982
O 22.39178335 2.34763258 23.64406396 0.00090083 -0.00293823 -0.00182631
O 19.62618582 3.73454831 31.89387913 -0.00583326 -0.00216535 -0.00939975
O 18.71992662 9.87942578 17.51281443 0.00033563 -0.00274103 -0.00111932
O 24.15932941 8.82510182 26.07723075 -0.00309683 -0.00149945 -0.00043884
O 19.68151779 10.21073797 25.60771847 0.00377865 0.00124316 -0.00411661
O 22.88971959 9.06578924 17.78136621 0.00029219 -0.00408980 0.00072113
O 24.10378446 2.79033971 32.00477586 -0.00210531 -0.00627695 -0.00013332
O 18.82990430 3.31802396 23.64741697 0.00934538 0.00103768 0.00614244
O 23.15618563 1.32359826 1.23208935 -0.00356398 -0.00047547 -0.00218192
O 18.69045456 4.93781120 25.56702941 0.00113113 0.00060551 0.00315332
O 18.97932495 11.57420006 23.65577682 -0.00089154 -0.00293072 -0.00491494
O 22.80107213 7.62015671 15.41522663 0.00327282 0.00104727 -0.00222459
O 18.90625295 11.34001457 15.43104859 0.00244289 0.00547707 0.00820379
O 23.26714613 7.44342042 24.10029294 0.00192193 0.00171639 0.00407159
O 23.23077782 1.20818812 25.96452852 0.00440416 -0.00369487 -0.00286300
O 19.10035869 5.29401760 0.76718069 0.00438909 -0.00096254 -0.00130374
O 23.02621176 15.50272840 6.55819735 -0.00315173 -0.00087109 -0.00288345
O 19.93746648 16.48729700 15.27630735 -0.00229542 -0.00560969 -0.00316403
O 18.90737174 22.66433383 1.55172438 -0.00279708 0.00964100 0.00866805
O 24.00873053 21.94750609 9.79055803 0.00653037 -0.00169199 -0.00293808
O 19.29081367 22.72205621 9.78945775 -0.00180850 -0.00917623 -0.00150420
O 22.76588321 21.32222872 1.37138690 0.00433954 -0.00069556 -0.00670424
O 23.95553460 15.69819645 14.85161438 -0.00422660 0.00054550 -0.00005086
O 18.56642798 16.76870255 7.09822373 0.00266804 0.00619590 0.00127681
O 23.75895307 14.30440993 17.08360201 0.00580676 -0.00262031 0.00325755
O 19.19099452 18.08122426 9.03976668 -0.00861633 -0.00519559 -0.00065010
O 19.24930265 24.48236888 7.71453898 -0.00127522 0.00263364 -0.01031189
O 23.72449863 20.08893655 32.31507663 -0.00268923 -0.00032279 0.00695125
O 18.97402803 24.29321514 32.64448847 0.00020859 -0.00350254 -0.00046335
O 23.81919520 20.38524604 7.76734406 -0.00010171 -0.00012589 0.00098005
O 23.06440639 13.81395451 8.67181246 0.00353263 -0.00428850 0.00540005
O 19.20228803 17.99772172 17.33567764 0.00111363 0.00335333 0.00005778
O 22.60195229 15.72119334 23.16593357 -0.00261975 0.00069769 -0.00549929
O 19.42392658 16.87793957 31.61129380 -0.00259331 0.00224452 0.00071011
O 18.80815410 22.79133432 17.89389533 -0.00218954 0.00357019 0.00259275
O 23.65085468 21.81972354 26.19160983 -0.00270130 0.00129330 -0.00543533
O 19.38703279 22.85524299 26.16857279 0.00435097 0.00716783 0.00791150
O 22.92358779 21.78174070 17.92758681 -0.00122550 0.00727407 0.00008711
O 23.56769801 15.75425556 31.29024438 -0.00362476 0.00314251 0.00564370
O 18.41037055 16.43190589 23.43375420 0.00295127 0.00404307 0.00286994
O 23.65797400 14.17691374 0.41657810 -0.00128696 -0.00702349 -0.00298332
O 19.08053529 17.92224740 25.41426767 -0.01041842 -0.00253299 -0.00365468
O 18.77108386 24.20286479 24.00169013 -0.00041480 0.00007325 0.00024091
O 23.61301529 20.35592562 15.99205565 0.00875302 -0.00265151 0.00018995
O 19.75983736 24.63145850 15.88585920 -0.00001635 -0.00130689 -0.00441030
O 23.13191499 20.32255194 24.11914355 0.00085856 0.00381033 0.00211061
O 23.18460413 14.15670251 25.23755829 0.00122688 0.00576005 0.00918092
O 18.96702544 18.05376994 0.91975411 0.00212370 0.00906138 -0.00235029
N 7.47086067 13.05803396 2.03362218 0.00441832 -0.00336291 0.00052077
N 1.26312191 6.27035710 10.78872003 0.00463748 0.00322304 0.00111666
N 3.57686782 25.35349804 5.87587327 -0.00257214 -0.00265757 0.00219664
N 5.12732346 6.74845092 14.20002899 0.00413502 0.00176089 0.00196522
N 1.06698465 25.32654733 14.37866654 -0.00010401 -0.00123559 -0.00075734
N 7.74322454 6.49686302 5.75721689 -0.00260750 -0.00361026 0.00006037
N 5.25818754 13.18256408 10.09544285 -0.00491075 -0.00209865 0.00344775
N 2.99721821 6.55824597 2.12892491 0.01039465 0.00715373 -0.00034469
N 7.62231161 12.58174395 18.19283628 -0.00239836 -0.00339000 0.00217540
N 0.99876037 6.36111762 27.19932154 0.00094155 0.00562147 -0.00537009
N 3.11723201 25.53791702 22.56577138 -0.00490677 0.00490834 0.00327669
N 4.70894018 6.48961122 30.55523152 -0.00605667 0.00015968 -0.00274058
N 0.98684496 0.14274201 30.82336482 -0.00187979 0.00568260 0.00158631
N 7.23242777 5.96431776 22.54993269 -0.00086506 0.00381620 0.00148425
N 5.02147715 13.13484526 26.72345548 0.00318362 0.00558929 -0.00631369
N 3.15659489 5.94498979 18.91460525 0.00058843 -0.00731842 0.00619813
N 7.57196115 0.17978437 2.40824461 -0.00020249 -0.00187478 -0.00970883
N 1.18084265 18.97763342 10.97805850 -0.00584886 -0.00139254 0.00422560
N 3.57840984 12.60489819 5.44634717 0.00064686 -0.00157310 0.00653312
N 5.06062609 19.08970807 14.07232166 -0.00509955 -0.00214634 -0.00049641
N 0.89753529 12.31752596 13.98093235 0.00115748 0.00278788 0.00294437
N 7.67752586 19.27771661 5.90831146 0.00409324 -0.00162319 0.00244678
N 5.40108721 25.38825146 10.86889683 0.00805552 0.00475881 0.00153532
N 3.47117099 18.88376187 2.69966838 -0.00157239 -0.00199432 -0.00622841
N 7.52838294 0.01640228 18.94766292 -0.00286476 -0.00667892 0.00361317
N 1.02992486 19.00905247 27.24201913 -0.00700940 0.00005773 -0.00537713
N 3.41446370 12.45006240 21.96094683 -0.00178438 -0.00228633 0.00410842
N 5.36338165 19.09050389 31.02000214 0.00509736 0.00230321 -0.00275088
N 0.95051140 12.94525042 30.00971559 0.00060191 -0.00212122 -0.00297340
N 7.14634768 18.96695119 22.44419499 -0.00274133 0.00312960 -0.00148887
N 5.18955686 0.09781091 27.40187985 0.00462251 0.00269240 -0.00667437
N 3.63029254 18.77761283 19.23932032 0.00196414 -0.00462039 0.00176761
N 15.87425772 12.79551737 1.81684431 0.00303274 -0.00099820 -0.00758117
N 9.43479104 6.39540371 10.59738240 -0.00440755 0.00975457 -0.00119648
N 11.85899234 25.48740400 6.10652119 0.00380066 0.00114629 -0.00020379
N 13.71155577 6.52875157 13.94271133 0.00866453 -0.00317107 -0.00480449
N 9.76747944 25.38405401 13.96008919 0.00128927 -0.00006961 -0.00051054
N 16.04070097 6.59435847 5.86804454 -0.00698952 -0.00152563 0.00053056
N 13.56446278 13.19101932 10.32623333 0.00083568 0.00491620 -0.00090209
N 11.93231313 6.28739396 2.45410006 -0.00427077 0.00399661 -0.00092737
N 15.73648149 12.75730068 18.45866749 0.00206790 -0.00214071 0.00208438
N 9.22506352 6.47117599 27.07890919 0.00502945 0.00053899 0.00125757
N 11.56548377 25.27386527 22.51894589 0.00685574 -0.00010381 -0.00417867
N 13.92756585 6.42072898 30.64583697 -0.00045231 0.00595556 -0.00177639
N 9.09478391 0.03549047 30.22667209 -0.00418687 0.00723300 0.00829391
N 15.95558952 6.46259521 22.27143471 -0.00477282 -0.00419042 0.00119339
N 13.64922128 12.89068089 26.73299253 -0.00021376 -0.00118749 -0.00071773
N 11.83534207 6.31647741 18.99497359 -0.00017859 0.00122829 -0.00561470
N 16.11422747 25.53310211 2.71772120 0.00064147 0.00035982 -0.00255765
N 9.75794103 19.25273559 10.39404038 -0.00137781 -0.00113774 -0.00395362
N 11.91382554 12.55199221 5.36762319 0.00252892 -0.00637436 -0.00630738
N 14.11066641 18.93070759 14.15129948 0.00651269 -0.00184177 0.00015712
N 9.56086321 12.72409641 13.71053658 0.00538223 -0.00068357 -0.00078729
N 15.80941995 19.34424125 5.97533909 0.00088414 -0.00190355 0.00611124
N 13.73957179 0.14140955 10.88108686 0.00052014 -0.00313919 -0.00059912
N 11.85273311 19.03334312 2.24367934 0.00271383 0.00024142 0.00521264
N 16.04928495 0.05744686 19.12975543 0.00122648 -0.00048633 0.00269334
N 9.47723585 19.32162098 27.04009898 -0.00133019 -0.00078671 0.00299860
N 11.74063155 12.62492882 21.88130639 0.00517999 -0.00107643 0.00428582
N 13.75529751 19.33162957 30.64290074 0.00743320 -0.00307668 -0.00035877
N 9.37821310 12.82050956 30.06602027 -0.00089716 0.00369508 -0.00343410
N 15.86073690 19.06891781 22.65755535 0.00046841 0.00568239 -0.00007067
N 13.34244780 0.06064277 27.37216471 -0.00131520 -0.00393732 0.00836636
N 11.90145863 19.10549043 18.91414330 0.00040403 0.00175544 -0.00300360
N 24.37375375 12.71010983 2.05670969 -0.00239388 -0.00266164 -0.00565906
N 17.80967606 6.19813485 10.61026294 0.00334268 -0.00176484 -0.00575028
N 20.52720488 25.46860912 6.14202161 -0.00290827 -0.00247771 0.00263893
N 22.04248422 6.30060676 13.73550555 0.00273884 -0.00152244 -0.00595319
N 18.15258005 25.39245861 14.42498025 0.00033679 -0.00069063 0.00147847
N 24.49495899 6.71463980 5.61476154 0.00618356 -0.00317680 0.00079783
N 22.41661527 12.50167483 10.53804214 -0.00030311 -0.00638596 0.00157795
N 20.02189069 6.61796116 2.44742913 -0.00624962 0.00256492 -0.01084382
N 24.64635295 13.02049788 18.74020219 0.00937064 -0.00400105 0.00426218
N 17.70003882 6.16718102 27.23027855 -0.00089353 0.00196507 0.00643080
N 20.00335192 25.42489487 22.61056320 -0.00025368 -0.00700204 -0.00160645
N 21.83133215 6.76156762 30.60073111 -0.00738915 0.00266326 -0.00319927
N 17.88887857 25.33194351 30.92809970 0.01167408 -0.00142099 0.00457158
N 24.26879336 6.18980343 22.33089611 0.00504736 -0.00762637 -0.00157987
N 22.35439300 12.83153282 26.81910910 0.00104346 0.00434741 -0.00191014
N 19.98968236 6.40355849 19.11854672 -0.00444936 0.00165816 0.00790285
N 24.62720173 0.28679362 2.72184316 -0.00300355 0.00550780 -0.01208653
N 18.52264844 19.32215820 10.80902145 0.00744688 0.00639774 -0.00239829
N 20.25935110 12.77574041 5.85053197 -0.00583895 -0.00647400 -0.00045835
N 22.43857642 19.27815978 14.36827152 -0.00237138 -0.00278117 -0.00061742
N 18.07666814 12.80048908 13.84834376 -0.00684066 -0.00096085 -0.00475131
N 24.87495346 19.17885612 6.04691184 -0.00010143 -0.00459927 0.00440056
N 22.07723666 0.28744266 10.99310714 -0.00036423 0.00515572 -0.00645183
N 20.24052601 19.22085107 2.47698883 -0.00107150 -0.00079716 0.00176206
N 24.55833229 0.12556226 19.10590391 -0.00074534 -0.00123541 -0.00256991
N 18.07552753 19.34795454 26.89597137 -0.00025358 -0.00025832 0.00105601
N 20.02376508 12.79140528 22.04391161 0.00385159 -0.00047974 -0.00404424
N 22.14595012 19.14756825 30.84894568 0.00590185 0.00737929 0.00041948
N 17.88450456 12.96727042 29.93796121 -0.00451910 0.00606615 0.00083534
N 24.45423965 19.19468345 22.55737874 0.00211491 -0.00307702 -0.00007432
N 22.00596321 0.21063429 27.58046002 0.00642241 -0.00107588 0.00033541
N 20.19749882 19.27211702 18.93399399 0.00233455 0.00070116 0.00071565
C 7.86495755 0.42899243 4.79828580 0.00417370 -0.00362495 -0.00921828
C 0.95692112 5.95734282 13.03278796 0.00052818 0.00333178 -0.00153491
C 3.39575053 12.47380271 3.05768197 0.01329216 0.00285724 0.00609123
C 5.54796889 6.79769054 11.88988421 -0.00007281 0.00209285 0.00694926
C 1.04244397 12.32921029 11.55196657 -0.00372105 -0.00163661 -0.00164337
C 7.43855708 6.74104822 3.32371115 0.00255977 -0.00207584 -0.00187964
C 5.30214804 0.21960091 13.22602085 -0.00330794 0.00081673 0.00905155
C 3.35732784 6.14617770 4.59039377 -0.00163654 0.00084963 0.00633754
C 7.43619664 1.00101845 5.98564616 -0.00417818 0.00921611 0.00531014
C 1.25528897 5.26203827 14.24156703 0.00134141 -0.00108922 0.00283851
C 2.90986520 11.88640145 1.95021113 -0.00006058 0.00112131 -0.00202458
C 5.90748722 7.40277880 10.70731389 -0.00759671 0.00017352 -0.00711234
C 1.47002956 11.70611387 10.41808180 0.00009068 -0.00183564 0.00674218
C 7.11928984 7.52126212 2.26208536 -0.00085930 -0.00899967 0.00354213
C 5.57905871 1.06251542 14.32586859 0.00991459 -0.00039946 -0.00026799
C 3.12116439 5.45739828 5.79817700 0.00776409 0.00236114 0.00138379
C 6.48229906 2.01633172 6.05976553 0.00072446 -0.00215487 0.00307477
C 1.99242868 4.04803444 14.24160836 -0.00436007 0.00264206 0.00291162
C 2.04692358 10.82904820 2.00998508 0.00760116 -0.00417935 -0.00296865
C 6.56163971 8.62255352 10.77643674 0.00301418 0.00336718 0.00009137
C 2.45476395 10.66358677 10.43975887 -0.00239561 -0.00375416 0.00030764
C 6.40450251 8.75337657 2.47255861 0.00600542 0.00728649 -0.00504625
C 6.46865265 2.19105493 14.15708434 -0.00324814 0.00411200 0.00571320
C 2.17788168 4.36598214 5.78730140 0.00066967 0.00532815 -0.00708842
C 6.08938605 2.60349569 4.84396190 -0.00739683 0.00291084 0.00480385
C 2.46429321 3.57304415 12.99939696 0.00575904 -0.00775201 0.00089525
C 2.04489487 10.10972837 3.24942969 -0.00784294 0.00071665 0.00051720
C 6.82324515 9.29785464 11.97652515 0.00683137 -0.00152993 0.00146970
C 2.73071905 10.08891306 11.71745810 0.00730994 -0.00059991 -0.00058477
C 6.09569220 9.16646092 3.76866184 0.00269114 0.00809805 -0.00234266
C 6.77120824 2.53656696 12.88990349 -0.00080120 -0.00395642 -0.00114277
C 1.81361958 3.85900843 4.51078765 -0.00909103 0.00054220 0.00299272
C 6.51513715 2.08731243 3.61658530 0.00511837 0.00641591 0.00064318
C 2.27201539 4.28373584 11.86595221 -0.00036401 -0.00259507 0.00344789
C 2.61475960 10.62014221 4.37568489 0.00039500 0.00275789 0.00488544
C 6.31051390 8.74455221 13.14205790 0.00089451 -0.00035941 -0.00256946
C 2.12181759 10.55010309 12.85030572 -0.00036060 0.00231681 0.00315958
C 6.49025123 8.43116907 4.84055297 -0.00485963 -0.00471754 -0.00006983
C 6.27726925 1.80642376 11.80752547 -0.00619638 -0.00210825 0.00311260
C 2.09242818 4.53685959 3.36095039 0.01506085 0.00042419 0.00159110
C 7.30623564 0.87233285 3.57926577 0.01133502 0.00354465 0.00722173
C 1.50205848 5.51905050 11.87042205 0.00136279 0.00026104 0.00409170
C 3.20363593 11.90157249 4.29639383 -0.00027661 -0.00398919 -0.00373612
C 5.68041261 7.44113640 13.11690345 -0.00164152 0.00372235 -0.00189901
C 1.34557304 11.75038631 12.79159767 -0.00443382 -0.00226761 -0.00000778
C 7.20492882 7.23626815 4.65870007 -0.00285773 0.00140649 -0.00306658
C 5.69662453 0.59959375 11.97052484 0.01289866 -0.00656445 -0.00181846
C 2.83289624 5.75173317 3.40184493 -0.00821738 0.00161637 0.00354921
C 6.86335196 0.35404781 1.20066178 0.00630239 0.00939779 0.00761493
C 1.74737795 6.18125805 9.55722807 0.00441018 -0.00057135 0.00763205
C 3.00535636 12.44752373 6.68959078 -0.01087552 -0.00439137 -0.00715411
C 5.70088396 6.64848107 15.40068683 -0.00239295 -0.00056035 -0.00209764
C 1.81468352 12.57429136 15.02736092 -0.00962573 -0.00225687 0.00264987
C 7.18044935 6.49885431 7.00335113 0.00177827 -0.00526235 -0.00129223
C 5.85171698 0.02452737 9.60277526 0.00454247 0.00154589 -0.00123288
C 2.28244501 6.36885313 0.99778126 -0.00104598 -0.00906608 0.00136541
C 7.17551349 11.71794134 15.91964639 0.00367485 0.00961635 0.00258667
C 1.82764926 7.49798308 8.84796019 0.00151192 -0.00457262 0.00184076
C 2.80492751 0.93911219 7.88915341 0.00299499 -0.00333484 -0.00329000
C 5.51497066 5.60882844 32.68715457 -0.00076355 0.00076768 -0.00644632
C 1.38173450 1.06317083 0.06302672 -0.00448608 -0.00303337 0.00473635
C 7.31349263 5.28043680 7.82554180 0.00909691 0.00637750 0.00089571
C 5.87828398 11.79968224 8.11028718 -0.00084428 0.00385493 -0.00012154
C 2.64354238 7.13889941 16.83890501 0.00236341 -0.00299649 -0.00556481
C 7.57228234 0.17354802 21.34678267 -0.00740720 -0.00315604 0.00739105
C 0.65803420 5.99130748 29.58578054 0.00392483 -0.00424761 -0.00367420
C 3.37109426 12.19359266 19.56415845 0.00347369 -0.00308648 -0.00591116
C 4.98129438 6.61105152 28.24068478 -0.00082694 0.00377144 0.00452327
C 0.98259682 12.47888856 27.67296262 0.00166181 -0.00212620 0.00446877
C 7.47547971 6.38764098 20.13180604 0.00381234 0.00014595 0.00206733
C 5.02541527 0.60692748 29.82516869 -0.00341794 0.00388048 -0.00845188
C 3.13884006 5.87368812 21.31070189 0.00087873 -0.00769399 -0.00272121
C 7.18757563 0.83838969 22.46543632 0.00099866 0.00088096 0.00208572
C 0.91576181 5.37248182 30.75918428 -0.00010819 0.00494055 0.00534404
C 3.00695166 11.53992192 18.40778878 0.00238165 0.00543939 -0.00370011
C 5.49346616 7.18367387 27.06173789 -0.00747827 -0.00202321 0.00299224
C 1.33998630 11.75215471 26.50997767 0.00510330 -0.00469959 0.00037261
C 7.08873836 7.00201036 19.00929424 0.00337054 -0.00381970 -0.00283484
C 5.43752914 1.23232257 30.99501691 -0.00386695 -0.00368508 0.00980276
C 2.85565694 5.30001927 22.52588756 0.00494694 -0.00325088 -0.00221907
C 6.44175924 2.01755481 22.39998401 -0.00453008 0.00247091 -0.00183437
C 1.89040352 4.37392639 30.74123835 -0.00219905 0.00557002 0.00099869
C 2.09577800 10.49415909 18.40651223 -0.00165983 -0.00116816 0.00126770
C 6.24141371 8.35271981 27.05784222 0.00433174 0.00058828 -0.01012059
C 2.07771992 10.55606858 26.66490792 0.00329649 0.00417487 0.00087408
C 6.45957912 8.28038537 19.13025358 -0.00402441 -0.00198931 -0.00116519
C 6.45276221 2.23347068 30.82093642 0.00088924 -0.00005589 -0.00267886
C 2.04060710 4.13527803 22.51113568 -0.00089502 -0.00110058 -0.00330676
C 6.08880663 2.55124451 21.16359947 0.01062408 0.00759167 0.00236795
C 2.30273768 3.80360096 29.50721877 -0.00420910 -0.00388949 0.00290650
C 1.84706616 9.88982209 19.68547137 -0.00142294 0.00537451 0.00228061
C 6.40450341 9.05873896 28.27197955 0.00484383 -0.00650600 0.00693810
C 2.25215815 10.02685890 27.99330191 0.00297129 -0.00037292 0.00234779
C 6.19060853 8.84359076 20.38704256 0.00663305 0.00959509 0.00121706
C 6.75377668 2.77897756 29.58852901 0.00077019 0.00304088 -0.00340843
C 1.54970723 3.63119097 21.25798113 -0.00258016 -0.00220952 -0.00311226
C 6.52882377 1.92334642 20.01534124 -0.00454685 -0.00042093 -0.00417407
C 1.96572027 4.33157978 28.32018987 -0.00158858 0.00487943 -0.01068554
C 2.32195880 10.40283735 20.86707672 -0.00217787 -0.00039570 0.00109750
C 5.85784018 8.54480343 29.44346518 0.00057597 -0.00234707 0.00166612
C 2.04767572 10.80089536 29.11527872 0.00862318 0.00301203 0.00004730
C 6.56248980 8.11340469 21.51770275 -0.00035861 -0.00456808 0.00654762
C 6.26607534 2.07020366 28.37480209 0.00111112 0.00374805 -0.00033795
C 1.97112341 4.14308272 20.10238982 0.01009417 0.00252249 -0.00236501
C 7.15821622 0.70477667 20.13008278 0.00015898 0.00052820 0.00213911
C 1.24192964 5.57095180 28.33133522 -0.00083560 0.00752380 0.00339507
C 3.04436866 11.63241175 20.79748190 -0.00684872 -0.00560543 -0.00395445
C 5.19776811 7.24464548 29.42836168 0.00746364 0.00111073 0.00115693
C 1.32692258 12.06748290 28.96225512 0.00187941 0.00188301 0.00239258
C 7.12957367 6.86864721 21.47852259 -0.00831594 0.00494817 0.00373912
C 5.51070980 0.96558861 28.51064179 -0.00087784 -0.00159698 0.00218408
C 2.87856541 5.24368764 20.09541363 -0.00295917 0.00629826 0.00506956
C 7.08391941 0.22462822 17.67386195 0.00124758 -0.00824889 -0.00103716
C 1.58631878 6.11636515 25.97288791 -0.00464863 -0.00404438 -0.00006143
C 2.70144588 12.39839442 23.10756355 -0.00052059 -0.00181498 -0.00010922
C 5.29567066 6.81112489 31.78131758 0.00236625 -0.00191731 -0.00111228
C 1.41098319 12.84311105 31.26582644 0.00281630 0.00164141 0.00020570
C 6.72829008 6.23162450 23.74662572 0.00710406 0.00178498 0.00408167
C 5.64812017 0.21731770 26.11219657 0.00402724 0.00153523 -0.00818747
C 2.54779905 5.88685176 17.69350466 0.00228969 -0.00558677 0.00176269
C 6.95604969 12.00524681 32.92643988 -0.00141643 0.00416271 0.00114938
C 1.48981513 7.25242702 25.01915335 -0.00787087 0.00590429 -0.00589551
C 2.76692626 0.82979659 24.81301567 -0.00337021 -0.00582200 0.00130861
C 5.47770820 5.34357488 16.10510059 0.00301271 0.00165446 0.00102381
C 1.61755105 0.78014018 16.52901289 0.00042055 -0.00926139 -0.00344584
C 6.68426115 4.99390884 24.69565482 0.00179639 0.00526216 -0.00597184
C 5.76143889 11.63882236 24.83534441 -0.00670581 0.00264691 0.00760132