1920
Time=89000.00000004 pbc="T T T" Lattice="25.53279102 0.00000000 0.00000000 0.00000000 25.77589350 0.00000000 0.00000000 0.00000000 32.76708499" energy=-12251.59254575 virial="-24.39548133 10.25381359 -7.40943362 10.25381359 -23.33634256 -12.94100571 -7.40943362 -12.94100571 -40.77761884" stress="0.00105908 0.00048564 -0.00042452 0.00048564 0.00103263 -0.00051335 -0.00042452 -0.00051335 0.00016092" Properties=species:S:1:pos:R:3:vel:R:3
O 6.10756795 2.84873853 6.75211952 0.00618791 0.00057402 -0.00726411
O 2.30739336 3.20423529 15.15871261 -0.00090922 0.01063800 0.00678040
O 1.90059137 10.22228423 1.25082681 0.00130419 0.00296994 -0.00360292
O 6.43323712 9.19459436 9.45352064 -0.00646141 -0.00131647 -0.00476486
O 2.31676582 9.84597214 9.77647245 -0.00967455 -0.00573091 -0.00713538
O 5.82070539 9.26913477 1.18020866 0.00346528 0.00129152 0.00056617
O 6.84825241 2.73709585 14.87992573 -0.00216934 0.00137800 -0.00264285
O 1.10851177 3.73297747 6.98390808 -0.00344016 0.00395445 0.00159602
O 6.56053236 1.50672688 16.97538810 0.00027333 0.00198028 0.00402477
O 2.23520578 5.04615993 8.89834383 0.00546168 0.00681939 0.00448236
O 2.32044419 11.55119130 7.74042423 -0.00000712 0.00154807 -0.00217808
O 6.39274840 7.48623013 32.01762536 -0.00137517 0.00156902 -0.00500686
O 2.26723092 11.90302039 31.96002737 0.00013659 0.00502981 0.00038935
O 6.56664160 7.72273993 7.25234620 0.00004730 0.00015856 -0.00192772
O 6.40807078 1.22453131 8.80593436 0.00486609 -0.00230429 -0.00298995
O 1.88020315 5.19371817 17.08868297 0.00769233 0.00199019 -0.00210557
O 5.94998848 3.15498926 23.00988015 -0.00204947 0.00474879 -0.00210374
O 2.91676976 3.73994465 31.56790185 0.00032290 0.00174365 0.00676667
O 2.11181571 9.82806977 17.72844009 0.00034442 0.00113159 0.00267684
O 6.92840402 9.39315976 25.79559101 -0.00227676 -0.00285411 -0.00025505
O 2.62717774 10.28901115 25.98173651 0.00078037 0.00410399 -0.00084623
O 6.05417246 8.96242785 17.65060693 0.00943034 -0.00462116 -0.00367597
O 7.25377110 2.25361330 31.14489489 -0.00612847 0.00017050 -0.00120185
O 1.84495805 4.17585620 23.34704066 -0.00172386 0.00697314 0.00166941
O 6.22003790 1.18603934 0.62465014 -0.00326870 0.00481123 0.00214177
O 2.48131589 5.42622709 25.56336650 0.00526338 -0.00307476 -0.00563461
O 2.38725935 11.87471031 23.96708851 -0.00430956 -0.00142327 -0.00177928
O 6.22073700 7.47970991 15.48212415 0.00160612 -0.00307831 0.00004900
O 2.00212164 11.72488195 15.91702140 0.00247371 0.00018270 0.00536173
O 6.55088213 7.79448797 24.02060270 0.00237819 0.00290339 -0.00695660
O 6.14716635 1.48496398 25.07444558 0.00086054 0.00407304 0.00794230
O 2.15645978 5.25040660 0.83846467 0.00166512 0.00006011 0.00323062
O 5.55922898 15.67100546 7.25842337 -0.00365131 0.00405283 0.00243292
O 2.60082351 16.40027642 14.82876323 -0.00565631 -0.00170664 -0.00561559
O 1.94618836 23.29870375 0.94847299 -0.00341937 -0.00022440 -0.00327566
O 7.04491500 21.72333740 9.35844259 0.00196661 0.00327255 -0.00473790
O 2.38600160 22.58233527 9.22040481 -0.00260868 0.00228577 0.00479095
O 5.48123285 21.79950739 1.19676266 0.00444251 0.00335446 0.00446275
O 6.67108412 15.75732573 15.62042852 -0.00290016 -0.00785414 0.00033286
O 1.67939734 16.46936654 6.63220672 -0.00293595 0.00071088 0.00317809
O 6.60307241 14.07731235 17.49036783 0.00154020 0.00317108 -0.00081276
O 1.98599437 17.77429146 8.78268195 0.00542541 0.00829215 0.00285561
O 1.92756196 24.40029741 7.42546713 -0.00263721 -0.00540236 -0.00045429
O 6.32480125 20.94509984 31.77013967 0.00589127 -0.00294850 0.00192610
O 2.02718813 24.75729242 31.47082045 0.00199965 -0.00224160 0.00000678
O 6.29129210 20.51804701 7.19945353 0.00127583 -0.00091515 -0.00009131
O 5.77894142 14.53309977 9.53536813 0.00661880 -0.00003087 -0.00419324
O 2.58024506 17.99212174 16.96023504 -0.00259439 0.00258370 0.00586727
O 5.67598277 15.93078889 23.51077241 -0.00390193 -0.00115440 0.00608380
O 2.46136440 16.60490723 31.32316342 -0.00070364 0.00037419 -0.00435842
O 1.61181684 22.77783304 17.64819190 0.00193406 0.00179130 -0.00650136
O 6.81532623 22.15353901 25.47680260 -0.00161420 0.00120034 0.00041370
O 2.86338411 23.02456361 25.61731023 -0.00072874 -0.00056334 -0.00236286
O 6.01793321 22.32597400 17.39638124 0.00642852 0.00326591 -0.00293099
O 7.20100432 15.53644288 31.62951129 -0.00090095 -0.00491492 -0.00053596
O 1.68641301 16.53644290 23.12239981 0.00657812 0.00564007 0.00037111
O 6.37136340 14.13226871 1.05526573 0.00374517 0.00306660 0.00305577
O 2.45497244 18.13437613 25.04831283 -0.00292794 -0.00170094 0.00054108
O 2.47479137 24.65264888 23.72902147 -0.00545929 0.00446882 0.00389005
O 6.07194565 20.62363172 15.37984240 0.00030099 0.00626915 0.00293472
O 1.60389295 23.84840294 15.43931817 -0.00159807 0.00149697 -0.00196969
O 6.52196368 20.81172313 23.42742260 -0.00592581 -0.00506659 0.00005524
O 6.06229274 14.32882627 25.55185354 0.00087847 -0.00482714 -0.00362315
O 1.90258778 18.22514798 0.54090186 -0.00023060 -0.00361756 0.00707113
O 14.51396981 2.79658018 6.76589502 -0.00083531 0.00231902 -0.00004515
O 11.25099848 4.08179171 14.84318713 0.00274222 0.00541614 0.00468712
O 10.60933323 9.68759761 1.41795113 -0.00634077 0.00171810 -0.00347518
O 15.65488385 9.18254795 9.58775268 -0.00731329 0.00325103 0.00191621
O 10.79213962 9.90737293 9.89284959 -0.00126786 0.00081464 0.00424148
O 13.96060142 9.05166773 1.44107797 0.00036407 0.00496758 -0.00211210
O 15.68288934 2.55361675 15.03365631 -0.00005460 0.00016194 -0.00186122
O 10.30378548 3.52056164 6.81149600 -0.00154219 -0.00589733 -0.00271517
O 14.75470977 0.95053747 17.08124271 -0.00218537 0.00263356 -0.00114954
O 10.16109140 5.31203027 8.67912303 0.00289045 -0.00099684 0.00520182
O 10.80039914 11.43721102 7.60698303 -0.00001606 0.00274888 -0.00030095
O 15.18683845 7.90458993 32.25268458 -0.00070476 -0.00712811 0.00080377
O 10.37265040 11.59829913 32.45920638 -0.00785779 0.00391799 -0.00118759
O 14.97920176 7.67935900 7.45480662 0.00034896 -0.00259040 -0.00887301
O 14.89052825 1.24043567 8.72170860 0.00315980 -0.00194639 0.00196529
O 10.85076040 5.14380181 17.29603805 0.00440634 0.00413016 -0.00169005
O 14.52764401 2.69302274 23.04560419 0.00366355 -0.00429376 0.00568006
O 10.64792704 3.64973559 31.48667888 -0.00065271 -0.00382288 -0.00075097
O 10.21194623 9.94453829 18.11758282 -0.00098862 0.00462006 0.00020441
O 15.39016657 9.14463483 25.91692006 0.00232712 -0.00211532 0.00301659
O 10.94985165 10.25436418 26.30386869 0.00673380 0.00068456 -0.00035632
O 14.45133183 8.93629920 17.91346691 0.00838753 0.00144963 0.00614581
O 15.55309744 3.18122633 31.07606787 0.00132969 -0.00635265 0.00059085
O 10.17924966 3.98534429 23.52235599 0.00859221 0.00146429 -0.00161655
O 15.26053780 1.39900103 0.40373640 -0.00609881 0.00444103 0.00004163
O 11.12756771 5.45350425 25.37846386 0.00198796 -0.00061803 -0.00263477
O 10.63026530 11.76194224 24.27406725 -0.00029755 0.00244663 -0.00050885
O 14.72353807 7.50919861 15.70522101 -0.00454874 0.00182877 -0.00276774
O 10.48840604 11.67346244 15.97645693 0.00892891 0.00332011 -0.00104433
O 14.50885995 7.47047879 23.99052847 0.00424937 0.00228648 -0.00177384
O 14.54042800 1.00078912 25.05084615 -0.00136344 -0.00095703 -0.00543481
O 10.30008853 5.27790687 0.76383244 0.00142918 -0.00148411 -0.00101662
O 14.00452109 15.42195627 7.23426842 -0.00343050 -0.00454682 0.00031915
O 11.43600072 16.36234426 14.75793323 0.00059701 -0.00196368 0.00099283
O 9.57098437 23.32790825 1.24606331 0.00324931 0.00338124 -0.00614458
O 15.25540025 21.96743740 9.16957527 -0.00138106 0.00189017 -0.00036648
O 11.72543964 23.30872114 9.47833667 0.00520251 -0.00498031 -0.00172700
O 14.32765394 21.93495597 0.91893412 0.00591045 -0.00329876 -0.00024646
O 15.34703807 15.41018024 15.77971905 -0.00349902 0.00142282 -0.00384372
O 9.91004336 16.76973668 6.65126576 -0.00169966 0.00553617 -0.00251159
O 14.62940888 13.92178212 17.71013465 0.00465654 0.00178885 0.00482564
O 10.59348390 18.10046780 8.76528380 -0.00496412 -0.00484410 -0.00317248
O 10.79757198 24.43279664 7.17475432 -0.00736833 0.00150146 0.00261485
O 14.83585635 20.27134507 31.79732791 -0.00059625 -0.00450843 0.00306243
O 10.60905539 24.31634106 32.07148179 -0.00000576 -0.00208555 0.00067092
O 14.61014375 20.49915770 7.13045066 0.00707814 0.00188454 -0.00016584
O 14.62557941 14.24736360 9.44432561 -0.00618019 -0.00744324 -0.00320666
O 11.03750490 17.98384742 16.88527995 -0.00513719 0.00402068 -0.00081694
O 14.06028671 15.76297740 23.71428636 -0.00188924 -0.00240632 -0.00282273
O 10.74596368 16.59307216 31.27703226 0.00068839 0.00009284 0.00242906
O 10.11571022 22.80242293 17.67761432 0.00239792 0.00284871 0.00172523
O 15.71693971 22.06172463 25.81954310 -0.00257678 -0.00250474 -0.00038708
O 11.45214904 22.84232690 25.94402655 -0.00254475 0.00286865 -0.00620534
O 14.31709982 22.07382040 17.31055862 -0.00098588 -0.00261890 -0.00308592
O 15.56781450 15.92978338 31.84162750 0.00175293 -0.00069074 0.00940478
O 10.13938592 16.38549714 23.13731028 -0.00330176 0.00136963 0.00279648
O 15.13597931 14.13438162 1.06353366 -0.00631999 -0.00283033 0.00283069
O 10.33842394 18.03849033 25.12350188 -0.00106259 -0.00374194 0.00580752
O 10.83488997 24.32579355 23.82295744 -0.00238705 0.00123307 0.00119198
O 14.90262450 20.69163942 15.33094171 0.00503015 0.00064464 0.00325423
O 10.32539487 24.42718911 15.59047773 -0.00154501 0.00186421 0.00469775
O 15.17245403 20.79856768 23.57728314 0.00463688 -0.00128797 0.00277808
O 14.87142493 14.48010403 25.67378117 -0.00080028 -0.00495464 -0.00296618
O 10.67423487 18.20987408 0.51340228 -0.00076425 -0.00035088 -0.00145502
O 22.88947779 2.98170788 6.66327863 -0.00620160 -0.00008144 -0.00524720
O 20.15238942 3.81269065 15.20179629 0.00101201 0.00284238 -0.00391457
O 18.92019551 10.17761008 1.53759601 -0.00345355 -0.00003282 -0.00092057
O 23.88164668 8.92913718 9.50688857 -0.00351863 -0.00073655 0.00190311
O 20.07517681 9.92997812 9.77803663 0.00108547 0.00308405 -0.00224413
O 23.02348292 9.42186159 1.50087729 -0.00644222 0.00254873 0.00182082
O 24.18353942 2.35330576 15.01330620 -0.00075781 -0.00297496 -0.00005069
O 18.64881955 3.90329953 7.22731467 0.00841793 -0.00049026 -0.00108143
O 23.69144182 0.79459684 16.97336601 -0.00359988 0.00109407 -0.00496240
O 19.52573564 5.30718511 9.24490961 -0.00074025 -0.00063360 0.00114331
O 19.39164232 11.47595834 7.86320232 -0.00689371 -0.00087637 0.00257017
O 23.02872372 7.73944910 32.38562635 0.00307379 -0.00324833 0.00068110
O 19.65326632 12.00042254 32.18333896 0.00652901 -0.00395548 0.00138387
O 23.18384921 7.52146591 7.58705934 -0.00089584 0.00371111 0.00923232
O 23.09090922 1.41213721 8.76457604 -0.00022553 0.01245409 0.00287965
O 19.32939976 5.08011897 17.28273995 -0.00370783 0.00190673 -0.00392858
O 23.07573838 3.12800729 22.88621257 -0.00210963 0.00324096 0.00079797
O 19.48367278 3.65016842 31.50680087 0.00606384 -0.00167772 -0.00080691
O 18.94104009 9.76998903 18.06164248 0.00665060 -0.00057093 -0.00046825
O 24.09706376 9.13101742 26.14691687 -0.00513428 0.00248747 0.00308331
O 19.48812919 10.33226538 26.01556253 0.00645775 -0.00063316 0.00014675
O 23.34304385 9.30871425 17.90893436 -0.00666783 -0.00258009 0.00028309
O 23.66508048 2.96891879 31.08023616 0.00561718 -0.00121884 -0.00168711
O 18.50510253 3.54054943 23.33682684 -0.00064978 -0.00360550 -0.00751605
O 23.95373394 1.52251223 0.53230003 -0.00045338 -0.00332832 0.01110104
O 18.83331723 5.47929963 25.27065440 0.00193469 -0.00093250 0.00183542
O 19.09876164 11.86263904 24.04982475 0.00113358 0.00105107 0.00318706
O 23.41799918 7.58895338 15.83577004 -0.00124605 -0.00972712 -0.00151985
O 18.63561911 11.19743545 15.91537247 -0.00549075 -0.00109777 0.00180627
O 23.54557397 7.71721910 24.03699131 -0.00759570 -0.00221161 0.00021420
O 23.11439725 1.42567413 24.84160248 -0.00237257 -0.00118860 -0.00145088
O 19.30526089 5.08461564 0.98740654 0.00319439 0.00086790 0.00372814
O 22.66691015 15.39076471 6.85377882 0.00378032 -0.00304579 -0.00115641
O 19.37687165 16.16360871 15.05215804 0.00656789 0.00663726 -0.00405920
O 18.80513516 22.99974200 1.25975769 0.00063451 -0.00157179 -0.00262927
O 23.41143242 22.10421958 9.21704291 -0.00068750 0.00641487 0.00260929
O 19.55839835 22.93256608 9.51456001 0.00450147 -0.00338845 -0.00073195
O 22.69069134 22.28886052 0.99435031 -0.00342791 -0.00184423 -0.00693968
O 24.23696323 15.46164582 15.22458649 -0.00164238 -0.00266523 -0.00064983
O 18.62699269 16.14137135 6.80529059 -0.00216050 0.00501766 -0.00267896
O 23.59942262 14.09131815 17.45041677 -0.00422259 -0.00124799 0.00097367
O 18.65802415 17.89277449 8.76671278 0.00135530 0.00578459 0.00206159
O 18.68224210 24.46820442 7.46564467 0.00622974 0.00004174 0.00190788
O 23.52798533 20.59153277 31.98187859 0.00306695 -0.00031624 -0.00200806
O 18.90414412 24.69550288 32.15167305 0.00443968 -0.00568099 -0.00164734
O 22.86861515 20.42644595 7.12334409 -0.00569388 0.00691276 -0.00086175
O 23.46406357 14.08405279 9.03450629 -0.00349930 -0.00019263 0.00473988
O 19.31593663 17.97948410 17.11369811 0.00727288 0.00306457 -0.00177603
O 22.74076967 15.57415152 23.52354740 -0.00376641 0.00263228 0.00061579
O 19.68989432 16.76559236 31.39677583 -0.00465355 -0.00345323 -0.00347516
O 18.67649151 22.96085225 17.63761556 0.00237503 0.01088415 -0.00025702
O 24.15963370 22.14067530 25.91378426 0.00145509 -0.00120141 0.00016234
O 19.70557119 23.25759257 25.88446333 -0.00129271 -0.00857828 0.00699800
O 22.64440632 21.71865778 17.48502590 0.00527565 0.00477736 0.00200600
O 24.14910055 15.47761361 31.40878726 -0.00546392 -0.00112989 0.00223756
O 18.58498538 16.58465407 23.19002986 0.00482897 0.00261458 0.00104794
O 23.40035507 14.18174539 0.66720249 -0.00038913 0.00145450 0.00079815
O 18.79774336 18.35643363 25.16308807 -0.00290029 0.00169604 -0.00371748
O 19.28855714 24.54704445 23.61628520 0.00601311 -0.00588507 -0.00063807
O 23.33298951 20.54229154 15.27404427 0.00010282 -0.00131843 -0.00417785
O 19.06569852 24.53848675 15.74553010 0.00028808 0.00352145 -0.00402907
O 23.57136977 20.67964320 23.68252628 0.00089875 0.00554105 0.00127567
O 23.63025335 14.07773131 25.41748154 0.00585855 0.00244074 -0.00224428
O 19.25271323 18.20201848 0.75959216 -0.00154204 0.00169800 -0.00382615
N 7.49492318 13.10295824 2.71421470 -0.00136963 -0.00379905 -0.00823685
N 1.09431029 6.16989761 10.57673244 -0.00364798 -0.00473782 0.00322092
N 3.25327743 25.54448372 5.84635224 0.00095272 0.00098281 -0.00542882
N 5.10129911 6.22089534 13.85548280 -0.00012294 0.00426833 -0.00145865
N 0.79114882 25.23863055 13.88018527 0.00120778 0.00351311 0.00683292
N 7.46805730 6.37570050 5.62156600 0.00043269 -0.00223816 -0.00491950
N 5.43513182 12.85739901 11.01342435 -0.00440751 -0.00095732 0.00636002
N 3.13857776 6.28717244 2.53979833 0.00542184 0.00482159 -0.00302604
N 8.00238540 13.29645722 19.18435603 -0.00182089 -0.00305315 -0.00395263
N 1.13983391 6.39499191 27.05043690 0.00313812 0.00277426 0.00208310
N 3.43931274 0.00858152 21.88422061 -0.00035092 0.00135337 0.00847036
N 5.32502686 6.41239411 30.26303599 0.00253699 0.00099712 0.00274787
N 0.95718969 0.21102388 29.84683652 0.00014513 -0.00625803 -0.00314923
N 7.56909049 6.57540223 22.35201211 0.00589474 0.00032322 0.00303641
N 5.20227700 13.07064746 27.20147530 0.00295286 0.00557472 0.00486416
N 2.96383975 6.55904471 18.52010003 -0.00219780 0.00474468 -0.00067277
N 7.10497872 25.54914986 2.29712454 -0.00184291 -0.00750173 -0.00119705
N 0.72309194 18.93024626 10.30912891 -0.00496657 0.00803888 0.00154667
N 3.08191224 12.84109866 6.05620209 0.00535057 0.00794304 -0.00549972
N 4.89634697 19.45363329 13.85347896 -0.00030967 -0.00578606 -0.00341438
N 1.14477384 12.97451257 14.21092016 0.00256299 -0.00137274 0.00348544
N 7.92770690 19.67389635 5.69002256 -0.00262390 -0.00053744 0.00024085
N 5.14529148 0.11732316 10.34882509 0.00329797 -0.00654361 -0.00421185
N 3.00134525 19.41344857 2.20922596 -0.00120968 0.00110769 0.00357488
N 7.51553211 0.24125817 18.61235185 -0.00092733 -0.00461997 0.00061693
N 1.21729622 19.28831590 26.61278092 -0.00456869 -0.01176961 0.00247885
N 3.33014351 13.07955250 22.17146253 -0.00425780 0.00183453 -0.00248994
N 5.24568282 19.71428108 30.11596039 0.00059840 0.01146504 0.00595327
N 0.83386851 12.90736163 30.46006150 0.00336844 0.00361046 0.00116540
N 7.46498126 19.37725548 21.93996697 -0.00476634 0.00611576 0.00450988
N 5.47863899 25.69663018 26.51732472 0.00717801 0.00656479 -0.00587566
N 3.13120777 19.38994790 18.70725997 -0.00632460 -0.00127117 0.00015307
N 16.05936998 12.91650634 2.79596250 0.00101159 -0.00136395 0.00122532
N 9.51991455 6.64588360 10.34789269 -0.00282409 0.00116580 -0.00627898
N 11.84165595 25.68266441 5.55165492 0.00099828 0.00064814 -0.00024835
N 13.65377308 6.51060347 13.97778176 -0.01060861 0.00319449 -0.01050884
N 9.51757560 25.68494588 13.79692771 -0.00370442 0.00503249 0.00069959
N 15.96783554 6.52665432 5.82773055 -0.00154826 0.00051184 -0.00121406
N 13.62133850 12.94031930 11.10747614 -0.00578917 -0.00521923 0.00205429
N 11.65885404 6.33822945 2.26182237 -0.00266082 -0.00541192 -0.00411286
N 16.21299014 13.16608528 19.21550240 -0.00782829 0.00486219 -0.00201975
N 9.75219308 6.54548064 26.85932910 -0.00530076 0.00617547 0.00434269
N 11.76243813 25.58401505 22.14761578 0.00521093 -0.00021384 0.00445698
N 13.99303941 6.66472652 30.69618736 -0.00012078 -0.00640197 -0.00207925
N 9.57665965 25.54988014 30.37039014 0.00110892 0.00632035 -0.00025233
N 16.08879211 6.62899315 22.57781711 0.00103650 -0.00511735 -0.00463369
N 13.77013545 13.33526079 27.33321986 0.00298601 -0.00641807 0.00127831
N 11.89809045 6.45774523 18.94939507 -0.00793970 0.00169971 -0.00116020
N 15.88987259 0.00289497 2.23084836 0.00362990 -0.00061097 0.00087381
N 9.29593156 19.17736184 10.38379967 0.00543679 -0.00689474 -0.00163482
N 11.42147531 12.87923254 5.90690772 -0.00776076 0.00547020 0.00064034
N 13.62691429 19.57955814 13.86143888 0.00561267 -0.00136976 0.00056586
N 9.48930675 12.85804832 14.38143322 -0.00633486 0.00197499 -0.00056141
N 16.12356193 19.59665328 5.60507375 -0.00461580 -0.00038284 0.00378815
N 13.69772517 0.20224799 10.40246199 0.00070893 0.00271126 -0.00102330
N 11.72608314 19.38659913 2.25919896 0.00719297 0.00044080 0.00061113
N 16.11159114 25.72845575 18.58463107 0.00131903 -0.00047948 -0.00186758
N 9.64104601 19.44716985 26.73009617 0.00606584 -0.00640883 0.00123208
N 11.61971596 12.96419788 22.49909838 -0.00211601 0.00336004 -0.00444752
N 13.33477816 19.58165805 30.15564731 0.00469798 -0.00307631 -0.00193027
N 9.42516807 12.97178672 30.81741972 -0.00140215 -0.00497965 -0.00137327
N 16.06153166 19.51706324 21.85806601 -0.00075110 0.00183292 0.00733086
N 13.75737403 25.63188648 26.91862638 -0.00207142 -0.00038595 -0.00560652
N 11.80804431 19.11202814 18.68584570 0.00107513 -0.00082889 -0.00083185
N 24.31947580 12.84413133 2.20960798 -0.00064388 -0.00086530 -0.00126398
N 18.12775978 6.27719687 10.83170272 -0.00018287 0.00277758 -0.00330709
N 19.91383069 25.58834730 5.92264453 -0.00340550 -0.00363725 -0.00765354
N 22.72004514 6.15713459 14.18081124 -0.00900500 -0.00450488 0.00880663
N 18.06651885 25.74883319 14.05092611 -0.00026747 0.00402125 0.00171248
N 24.41238422 6.44411572 5.95770381 0.00140344 -0.00761865 -0.00339822
N 22.37954121 12.88775515 10.67771442 0.00370746 -0.00491631 -0.00931830
N 20.28191638 6.39218709 2.55402024 -0.00491731 0.00363712 0.00325766
N 24.77831123 12.97472262 19.05625068 -0.00069782 0.00493761 0.00010076
N 18.12703083 6.70250731 27.12747894 -0.00231531 0.00003699 0.00128177
N 20.54152510 25.56250165 22.06959191 -0.00323133 0.00330972 -0.00303559
N 22.26807522 6.52997987 30.62804467 0.00034019 0.00064451 -0.00717457
N 17.94042339 0.09060033 30.41615632 0.00398159 0.00267869 0.00536396
N 24.40427250 6.32798233 22.44109058 0.00270026 -0.00056926 0.00255211
N 22.30038729 13.02600602 26.86852293 -0.00277207 -0.00204218 0.00538132
N 20.50037747 6.28796896 18.86880340 0.00095305 -0.00178396 0.00224000
N 24.76717681 0.24996078 2.21353272 -0.00282429 0.00181151 -0.00371535
N 17.92477963 19.12871198 10.50500334 -0.00110561 0.00491762 -0.00265417
N 20.14022753 12.90281346 6.19915582 -0.00040176 0.00206158 0.00474389
N 22.19892053 19.29018137 13.77511092 0.00244761 0.00149021 0.00146819
N 17.84808977 12.47159178 14.15380003 0.00114501 0.00294417 -0.00387532
N 24.10813486 19.38375680 5.37128909 -0.00981212 -0.00394750 0.00029325
N 22.22116567 0.06739967 10.42011904 0.00577335 0.00246870 -0.00194418
N 20.31137601 19.07801430 2.49172425 -0.00936261 -0.00072579 0.00390088
N 24.80485249 25.64380957 18.76187939 0.00186177 -0.00540330 -0.01046203
N 18.18886603 19.68444443 26.89106475 0.00109747 0.00332138 -0.00000152
N 20.13150223 13.04216151 22.40032309 0.00179624 -0.00230234 0.00209228
N 22.36594479 19.54727111 30.32679802 0.00364099 -0.00123197 -0.00255063
N 18.21770171 13.00434234 30.72929298 -0.00083647 0.00327342 -0.00078180
N 24.55343062 19.43726799 22.05878558 0.00805775 -0.00693997 -0.00536543
N 22.14541943 0.17488040 26.50773273 0.00459854 -0.00558150 0.00970298
N 20.46294982 19.19263397 18.61315187 -0.00216319 -0.00013885 -0.00409006
C 7.58094452 0.37727355 4.57494956 -0.00693048 -0.00280146 -0.00286356
C 0.95741274 5.75182416 12.93463571 0.01205945 -0.00037808 0.00661560
C 3.29248622 12.66655022 3.58345663 0.00868430 -0.00541081 0.00558131
C 5.03951642 6.55147977 11.51018475 -0.00565707 -0.00455455 0.00340846
C 0.91463756 12.46280472 11.85289080 -0.00003140 -0.00804332 0.00285849
C 7.47151971 6.82380050 3.33138170 0.00760634 -0.00460697 -0.00050461
C 5.09755643 0.38095437 12.74420498 -0.00217000 -0.00507168 -0.00325893
C 3.41952672 5.59707019 4.93672459 0.00194960 -0.00176488 0.00806526
C 7.47629681 1.16366957 5.65627677 0.00088246 0.00158234 0.00421341
C 1.20549750 5.01583337 14.10677446 -0.00079320 -0.00494585 -0.00136930
C 3.01159300 11.96710489 2.42520968 0.00173520 -0.00512766 -0.00449184
C 5.34571289 7.29104717 10.36004807 0.00533791 -0.00321555 -0.00494543
C 1.18921066 11.67899429 10.76654142 -0.00112943 -0.00239335 -0.00323358
C 7.19526835 7.63340705 2.24277079 -0.00235290 -0.00608691 0.00304099
C 5.54023381 0.96992271 13.87108924 0.00192954 0.00470104 -0.00040985
C 2.77225410 5.19440464 6.05205124 0.00228861 0.00607859 -0.00368422
C 6.51345587 2.23678631 5.61772305 0.00042206 0.00668963 -0.00126565
C 1.94342516 3.85850237 14.00078309 0.00066776 -0.00093380 0.00067519
C 2.20001110 10.82811330 2.43057299 0.00415701 -0.00269985 -0.00589622
C 6.10668080 8.46293026 10.52815661 0.00038202 0.00424620 -0.00515998
C 2.03676293 10.53979475 10.88966831 -0.00489635 0.00396925 0.00002392
C 6.32145935 8.69461315 2.32604001 0.00270621 -0.00722327 0.00060118
C 6.31545815 2.16596645 13.82594972 0.00350463 -0.00161492 0.00092826
C 1.80838162 4.13129112 5.93296388 0.00092216 0.00799338 0.00750996
C 6.12279862 2.71635059 4.36307711 0.00865816 -0.00056011 -0.00566379
C 2.35650868 3.38118972 12.70696561 -0.00015218 0.00042550 0.00341831
C 1.86214218 10.23726585 3.66729588 0.00095218 0.00805908 0.00311360
C 6.53096820 8.91749918 11.76735180 0.00022915 -0.00459545 0.00092521
C 2.31353091 10.16802906 12.18629681 -0.01011838 0.00245750 0.00152276
C 6.02285309 9.15816504 3.60537529 -0.00603790 0.00248839 0.00354331
C 6.52426329 2.75067549 12.58077057 -0.00306736 0.00438566 -0.00786518
C 1.58750564 3.65729802 4.64418960 -0.00188660 -0.00672367 -0.00254086
C 6.38128151 1.97776340 3.21222563 -0.00218629 0.00306488 -0.00310486
C 2.07060630 4.08545726 11.54481366 0.00096370 0.00179956 0.00684340
C 2.14655572 10.89443311 4.85989152 -0.00263700 -0.00604844 -0.01124967
C 6.22454611 8.16471959 12.88870085 -0.00229222 -0.00301091 0.00453713
C 2.05343363 10.89665805 13.30968307 -0.00864684 0.00212093 -0.00459517
C 6.45891407 8.45736074 4.70743722 0.00269239 0.00185854 0.00779735
C 6.09652682 2.13650198 11.38960198 -0.00225132 -0.00088081 0.00424050
C 1.97311083 4.34769491 3.52497808 -0.00047669 0.00083243 0.00224775
C 7.06825400 0.72306821 3.34603566 0.00172053 -0.00195320 -0.00224384
C 1.39548804 5.32371844 11.63826706 0.00049115 0.00384293 0.00525182
C 2.82661798 12.12401928 4.85124777 -0.00158280 0.00121947 0.00075246
C 5.44256172 6.97685526 12.78015064 -0.00852807 0.00231936 -0.00231796
C 1.38222883 12.10843185 13.17677474 0.00383841 0.00352715 0.00400162
C 7.16483763 7.18067540 4.59802323 -0.00027745 0.00592901 0.00162389
C 5.46622985 0.86946346 11.50674282 -0.00546643 -0.00800224 -0.00165254
C 2.85991392 5.43252985 3.61522031 -0.00411167 0.00643807 0.00249136
C 6.65260006 0.05655356 1.00541891 -0.00098988 0.00242661 0.00192613
C 1.64532340 6.08224695 9.32843979 0.00249426 -0.00220207 0.00272121
C 2.59303172 12.66684792 7.31145107 0.00054550 0.00162924 0.00001694
C 5.56432422 6.44760262 15.08629182 -0.00315292 0.00583224 0.00092404
C 1.50723886 12.77543629 15.50188568 -0.00311867 -0.00060006 -0.00424780
C 6.96082188 6.62009895 6.91844166 -0.00235931 -0.00454844 -0.00738415
C 5.90421927 0.20594746 9.18422264 -0.00097112 -0.00147545 -0.00311844
C 2.80012221 6.22786911 1.27256941 -0.00327763 0.00208008 0.00260141
C 7.35154896 11.81425949 17.16549041 0.00147251 -0.00538887 -0.00234645
C 1.50472593 7.21345974 8.43124841 0.00093909 -0.00435632 0.00209392
C 2.82978750 0.80643251 7.98245379 -0.00273874 -0.00118262 0.00120890
C 5.90957588 5.12492136 32.26389352 0.00015667 -0.00329337 -0.00199365
C 1.45977173 1.17445055 32.10995661 -0.00702430 -0.00352140 0.00558108
C 6.89462758 5.34928684 7.74336998 -0.00094439 0.00147991 0.00257898
C 6.02469955 12.23412084 8.78796282 -0.00684175 -0.00136572 -0.00326229
C 2.84338915 7.19342311 16.22259131 -0.00355661 0.00353451 0.00334199
C 7.50716274 0.58497152 21.03689737 0.00418136 -0.00554118 0.00439309
C 1.06683635 6.02722100 29.39930169 -0.00347000 -0.00546557 0.00081512
C 3.30014217 12.51806098 19.84005554 0.00263625 -0.00311412 -0.00744454
C 5.34730286 6.85860237 27.84122418 -0.00463648 0.00636472 0.01101488
C 0.93943127 12.69263280 28.14256877 -0.00970201 0.00332592 0.00794567
C 7.77560058 6.73248749 19.99873436 -0.00159738 0.00359514 0.00197876
C 5.12366745 0.36302673 28.85086069 0.00477950 0.00146181 -0.00346226
C 3.26072348 6.33494749 20.88800451 -0.00305977 0.00009709 0.00700068
C 7.16388966 1.31282863 22.12673392 -0.00201113 0.00289983 0.00572368
C 1.42422514 5.29758661 30.49927315 -0.01200269 -0.00889772 0.00369045
C 3.02120206 11.73137844 18.72913743 0.00202967 -0.00595045 -0.00963787
C 5.65591314 7.63567886 26.80676608 0.00234138 0.00225933 0.00806483
C 1.26450880 11.99733453 26.99606078 0.00153389 -0.00384741 0.00566818
C 7.45947593 7.41716612 18.85118283 -0.00597910 -0.00284305 -0.00428418
C 5.60931494 0.92256320 30.04479683 -0.00156885 0.00340399 -0.00233295
C 3.05445347 5.78449001 22.14504815 -0.00494501 -0.00110658 -0.01099947
C 6.39646664 2.47757477 21.93343752 -0.00790370 0.00164966 -0.00382401
C 2.43327883 4.25789889 30.44698855 0.00853840 0.00309689 0.01289514
C 2.34158916 10.54316132 18.84035025 -0.00003545 -0.00026707 0.00409986
C 6.43369714 8.77521169 26.94843927 -0.00383033 0.00082649 -0.00579502
C 2.12232449 10.85970329 27.11603071 -0.00898966 -0.00138850 0.00133586
C 6.66353247 8.54716512 18.76945710 0.00144628 0.00581262 0.00013866
C 6.54602823 1.93641515 30.03624125 -0.00050463 0.00664881 0.00077845
C 2.27857053 4.61477589 22.16263740 -0.00215001 0.00056676 0.00163099
C 6.16683727 2.98402384 20.67055018 0.00231331 0.00266445 0.00485451
C 2.69421299 3.75426662 29.14182543 0.00143768 0.00170624 0.00293851
C 1.92484792 10.20120533 20.18196842 -0.00440021 0.00477083 0.00094768
C 6.78823419 9.18123893 28.25787043 -0.00502861 0.00470888 0.00169838
C 2.29003713 10.24847133 28.38633001 0.00257673 0.00534303 -0.00913092
C 6.23694449 9.14794521 19.99364583 0.00133087 -0.00298965 -0.00039419
C 6.89395036 2.49078294 28.82702907 -0.00271491 -0.00127135 -0.00144517
C 2.03939756 3.88451579 21.01067526 0.00401205 0.00123509 -0.00074539
C 6.49992897 2.27138138 19.54286882 0.00406080 -0.00094321 0.00273826
C 2.15230400 4.36856604 28.05656543 -0.00042509 0.00732336 -0.00019017
C 2.36853123 10.81803130 21.32004810 -0.00048198 -0.00332453 -0.00433879
C 6.48280859 8.41439883 29.37793162 0.00448875 -0.00137010 0.00182746
C 1.88522568 10.92108417 29.52026821 -0.01655614 -0.00568236 -0.00456874
C 6.66079101 8.51078963 21.18002080 0.00386517 -0.00271876 -0.00347500
C 6.45421501 1.97573563 27.63979109 0.00481474 -0.00145139 0.00173061
C 2.37108928 4.43385763 19.76568303 0.00365781 0.00445624 -0.00196651
C 7.20708363 1.06501360 19.70010674 -0.00228062 -0.00596273 0.00225211
C 1.46274098 5.61009435 28.13433253 0.00381362 0.00308843 -0.00247154
C 3.03138360 12.11780074 21.17213574 -0.00245949 -0.00004477 -0.00662885
C 5.74672014 7.22162309 29.18176898 0.00898510 -0.00194169 -0.00075028
C 1.28843827 12.19825187 29.39862299 -0.00144783 0.00004768 -0.00366451
C 7.29951610 7.22569408 21.22400130 -0.00200936 -0.00200103 0.00303560
C 5.74767864 0.73112369 27.67146078 -0.00139115 0.00370585 -0.00351232
C 2.83573617 5.75984650 19.66232169 -0.00402853 -0.00661135 0.00846364
C 7.02300890 0.38463693 17.36351530 -0.00773241 0.01164946 -0.00390990
C 1.65633814 6.30940338 25.80554740 0.00182631 -0.00453472 -0.00255559
C 2.88345263 12.88756083 23.45470322 0.00005658 -0.00121067 -0.00813188
C 5.99478079 6.43811614 31.49993269 0.00411746 0.00525519 0.00036688
C 1.53992310 12.81572603 31.65865163 0.00427870 0.00160643 0.00310650
C 7.05845443 6.72010856 23.62783242 -0.00751534 0.00333233 0.00667027
C 5.80857796 0.32801490 25.30472343 0.00422084 0.00142177 -0.00125222
C 2.53248104 6.22863670 17.31092116 0.00375092 -0.00543256 0.00163734
C 7.16827891 12.01132868 0.58351139 -0.00462696 0.00211162 -0.00144831
C 1.28644662 7.41536027 24.81550135 -0.00036740 0.00107270 0.00578736
C 3.20530049 1.09848941 24.05042149 -0.00411563 -0.00137389 0.00411240
C 5.48854835 5.28888969 16.01011858 -0.00091436 -0.00486576 0.00672542
C 1.48994302 0.41279979 16.01770338 0.00025616 0.00253085 0.00471305
C 7.08844282 5.48509881 24.51881707 0.00262172 0.00209111 0.00056439
C 5.98084275 11.88054696 25.28093045 0.00208605 0.00083152 0.00809214