1920
Time=92000.00000002 pbc="T T T" Lattice="25.46775699 0.00000000 0.00000000 0.00000000 25.55765203 0.00000000 0.00000000 0.00000000 32.99591822" energy=-12250.72251171 virial="-24.24528758 -9.48811829 -3.91425400 -9.48811829 -43.57956175 -4.15134987 -3.91425400 -4.15134987 -78.54025078" stress="0.00105433 -0.00036405 -0.00013321 -0.00036405 0.00006867 -0.00008466 -0.00013321 -0.00008466 -0.00156583" Properties=species:S:1:pos:R:3:vel:R:3
O 6.04251763 2.52363613 7.46969003 0.00450040 -0.00233864 0.00021637
O 1.78791164 3.54578084 15.23744840 0.00277090 0.00548288 0.00260308
O 1.85488765 9.88643118 0.78830613 0.00033577 -0.00149655 -0.00206852
O 7.28125816 8.93372471 9.28488305 -0.00766000 -0.00281388 -0.00780272
O 2.87091694 10.39380100 9.18442848 0.00200173 0.00148978 -0.00185567
O 5.99637498 9.21832575 1.17000246 0.00190795 -0.00150035 -0.00479564
O 6.76681085 2.77654989 15.70445128 0.00248537 0.00369857 -0.00179884
O 2.04197309 3.49422884 7.01511162 -0.00129831 -0.00041395 -0.00253770
O 6.12590545 1.48139875 17.81608946 0.00184421 0.00259190 0.00122194
O 2.11412114 5.23409221 8.91402003 0.00620142 0.00649188 -0.00255238
O 2.05616931 11.51597687 7.05608402 0.00382464 0.00193991 0.00208682
O 6.05650651 7.58891958 32.26119555 0.00260885 -0.00353460 0.00410032
O 1.95612164 11.65876154 31.89946456 -0.00962071 -0.00092347 -0.00095114
O 6.51630221 7.71683106 7.16382762 -0.00382308 0.00424165 -0.00005596
O 6.11115208 1.00960065 9.52485109 -0.00146762 -0.00182002 -0.00005957
O 1.62033766 5.19396515 17.11901739 -0.00684605 0.00542485 0.00368606
O 6.30736830 2.87597472 24.18087267 0.00472728 -0.00452222 -0.00475264
O 2.61287615 3.70971642 31.55012506 0.00186778 -0.00030642 0.00472620
O 1.03053605 10.20351342 17.64446626 0.00211813 0.00159038 0.00190411
O 7.08162830 9.30426316 26.29613625 0.00220411 0.00163296 -0.00351190
O 2.85302338 10.02100882 25.73757312 0.00140632 -0.00041936 -0.00430806
O 4.98269414 8.96568880 17.74972972 -0.00353094 -0.00466725 -0.00011503
O 7.32033408 2.20296516 31.92881532 0.00020098 -0.00036763 0.00019439
O 1.93004323 3.64288425 23.33851500 0.00204166 0.00312027 -0.00407937
O 6.35739514 1.15256456 1.26691653 -0.00041199 0.00146061 -0.00384486
O 1.95354118 5.28794549 25.31574969 0.00000946 0.00138947 -0.00056141
O 2.11866838 11.75725308 23.75730450 0.00288003 -0.00630526 -0.00574226
O 5.75274365 7.78349584 15.45173554 -0.00098138 -0.00199825 0.00609197
O 1.73255597 11.40733148 15.47141232 0.00334937 0.00238269 0.00504409
O 6.74285499 8.07193707 23.87198427 0.00282298 0.00300797 0.00274856
O 6.51127374 1.02274308 25.94159220 -0.00392220 -0.00574122 -0.00230498
O 2.15812663 5.05994105 0.72821328 0.00083967 0.00697611 0.00199699
O 5.90322011 15.51742681 6.38533892 0.00172746 0.00000403 -0.00216999
O 2.32893165 16.68363644 15.23578581 0.00160167 0.00295551 0.00134747
O 1.85354475 22.78230953 1.71716845 -0.00185026 -0.00392746 0.00060916
O 7.02047440 21.24697961 9.64050656 0.00181587 0.00384920 0.00405076
O 2.42396983 22.61880049 9.83546424 0.00445362 -0.00403637 -0.00269815
O 5.28489222 21.46569172 1.26975469 -0.00189859 -0.00196199 -0.00071126
O 6.60750551 15.66119472 14.93253892 -0.00312743 -0.00438966 -0.00600199
O 1.41857358 16.82168135 6.95518924 0.00392049 0.00753587 0.00184644
O 5.90268257 13.98648099 16.82924245 -0.00012556 0.00208913 0.01278442
O 2.21023868 18.25011052 9.00028272 0.01023085 0.00235939 0.00095561
O 2.10497706 24.48497108 8.12432292 -0.00090564 0.00135012 0.00505737
O 6.49497291 20.32171319 32.23782055 -0.00128394 0.00034679 0.00174596
O 2.08580544 24.57454071 32.59184044 0.00178973 -0.00401769 -0.00038519
O 6.36069714 20.36960690 7.42077619 0.00059112 0.00521514 0.00427008
O 6.08608830 13.98293806 8.64724198 -0.00026923 -0.00689221 0.00497085
O 1.98656286 18.07385492 17.45606282 0.00042159 0.00413521 0.00029216
O 6.44418212 15.50063665 23.11772472 -0.00614627 0.00226107 -0.00068220
O 2.46505521 16.70222779 31.89260362 0.00028431 0.00186611 0.00085709
O 1.89214861 23.15479686 18.16603459 -0.00353680 0.00259463 -0.01063477
O 6.79817007 21.97131434 26.17899727 -0.00244909 -0.00647007 -0.01001739
O 2.43419925 22.53107389 26.49422778 0.00043328 -0.00415939 -0.00462061
O 6.04408775 21.75372468 17.86617825 -0.00297125 -0.00175243 0.00138084
O 6.66417852 16.10219606 31.26479534 0.00049785 -0.00140283 0.00499856
O 1.79278135 16.50577683 23.60791959 0.00173407 -0.00371961 -0.00376815
O 6.50517693 14.18519747 0.07764695 -0.00354076 0.00604228 -0.00113435
O 2.54535677 17.74879265 25.56933190 -0.00037377 -0.00482326 -0.00542419
O 2.19735109 24.22698256 24.44850046 -0.00074330 -0.00098184 0.00248817
O 6.40014323 20.16791319 15.79382122 -0.00292750 -0.00294437 -0.00478907
O 2.25072602 24.37214083 15.89961672 -0.00117954 -0.00191661 -0.00558128
O 6.32194298 20.47662993 23.88918980 -0.00154178 0.00638925 0.00194569
O 6.07159652 13.88456305 25.19635359 -0.00396904 0.00237991 -0.00428387
O 1.54028420 18.05694475 0.82873696 0.00250281 0.00504427 0.00226460
O 14.77022545 2.57319430 7.62166803 0.00316369 -0.00367074 -0.00309863
O 10.50086962 3.43890168 15.29292189 -0.00102251 0.00271433 0.00176317
O 9.85159626 10.12425879 0.58561631 0.00045501 -0.00190653 -0.00056355
O 15.77900751 9.15369037 9.90002168 -0.00198776 -0.00360788 0.00466147
O 10.90600758 9.87398277 9.00985481 -0.00005402 -0.00249500 0.00068513
O 14.33286625 9.26924008 1.53888412 -0.00540896 -0.00186144 -0.00345444
O 15.24178160 2.70210247 15.64997548 0.00085412 0.00065703 -0.00484155
O 9.90162819 3.65273982 6.92997173 0.00186400 0.00540230 0.00238803
O 14.72336592 0.96305850 17.67284698 -0.00624704 -0.00107649 -0.00131129
O 10.64044007 4.78036450 9.14308093 0.00187540 0.00248817 -0.00086909
O 11.05224953 11.56153063 6.96110042 0.00109457 0.00376073 0.00522244
O 14.62719105 7.56584263 32.36755837 -0.00624103 -0.00265663 -0.00597462
O 10.63279515 11.26024427 31.37396467 0.00100867 0.00283957 -0.00116481
O 15.26148762 7.58664893 7.73256824 -0.00549188 -0.00099664 0.00021794
O 15.18254326 0.86174002 9.56141259 -0.00312001 0.00373157 -0.00197495
O 11.03928784 4.99990252 17.44616442 0.00364265 0.00139063 0.00356147
O 14.71098543 2.85974705 23.91234088 0.00312891 0.00030544 0.00459367
O 10.62400860 3.62118019 31.84143215 0.00791502 0.00014314 -0.00204234
O 9.59759436 10.18300112 17.21835783 -0.00430757 0.00084927 0.00404219
O 15.50516754 9.40397477 26.26733106 0.00489189 -0.00002627 0.00300930
O 11.63965784 10.23756206 25.32736671 -0.00253798 0.00571516 -0.00107235
O 14.30399362 9.33866733 17.98089898 -0.00347908 -0.00330338 0.00482893
O 15.21334673 2.66420584 32.24087941 -0.00097931 -0.00140755 -0.00048508
O 10.06448006 3.39497243 23.63970397 -0.00092917 -0.00701388 -0.00514846
O 14.76147557 1.22282315 1.40752721 0.00414215 0.00124688 0.00200113
O 10.60542846 5.27829196 25.53307829 0.00000171 -0.00432823 0.00328339
O 11.41541312 11.49095222 23.07526989 0.00308159 0.00138765 0.00546812
O 14.81492424 7.51709183 15.86821660 0.00633426 -0.00557369 -0.00474217
O 10.55583343 11.47034919 15.17569764 -0.00755639 -0.00531159 -0.00075684
O 15.21898078 7.80927499 24.06424015 0.00384336 -0.00027636 0.01202372
O 14.69170696 1.37005289 25.95505927 0.00286375 0.00096242 -0.00102867
O 10.84183863 5.11054426 0.90210707 0.00185443 0.01005208 -0.00439255
O 14.40614748 15.72289731 6.45297218 -0.00070015 0.00001550 0.00164382
O 11.18173281 16.31592350 15.12957986 -0.00166969 -0.00513848 -0.00174444
O 9.97378183 22.94594492 1.85178012 -0.00063776 -0.00015934 -0.00569096
O 14.59894890 21.84825049 9.41400016 -0.00413959 0.00456888 0.00037563
O 10.95862618 23.07205919 9.82362635 -0.00028718 0.00284626 0.00210016
O 14.69574328 21.67232334 1.36916764 0.00389852 -0.00050348 -0.00272430
O 15.39567415 15.33251003 14.96503178 0.00128021 0.00377716 0.00081179
O 9.82230405 16.81899239 7.00659915 -0.00005472 -0.00227061 0.00208117
O 14.38949524 13.92277985 17.05027205 0.00459217 -0.01030873 -0.00509840
O 10.85314560 18.05741728 8.96946062 -0.00144715 -0.00811340 -0.00772803
O 10.24680967 24.50792414 7.90140053 -0.00201932 -0.00234372 -0.00940717
O 15.06619059 19.99599574 32.20131388 0.00544075 0.00000994 -0.00619112
O 10.57257824 24.48032874 32.88422206 -0.00064124 -0.00271337 0.00072150
O 14.36110826 20.15547819 7.67576698 0.00300153 -0.00006599 0.00173875
O 14.37437595 14.17672495 8.50418498 -0.00264063 -0.00186128 -0.00341845
O 10.68451305 17.75246145 17.23491708 -0.00295990 -0.00229894 -0.00268073
O 14.81548984 16.04045812 22.98030196 -0.00338834 -0.00523789 -0.00114566
O 11.01088561 16.59850529 31.67384967 0.00452930 -0.00380506 0.00464746
O 10.09827663 22.60214995 18.33527266 -0.00290348 0.00085462 -0.00171187
O 15.32705732 21.82569181 26.13565012 0.00447884 -0.00272072 0.00241301
O 11.18269174 22.80381276 26.70008082 0.00294449 0.00080252 0.00220802
O 14.31016126 21.49112798 17.67534111 -0.00166009 0.00355881 -0.00407940
O 15.14825915 15.63696862 31.20203629 0.00243531 0.00020358 0.00025977
O 10.20174009 16.78268547 23.55085808 0.00161610 -0.00340140 -0.00578528
O 14.52581745 14.15770796 0.27571746 -0.00808128 0.00322181 -0.00080524
O 10.87554320 18.16351846 25.58393959 -0.00737022 -0.00893538 0.00238275
O 10.86964429 24.28617938 24.58365149 -0.00572789 -0.00055178 0.00055271
O 15.03080721 20.09884799 15.63146770 -0.00837067 -0.00351682 -0.00435307
O 10.28847723 24.12870690 16.11819085 0.00019241 -0.00248907 0.00004427
O 15.36297567 20.43539503 23.94498548 -0.00343598 -0.00482343 0.00468713
O 14.66230224 14.06065029 24.89263529 0.00832690 0.00125091 0.00069422
O 10.45513858 18.03535290 0.76472013 0.00163723 -0.00742121 -0.00225260
O 22.49655118 2.42089646 7.17769405 0.00055670 -0.00460592 0.00205120
O 19.52663093 3.72806286 15.47950783 -0.00189496 -0.00485921 -0.00151347
O 18.29199437 10.45487972 0.87830282 -0.00128030 0.00219960 0.00213298
O 23.67509256 8.87974988 9.34290976 0.00162671 0.00125488 -0.00499008
O 19.71837217 9.84113961 9.31653443 -0.00193857 0.00317706 -0.00018643
O 23.11609589 9.27990450 1.34224886 0.00335634 0.00137092 -0.00145038
O 23.57459475 2.54192213 15.60227997 0.00556750 -0.00731408 -0.00006202
O 18.60964149 3.11527138 6.83777598 -0.00131532 -0.00098179 -0.00022356
O 23.09828366 0.99124907 17.69076180 0.00580927 -0.00126098 0.00316685
O 18.84095186 4.77223658 9.17887088 -0.00640131 -0.00030724 0.00321735
O 19.54735734 11.41642976 7.19448812 0.00456582 -0.00323683 0.00413486
O 23.01404715 7.61808928 32.38963454 -0.00145154 0.00057397 -0.00208514
O 19.02927244 11.78974741 31.69013208 -0.00038987 -0.00042408 -0.00655388
O 23.52979449 7.44484175 7.26024643 -0.00103369 -0.00165997 -0.00260177
O 23.17623132 1.03325670 9.33473671 -0.00151689 0.00050417 -0.00195081
O 18.68202564 5.36572828 17.39949055 -0.00291847 0.00171653 -0.00453745
O 22.47142581 2.57267881 23.68981826 0.00069061 0.00059240 0.00668321
O 19.93026079 4.01280262 31.70592841 0.00286381 -0.00499728 0.00063248
O 18.23880318 10.60419946 17.33659273 0.00165369 0.00192580 0.00009145
O 24.09205299 9.08400661 26.29596753 -0.00496386 -0.00173742 -0.00294981
O 19.69434793 10.15889020 25.60152561 -0.00633907 0.00078391 0.00208828
O 22.55324442 9.28641019 18.14371802 -0.00198478 -0.00057223 -0.00031837
O 24.11840942 2.69523103 32.11553726 0.00180737 -0.00134760 -0.00231899
O 18.67342359 3.39261193 23.50980180 0.00191115 0.00003280 -0.00506458
O 23.26057241 1.39341910 1.11576751 0.00189643 -0.00301279 0.00434870
O 19.08075904 5.09961282 25.72790473 -0.00863459 -0.00316439 0.00020903
O 19.08835298 11.63054094 23.53955013 -0.00138462 -0.00050784 0.00176471
O 23.12743650 7.95576105 15.66425382 0.00350895 0.00125320 -0.00125957
O 19.45043817 11.81882175 15.32474758 -0.00100787 -0.00013305 0.00261021
O 23.76163805 7.55476282 24.18079809 -0.00162227 -0.00179513 -0.00131922
O 23.46395927 1.26285230 25.85904025 0.00006171 0.00488836 0.00035498
O 19.66099957 5.32039088 0.86736852 -0.00104758 -0.00285272 0.00184933
O 22.73008065 15.36967468 6.76809134 -0.00128702 -0.00123483 -0.00526662
O 19.71580108 16.59441494 14.77960593 -0.00768138 0.00425302 -0.00115061
O 18.27444412 22.95481716 1.60101159 -0.00732408 -0.00218837 -0.00307692
O 24.00807695 21.66549164 9.75566525 0.00584837 0.00175912 0.00063662
O 19.52214328 22.61839638 9.79808175 -0.00303119 -0.00356238 -0.00009630
O 22.60388348 21.83329931 1.37979843 0.00520166 0.01077017 0.00187220
O 23.47117856 15.81378029 15.03152662 -0.00443339 0.00062458 -0.00008766
O 18.31867943 16.62789774 6.86545451 -0.00119125 0.00583671 -0.00578664
O 23.27755958 14.02723395 16.87424446 -0.00350944 -0.00114824 0.00060806
O 19.47849060 18.38213731 8.81863404 -0.01352718 0.00321813 -0.00068450
O 19.07443242 23.98542685 7.73028723 -0.00241349 -0.00337420 0.00324546
O 23.62639188 20.33198051 32.31124659 0.00563109 -0.00017880 0.00188525
O 18.93032941 24.34202483 32.56306533 0.00384599 0.00651530 0.00089083
O 23.36320732 20.25440696 7.42217483 -0.00383616 0.00227400 0.00835426
O 23.58217695 14.10343855 8.86147827 0.00423286 -0.00090700 -0.00312130
O 19.19562602 18.00030645 16.98751900 -0.00167721 0.00715510 -0.00290695
O 23.18090352 15.39699199 23.37773195 0.00495332 0.00046621 -0.00120228
O 19.77035916 16.87887611 31.58284424 -0.00263132 0.00956893 0.00537994
O 19.05740577 22.63013521 18.07339455 0.00413933 0.00835896 -0.00025809
O 23.99314472 21.71189045 26.15711225 0.00001869 -0.00431620 0.00574203
O 19.77631085 22.60409630 26.61558789 -0.00203104 -0.00352899 0.00157819
O 22.87954978 21.62991643 17.81788479 0.00532482 0.00192225 -0.00213143
O 23.52651564 15.91236055 31.25162610 0.00039635 0.00498735 -0.00573788
O 19.02478850 16.59427643 23.34477218 -0.00224257 0.00471236 -0.00178426
O 23.48738579 14.10986235 0.35115423 0.00112657 -0.00172085 -0.00109445
O 19.30463373 18.00450825 25.50156339 -0.00625541 0.00268952 -0.00175160
O 19.94681138 23.95836910 24.55500777 -0.00649360 0.00044148 0.00144673
O 23.64462313 20.26250007 15.75699751 -0.00136903 -0.00229247 -0.00316303
O 19.20785278 24.32826042 15.84630968 -0.00156274 -0.00391374 0.00571969
O 23.36379489 20.22231692 23.99172440 -0.00907658 0.00101465 0.00053523
O 23.98771042 13.55704810 25.11191578 -0.00795681 0.00489230 -0.00205775
O 18.95323749 18.07498255 0.68398778 0.00222894 -0.00461942 0.00716829
N 7.42705035 12.93178394 1.66131941 -0.00360958 0.00426092 0.00742950
N 1.01209555 6.43206843 10.58748826 0.00728655 -0.00406554 -0.00056648
N 3.30076255 25.51319169 6.43030362 -0.00086440 -0.00258243 0.00796022
N 4.97638014 6.54772429 13.75240473 -0.00232336 0.00451344 0.00017445
N 0.78493217 25.23926477 14.44781394 0.00115461 -0.00091158 0.00083230
N 7.59199855 6.39212386 5.74718377 0.00598000 -0.00020162 0.00140899
N 5.28651984 12.80182541 10.39966611 0.00197921 -0.00118088 -0.00075000
N 3.34371408 6.24423067 2.31159215 0.00304656 -0.00528384 0.00417464
N 7.42435785 12.94710380 18.18663972 -0.00283418 0.00027322 0.00265037
N 0.82809807 6.39723428 26.95900160 -0.00103354 0.00381842 0.00584877
N 3.15842039 25.54814013 22.86314997 0.00259459 -0.00340677 0.00419393
N 5.32694470 6.23539472 30.48325400 -0.00371022 -0.00256782 0.00590692
N 1.00807172 0.05957487 30.83859141 -0.00037729 -0.00053612 -0.00198062
N 7.67203477 7.00153836 22.06686753 -0.00139225 -0.00158256 -0.00050417
N 5.54352224 12.59238279 27.05441810 -0.00059602 0.00205509 0.00341553
N 2.98938279 6.42342806 18.55956283 -0.00383931 0.00804286 -0.00845921
N 7.34957549 25.36079897 2.79695562 0.00179570 -0.00863698 0.00094597
N 0.91511454 19.30666270 10.49552523 0.00864501 -0.00960743 -0.00330837
N 3.37705570 12.50521427 5.47283483 -0.00240688 0.00218337 0.00280046
N 5.27348475 18.94968590 14.17792376 0.00120727 0.00140678 0.00308054
N 0.63088780 12.59828727 13.78117926 -0.00311020 0.00146240 0.00353714
N 7.63928562 19.38789621 5.77372939 -0.00042990 0.00160829 -0.00230028
N 4.98797061 25.50410911 11.21973411 -0.00297308 -0.00526127 -0.00666790
N 3.08508276 19.11839194 2.23720433 0.00557831 -0.00049168 0.00283239
N 7.39089159 0.30881279 19.38922312 0.00100379 0.00559235 0.00099742
N 1.29055566 18.94833585 27.06853956 -0.00025153 0.00209983 0.00471645
N 3.37865062 12.56732127 22.06218423 0.00126166 0.00054253 0.00099762
N 5.04432402 19.36322449 30.73847833 -0.00133445 -0.00408533 -0.00103461
N 1.20606584 12.97436061 30.20517024 0.00087824 0.00441690 -0.00408066
N 7.50711293 19.19270929 22.41914623 0.00742243 -0.00152435 -0.00416801
N 5.37790029 25.35102321 27.44801092 0.00669448 0.00376344 0.00174474
N 3.36545610 19.09075928 18.95073257 0.00020715 -0.00555854 0.00031372
N 15.88476779 13.06618314 1.81561026 -0.00175398 0.00399748 0.00030322
N 9.42982690 6.08944194 10.53227950 -0.00307183 0.00332093 -0.00193400
N 11.54473474 0.11384977 6.37007175 -0.00097542 -0.00119631 -0.00313496
N 13.56280094 6.43303415 14.32853763 0.00172421 0.00049735 0.00562001
N 9.08185452 25.20742953 14.48896663 0.00088136 0.00426972 -0.00788131
N 16.06936835 6.44025264 5.91526241 0.00217248 -0.00048516 -0.00424700
N 13.97816305 12.71961458 10.16938267 0.00095095 -0.00240256 0.00285515
N 12.00061169 6.27944901 2.55255918 -0.00366011 -0.00707284 -0.00142378
N 15.90623157 12.94638163 18.51249648 -0.00155651 -0.00675493 0.00063987
N 9.37569277 6.41049243 27.19184993 0.00384464 0.00227411 0.00096599
N 11.90491989 25.40253282 22.87661652 -0.00062677 0.00377606 -0.00830576
N 13.64073686 6.62600614 30.59748848 -0.00489502 -0.00255723 0.00080712
N 9.80930928 0.28274935 31.12209246 0.00190831 0.00239979 0.00115866
N 15.97913258 6.42870347 22.41228975 -0.00646405 0.00041394 0.00983392
N 13.96185752 12.71168991 26.66864979 0.00679175 0.00635869 0.00141908
N 11.59814303 6.36022705 19.10737863 -0.00327475 -0.00114492 -0.00124210
N 15.84574339 25.40454713 2.86151148 -0.00081975 -0.00000351 -0.00146398
N 9.82281023 19.25289427 10.68048538 0.00374613 -0.00315950 -0.00256592
N 11.69402090 12.79466518 5.15620834 0.00563900 0.00018711 -0.00348350
N 14.10248196 18.73305947 14.01257493 -0.00518291 -0.00214122 0.00308393
N 9.26751988 12.50509694 13.55861352 -0.00521455 0.00404257 0.00595003
N 15.75552963 19.00078048 6.21071175 -0.00262069 -0.01021556 0.00104834
N 13.45291060 0.35045803 10.89231345 0.00486629 -0.00244552 -0.00226282
N 11.58431604 19.28858019 2.24406015 0.00129401 -0.00055931 -0.00341717
N 16.16801702 0.12199541 19.29042197 -0.00059208 -0.00314209 -0.00098121
N 9.48791882 19.16164156 27.08802511 0.00279892 0.00125834 0.00321390
N 12.05008328 12.87382566 21.34314657 0.00165193 0.00096467 -0.00435104
N 13.90615223 18.89282291 30.65257716 0.00143537 0.00753382 0.01002657
N 9.78407097 12.75988351 29.80691595 -0.00435678 -0.00219816 0.00116328
N 16.36657853 19.33569911 22.34117320 0.00322872 -0.00373896 -0.00153783
N 13.91538216 0.04347073 27.63795850 -0.00231090 -0.01002257 0.00078040
N 11.84103514 18.96944413 18.76152372 -0.00168486 -0.00317443 -0.00096448
N 24.64154408 13.18111875 2.08243653 0.00210707 -0.00487471 0.00074939
N 17.91803083 6.18852753 10.71182850 0.00507755 0.00111755 -0.00183511
N 20.33191992 25.18955294 6.22853015 -0.00126358 -0.00001148 -0.00250656
N 22.12596314 6.61067220 14.12883097 -0.00094645 0.00504115 0.00088594
N 17.94108918 25.41192972 14.27065715 0.00011767 -0.00515262 0.00376105
N 24.67071344 6.27332361 5.74786928 0.00310349 -0.00206842 0.00109485
N 22.36497866 12.99074161 10.46696736 0.00009752 0.00407772 -0.00571262
N 20.40455342 6.37032375 2.78474093 0.00087859 -0.00830233 0.00122672
N 24.15596365 12.75134551 18.63819484 0.00557814 0.00610081 0.00217983
N 17.83491977 6.22354347 27.24385632 -0.00688189 0.00157995 0.00256888
N 20.09345129 25.39328635 22.75837686 0.00522530 -0.00386500 0.00074909
N 21.98396561 6.37950696 30.72040684 -0.00377087 0.00067579 0.00162351
N 17.99264941 0.02172479 30.84501543 -0.01031309 -0.00173431 -0.00290865
N 24.59722044 6.39162551 22.43835078 0.00184678 0.00172105 -0.00609132
N 22.58838795 12.79600039 26.74254951 -0.00406230 -0.00444692 0.00020704
N 20.07313368 6.30811540 18.99866459 0.00125463 0.00320355 0.00393343
N 24.63130898 0.39260763 2.47814729 0.00165560 -0.00309702 -0.00289670
N 18.36769709 19.62254512 10.37855676 -0.00141566 -0.00223187 0.00243953
N 20.41847905 12.81081870 5.48696750 -0.00347986 -0.00278171 -0.00142279
N 22.52587139 18.87675967 14.22432717 0.00526992 0.00031929 -0.00286710
N 17.89384840 12.57944229 13.79494080 -0.00576009 -0.00517494 0.00342499
N 24.40867646 19.05177018 5.76254430 -0.00501822 0.00321345 0.00217866
N 22.16170375 25.34304745 11.04515485 -0.00011269 -0.00669674 0.00283824
N 20.20511600 19.18442501 2.30444651 -0.00523240 -0.00095953 0.00468307
N 24.37323603 25.40710933 19.26695791 0.00343293 0.00175517 -0.00254420
N 18.19157500 19.24128501 27.03875241 0.00276636 0.00219361 0.00253096
N 20.38271715 12.59010322 21.92457355 0.00266416 -0.00191041 0.00159956
N 22.26834147 19.20430844 30.84944517 0.00358448 0.00359270 -0.00206125
N 18.10821569 13.00384836 30.04782614 -0.00139460 0.00090683 -0.00643586
N 24.85230938 19.28712960 22.44008901 0.00044995 0.00017566 -0.00096093
N 22.41375366 0.10656255 27.52763392 -0.00277680 0.00032506 0.00471256
N 20.28760337 19.17208469 18.66903528 0.00391057 -0.00067485 -0.00437477
C 7.51205223 0.04460403 5.17451718 -0.00926824 0.00562312 -0.00392433
C 0.76598427 6.14307385 12.90691007 -0.00076663 -0.00027517 -0.00102251
C 3.38812253 12.41189988 3.05002626 0.00331926 0.00162221 0.00286063
C 5.08487362 6.79907458 11.39520914 0.00203600 0.00206186 0.00498260
C 0.86778189 12.46324467 11.40327840 0.00766766 0.00515637 0.00207057
C 7.63554176 6.64836783 3.24570590 -0.00049388 0.00093511 0.00139754
C 5.05934964 0.45872351 13.52469886 -0.00075436 0.00336575 0.00354719
C 3.48391401 5.83941333 4.67028240 -0.00352509 0.00403333 -0.00177718
C 7.20860068 0.71506041 6.35894181 0.00236798 -0.00276495 -0.00501364
C 0.82609896 5.36156000 14.08046649 -0.00534147 -0.00353714 -0.00629975
C 2.99541302 11.80004485 1.89646245 0.00247458 0.00414533 -0.00090545
C 5.67684918 7.32272977 10.31215058 0.00041500 0.00288361 -0.00174344
C 1.40479378 12.00381993 10.24609400 0.00312577 -0.00135746 -0.00552094
C 7.35309150 7.44927860 2.12645267 -0.00387596 -0.00137216 0.00208754
C 5.39163879 1.12406322 14.69957039 0.00389132 0.00712875 0.00640494
C 3.10025100 5.26720504 5.84895856 -0.00164701 -0.00246693 0.00224284
C 6.44272621 1.89792733 6.32182945 -0.00391642 -0.00053262 0.00051092
C 1.55835175 4.18167007 14.06983301 0.00847145 -0.00541399 -0.00539474
C 2.18187536 10.58562239 1.89171556 -0.00213512 0.00208598 -0.00097159
C 6.53927964 8.50850482 10.38745101 -0.00509592 0.00054322 0.00154965
C 2.23667922 10.85242831 10.31189919 0.00219342 -0.00382682 -0.00253844
C 6.47950137 8.57393728 2.27050447 -0.00117349 0.00184123 -0.00785155
C 6.22308146 2.22999968 14.62117693 -0.00025441 0.00664759 0.00148771
C 2.29531949 4.13302555 5.84090943 -0.00043942 -0.00617509 0.00072769
C 6.15277433 2.46445227 5.10701441 -0.00658637 -0.00032957 0.00474649
C 2.04274501 3.68252119 12.85902492 0.00467026 0.00113952 -0.00540558
C 1.73353657 10.25765108 3.18208824 0.00019854 0.00088190 -0.00466303
C 6.69344244 9.10448453 11.66250957 -0.00570028 0.00067119 -0.00474917
C 2.51972780 10.24974251 11.59028561 0.00121665 0.00414239 0.00578066
C 6.25884036 9.11568383 3.54695305 -0.00372901 0.00158651 0.00766696
C 6.44936016 2.74785795 13.26846527 -0.00118601 -0.00113349 -0.00018513
C 1.95696621 3.58728120 4.59548576 0.00144895 0.01144508 0.00875544
C 6.50318846 1.81359534 3.93655902 -0.00140905 0.00126528 -0.00124890
C 1.90693939 4.41865693 11.67576666 0.00162869 0.00338237 -0.00130331
C 2.22160326 10.76285317 4.39282617 0.00013197 -0.00275802 0.00480670
C 6.17249949 8.47060730 12.80265030 0.01068272 0.00454511 -0.00321394
C 1.97404290 10.78701587 12.73179949 -0.00713353 -0.00551977 0.00198634
C 6.81175857 8.42006417 4.61641983 0.00587730 0.00544486 0.00195957
C 6.06168389 2.12691005 12.09490035 -0.00142464 0.00548564 -0.00446119
C 2.31481588 4.21507551 3.41771158 -0.00500929 -0.00021760 -0.00799776
C 7.11564665 0.54136904 3.93439439 0.00731343 0.00782443 -0.00634169
C 1.28087629 5.68167700 11.69460428 -0.00061817 -0.00060025 -0.00066217
C 2.99876479 11.87770705 4.34224858 -0.00207208 0.00190866 -0.00246377
C 5.45834029 7.26344122 12.73142304 -0.00425859 0.00437668 0.00131908
C 1.20763468 11.97472986 12.67741562 0.00319075 0.00585433 0.00780110
C 7.30903246 7.11741062 4.56106817 0.00120117 0.00583689 0.00913497
C 5.41080492 0.85475026 12.23772094 -0.00777252 0.00144249 0.00199951
C 2.97446155 5.47445057 3.41149007 0.00332826 -0.00605337 -0.01074978
C 6.97588829 0.09274818 1.48315138 -0.00547128 0.00196480 -0.00053264
C 1.60007050 6.27092148 9.32650572 -0.00036266 -0.00666569 0.00060747
C 2.70706535 12.47194590 6.62522379 0.00723446 -0.00220094 -0.00295039
C 5.28674184 6.74856128 15.05732562 -0.00447700 -0.00388449 -0.00094223
C 1.26333331 12.49777177 15.02695954 -0.00122773 -0.00098087 -0.00320084
C 7.10472490 6.65409664 6.94955876 0.00031311 -0.00456098 -0.00756348
C 5.57227360 0.05172867 9.91462794 -0.00229528 -0.00357392 0.00664610
C 2.85002960 6.02435988 1.10873624 -0.00135976 0.00423966 0.00510112
C 6.70727899 11.75509873 16.18719047 0.00139370 -0.00145745 0.01120262
C 1.49367703 7.41211347 8.39856137 -0.00016847 -0.00852344 -0.00196846
C 2.90266640 1.04239977 8.53820010 -0.00184494 0.00734441 -0.00360711
C 5.60469431 5.26797815 32.75052979 0.00396033 -0.00058472 -0.00320840
C 1.47863955 1.28036423 32.87889730 -0.00007484 -0.00179778 -0.01010591
C 7.17436312 5.45852541 7.88461342 -0.00063477 -0.00667881 -0.00278298
C 5.74095866 11.57351156 8.35997633 0.00377075 0.00625523 -0.00201151
C 2.17203991 7.52785090 16.61517904 0.00324991 -0.00411295 -0.00596815
C 7.43458261 0.44745621 21.78333602 0.00511569 0.00129712 -0.00181274
C 0.92963516 6.14691030 29.37872427 -0.00434719 -0.00242262 -0.00287939
C 2.97525129 12.52001510 19.65542862 0.00175844 0.00211828 0.00225700
C 5.15602327 6.93470685 28.21978608 0.00311589 -0.00007950 0.00019687
C 1.00081695 12.34235246 27.83040382 0.00450517 -0.00004462 -0.00363423
C 7.41421142 7.13444190 19.67359345 0.00277990 -0.00137668 -0.00449379
C 5.33601624 0.16395454 29.79005266 0.00040330 0.00223667 -0.00452987
C 3.35274838 6.01424032 20.92731439 -0.00008391 -0.00203928 -0.00080673
C 7.26161014 1.17002387 22.95082955 -0.00748385 -0.00125838 -0.00083105
C 1.48497992 5.51791737 30.50121708 0.00094866 -0.00044950 -0.00630674
C 2.38900728 11.96067946 18.56796845 -0.00422771 0.00596051 0.00312254
C 5.43514103 7.73378245 27.15820984 -0.00192460 -0.00246321 0.00582713
C 1.41342986 11.64161573 26.70624012 -0.00390674 0.00168719 -0.00885628
C 6.80074358 7.72533649 18.59683180 0.00095012 -0.00729012 0.00154400
C 5.63011951 0.84927030 30.92497054 -0.00419327 0.00773478 -0.00425324
C 3.09413981 5.31681538 22.08654975 0.00095802 -0.00746456 -0.00645448
C 6.55896482 2.30745856 22.98076027 -0.00230611 0.00633207 -0.00857305
C 2.18119319 4.28728178 30.39112751 0.00194733 0.00136509 -0.00072874
C 1.67725478 10.70341128 18.69859707 -0.00774496 0.00030279 0.00194338
C 6.43546541 8.71582600 27.34860305 0.00362723 -0.00150306 -0.00099512
C 2.25469762 10.54769993 26.87218677 0.00266412 0.00600513 -0.00611595
C 5.78209490 8.68682467 18.71212309 -0.00350479 0.00366449 -0.00452421
C 6.61995800 1.85999210 30.87054875 -0.00015406 -0.00061483 0.00041362
C 2.24185160 4.20065481 22.13150749 -0.00373075 0.00321427 -0.00008226
C 6.08004654 2.85221817 21.75930761 -0.00076504 -0.00094872 -0.00375819
C 2.39558716 3.75114057 29.11417719 0.00351640 0.00244145 -0.00510242
C 1.70351887 10.04268172 19.95825316 0.00169519 0.00149851 -0.00053200
C 6.76299789 9.15273045 28.62378287 -0.00789036 0.00318123 0.00329569
C 2.56344883 10.13443575 28.17058725 0.00154118 -0.00200817 0.00412925
C 5.72355610 9.37010735 19.98416967 -0.00212627 -0.00613764 0.00119236
C 6.85935244 2.46707035 29.65681860 0.00147654 -0.00700410 -0.00352388
C 1.69833939 3.75821315 20.90521490 0.00453731 0.00541937 0.00062226
C 6.29567307 2.20600636 20.58068058 0.00030206 -0.00392991 -0.00197285
C 1.95370460 4.39836570 27.95531316 0.00015434 0.00269730 0.00313435
C 2.23297894 10.67984919 21.07186292 -0.00203643 -0.00884100 0.00404062
C 6.25655653 8.44341430 29.72222309 -0.00228379 -0.00072389 0.00081906
C 2.02876026 10.75146139 29.27647957 0.00145183 -0.00658445 -0.00686385
C 6.31453078 8.77313374 21.05932153 -0.00038719 -0.00183908 0.00608232
C 6.48164318 1.80113433 28.44620153 -0.00095622 -0.00333988 0.00061974
C 1.94920558 4.42296182 19.69513484 -0.00086214 -0.00067694 0.00232094
C 7.05743669 0.97967765 20.58439345 0.00049715 -0.00482765 -0.00385090
C 1.20037271 5.62497343 28.10651673 0.00198899 0.00105256 -0.00405253
C 2.84489953 11.93057765 20.94406913 -0.00016401 0.01317148 -0.00842746
C 5.60788637 7.19436927 29.50363113 0.00090327 0.00485677 0.00630090
C 1.38510595 12.04504466 29.15364567 -0.00104707 -0.00444945 -0.00352525
C 7.12375581 7.61782641 20.95150259 -0.00062233 -0.00224464 0.00526381
C 5.72448756 0.62613013 28.52405711 0.00539668 0.00522661 0.00175217
C 2.72293956 5.58805709 19.71061664 0.00557820 -0.01181343 0.00579676
C 6.76613362 0.51928225 18.16808971 0.00258849 -0.00267884 -0.00117229
C 1.38119547 6.29444889 25.72346091 0.00333783 0.00183844 -0.00672067
C 2.80528476 12.65881910 23.35933874 0.00740526 0.00281525 0.00615227
C 5.67307754 6.47623628 31.82656557 -0.00218374 0.00333390 0.00292092
C 1.51669790 12.73135533 31.49175823 -0.01205516 0.00789298 -0.00732071
C 7.13383941 7.03840750 23.31464415 0.00154716 -0.00025498 -0.00536465
C 5.76287223 0.04739544 26.20767786 0.00827677 0.00533389 -0.00460127
C 2.26325753 6.22829206 17.42481065 -0.01060242 0.00244945 0.00122752
C 6.93516421 11.96563732 32.49984612 0.00069356 -0.00102283 0.00127421
C 1.42306254 7.56186785 24.89912022 0.00625147 -0.00102910 -0.00543057
C 2.33652757 1.02456663 24.87700829 -0.00259373 0.00599833 -0.00213044
C 5.00717739 5.56168397 16.01452724 -0.00082991 0.00451336 -0.00572489
C 0.96490634 0.69499033 16.63031760 0.00198696 -0.00126848 -0.00772703
C 7.01927058 5.65981729 23.99982031 0.00145527 0.00542713 -0.00630443
C 5.94636354 11.56405608 24.92135980 0.00134113 -0.00248448 0.00370446