1920
Time=2000.00000000 pbc="T T T" Lattice="25.51654232 0.00000000 0.00000000 0.00000000 25.65769024 0.00000000 0.00000000 0.00000000 32.82153784" energy=-12247.25967205 virial="-66.30209322 14.70759242 2.37183757 14.70759242 -75.40343965 7.60444283 2.37183757 7.60444283 -66.40299001" stress="-0.00086635 0.00064336 0.00002544 0.00064336 -0.00143391 0.00040755 0.00002544 0.00040755 -0.00096634" Properties=species:S:1:pos:R:3:vel:R:3
O 5.93661573 3.72470979 6.83875867 0.00369306 -0.00161313 0.00504438
O 3.12915863 3.87984546 15.19054573 -0.00498588 -0.00054707 0.00541651
O 1.56498225 10.35342652 0.68186587 0.00155048 0.00163468 0.00171588
O 6.50541757 9.19655233 9.26372066 -0.00113053 0.00132764 -0.00132484
O 3.19680654 10.39539193 9.31799771 -0.00862667 -0.00434201 -0.00501519
O 5.70247931 9.31655529 1.30914068 0.00297475 -0.00094100 0.00324387
O 6.71425869 3.03232667 14.72175792 -0.00158137 0.00090293 0.00050896
O 1.42037298 3.97596594 7.27612898 0.00654281 -0.00297822 0.00175595
O 6.10393126 1.60994161 17.01307034 0.00400706 -0.00316020 -0.00240192
O 2.10677472 5.51841876 9.26191203 -0.01107040 0.00122408 -0.00358099
O 2.72342585 11.11252446 6.91670981 -0.00387676 -0.00200624 0.00440235
O 5.49263296 7.83190911 32.00331071 -0.00036325 -0.00633888 0.00174849
O 2.09042344 12.06121556 31.79916341 0.00068957 0.00137445 -0.00816505
O 6.05303056 7.59938677 7.39688754 0.00005941 -0.00560598 0.00134405
O 5.84273703 1.63902587 8.37124572 -0.00246230 0.00149437 0.00610768
O 2.33311151 4.97063226 17.43754689 0.00166046 0.00444838 0.00159000
O 6.68193250 2.82983851 23.33165443 0.00195142 0.00020897 -0.00126598
O 2.44588462 3.88749365 31.68680053 0.00466263 0.00648327 -0.00200788
O 1.24287642 10.24655887 17.50515272 0.00303794 0.00345637 -0.00029450
O 7.01030587 8.41184320 25.71345571 -0.00881456 0.00450656 0.00622768
O 3.39807103 9.29856702 26.45860012 -0.00320827 -0.00444496 0.00307270
O 5.57952361 9.61967791 17.57187539 0.00288078 -0.00130103 0.00160669
O 6.55726943 2.93710054 31.52179581 -0.00198100 0.00304736 0.00427707
O 1.76272629 3.24102803 23.33084799 0.01016038 -0.00089892 0.00828923
O 5.68959188 1.29434821 0.93603606 -0.00380282 0.00424003 -0.00193758
O 1.99123290 4.91985193 25.61210842 0.00433637 0.00896862 -0.00480257
O 2.70847177 11.27628459 23.55072067 -0.00384128 -0.00479182 0.00049780
O 6.49378344 8.12924913 15.67892278 0.00022745 0.00358800 0.00268168
O 2.22257924 11.61488413 15.38135319 0.00213777 0.00003696 0.00309018
O 6.31385086 7.62632855 23.41676309 0.00421118 0.00557672 0.00265690
O 7.33726139 0.96798564 25.50521759 0.00237956 0.00473579 -0.00098713
O 1.60638498 4.91728605 0.99563417 -0.00168177 0.00938850 -0.00057013
O 5.60373672 15.68764242 6.63884601 -0.00234395 -0.00312720 -0.00481986
O 2.94562184 16.84891627 15.21970700 0.00020211 -0.00112882 -0.00234926
O 1.49172581 22.49313837 0.34759252 0.00057620 -0.00075371 -0.00231585
O 6.13394295 22.21157325 9.24841607 0.00829397 0.00331749 0.00571523
O 2.06844521 23.28845150 8.59374038 0.00091553 -0.00078163 0.00235277
O 6.23830219 22.00510354 1.28007668 0.00204816 -0.00561701 -0.00075009
O 6.41727943 15.65980020 15.00459837 -0.00395196 0.00418066 -0.00022537
O 2.02948780 16.60401647 6.83737158 0.00505180 -0.00523527 -0.00170215
O 6.33425271 13.95142936 16.87856382 -0.00006188 0.00100729 -0.00039484
O 2.32449251 18.02043770 9.00884220 -0.00971593 0.00061644 0.00254026
O 1.20043792 24.46561337 6.42047908 -0.00424347 -0.00328891 0.00208939
O 7.18369654 20.49201258 32.22967631 0.00667564 0.00245449 0.00324729
O 1.56861326 24.11482795 31.31564541 -0.00063023 -0.00132930 -0.00252032
O 5.21365123 20.60340251 7.32524384 0.00199611 0.00874277 0.00549321
O 6.26203314 14.31098260 8.79499855 0.00297279 0.00569576 -0.00346382
O 2.22541760 18.14043878 17.18969710 -0.00660479 0.00195568 0.00443288
O 5.84440971 14.86796389 23.27569099 -0.00569422 -0.00087593 0.00028664
O 2.56018959 16.39717487 31.62644251 0.00584484 0.00264914 -0.00067426
O 2.04982829 23.61357709 17.22175159 -0.00257071 0.00375718 0.00007466
O 7.29498471 21.18819354 25.80978134 -0.00768949 -0.00194435 -0.00588686
O 3.89726079 22.54476058 25.63095534 0.00218302 0.00025117 0.00186828
O 5.97244351 22.15023147 17.87479992 -0.00006890 -0.00518573 -0.00086541
O 6.97624592 15.53543540 31.17488868 0.00274976 0.00363868 -0.00880749
O 0.99825321 16.71351512 22.99839088 0.00843891 0.00417902 -0.00256925
O 6.12879735 14.29495316 0.41880560 0.00009516 0.00612087 0.00033400
O 1.67586328 17.98692056 25.20022823 0.00588364 0.00257834 0.00323798
O 3.78389857 23.96827533 23.40277500 -0.00097641 0.00143029 -0.00866134
O 6.47525120 20.77786478 15.62576256 -0.00288746 0.00345516 -0.00781208
O 2.10052120 24.90513713 14.90494833 -0.00674331 -0.00382295 0.00916765
O 5.92585422 19.88476044 24.12618301 -0.00263675 0.00039585 0.00750767
O 6.49210963 13.48042201 25.28914046 -0.00227258 -0.00034927 0.00379953
O 2.26006217 17.87192750 0.79952818 0.00665255 0.00497123 -0.00698767
O 14.37983162 2.97353052 7.83870639 0.00655206 -0.00594107 0.00418411
O 11.03427425 3.11447105 14.24870978 0.00358837 0.00331684 0.00387740
O 9.40909149 10.46233085 1.86038878 0.00178024 0.00045610 -0.00693713
O 15.74178943 8.57399840 10.90733116 -0.00064630 0.00372208 0.00011912
O 10.94708146 9.60836486 9.90561876 0.00569864 -0.00703763 0.00129370
O 14.02688561 8.91299173 2.41743022 0.00489631 -0.00061818 -0.00522227
O 15.63988642 3.39768289 15.77841594 -0.00101931 0.00009517 0.00275213
O 11.45953657 3.75482059 5.89533689 -0.00452011 0.00365347 0.00111398
O 15.25138486 1.47841947 18.02244921 -0.01073677 -0.00296734 -0.00502949
O 11.08549037 4.97735615 8.22068707 0.00467076 -0.00360491 -0.00614048
O 11.39576604 11.53974314 7.86122214 0.00016631 -0.00321797 0.00035355
O 14.50926595 7.67080592 32.74763498 0.00506160 -0.00213875 -0.00135035
O 10.55134709 11.62270884 32.61254199 0.00213532 0.00208579 0.00140664
O 14.77912730 7.70396003 8.59725570 0.00141472 -0.00562722 -0.00200013
O 13.81441811 1.49101142 9.82834689 -0.00428091 -0.00287264 0.00527306
O 10.32263122 5.29864807 16.36553713 -0.00205473 -0.00329993 0.00874602
O 13.81432509 2.47742753 24.34608521 0.00088815 0.00331867 -0.00838964
O 10.89023969 2.91408470 30.84275364 -0.00007904 0.00243393 -0.00329462
O 10.49019743 10.23955832 17.80822911 -0.00053012 0.00151725 0.00414517
O 14.50983094 9.47703484 26.39867184 -0.00375138 -0.00042950 0.00198563
O 10.65387175 9.97647362 26.28437925 0.00571960 0.00079085 -0.00060629
O 14.68789740 9.90138884 18.71386850 -0.00133057 0.01223731 -0.00595348
O 15.28320318 2.74783242 32.57237334 0.00458658 0.00501060 -0.00432924
O 10.41797702 4.02231701 22.57950912 -0.00646443 0.01053315 0.00485222
O 15.91163856 1.40191473 1.91776392 0.00839396 -0.00328482 -0.00651765
O 10.90706076 5.22776263 24.90686070 0.00127493 -0.00896902 -0.00279355
O 10.58407392 11.65925559 24.09632474 0.00764401 0.00845802 0.00197449
O 14.61901992 7.71889810 16.92216099 -0.00624437 0.00673938 0.00050432
O 11.28725919 11.46723637 15.82602789 -0.00714339 0.00188592 0.00685627
O 14.90874134 7.50475240 24.53296300 -0.01350235 -0.00813286 0.00297334
O 14.17761507 1.21255702 26.44702290 -0.00676892 -0.00234382 -0.00332694
O 9.22263533 5.41605135 0.33706575 -0.00463525 -0.00395920 -0.00219447
O 15.69557244 15.41987783 6.90936313 -0.00047597 -0.00314514 -0.00598925
O 10.90918255 16.61266918 15.13481352 0.00104064 -0.00405340 0.00052812
O 9.86237689 23.21920447 1.37456232 0.00473381 0.00322757 0.00282197
O 15.17971387 22.02953036 8.68104919 0.00267728 -0.00690609 0.00564992
O 10.94326428 22.98294981 9.43274110 0.00494913 0.00082583 -0.00511558
O 14.81822781 22.48672667 0.44687328 -0.00688748 -0.00121874 0.00383546
O 14.89399269 15.66374741 14.81735697 -0.00987898 0.00500365 -0.00331291
O 9.91737593 16.36595236 7.03271837 0.00890148 0.00090135 -0.00121866
O 14.75346261 14.04296825 16.99308125 0.00689965 0.00229877 0.00024897
O 10.20686390 18.28700544 8.87302041 0.00863290 0.00145068 -0.00148857
O 10.18198648 24.82707619 7.78060081 -0.00100323 0.00159831 0.00544869
O 15.02703355 20.80660590 31.34316949 -0.00189015 0.00465834 0.00050605
O 10.83118303 24.65337676 32.23574296 -0.00115302 0.00533401 0.00188551
O 15.00011324 20.58423067 6.67932192 0.00525602 0.00649546 -0.00413008
O 14.59362236 13.71232012 8.73072016 -0.00531934 0.00116022 -0.00545810
O 10.25134834 18.14837616 17.05225901 0.00518437 -0.00643532 0.00031081
O 14.53141966 15.45603951 23.29728687 0.00166572 0.00207723 -0.00313484
O 10.79439723 16.57823043 31.54767510 0.00256538 -0.00402232 0.00348417
O 9.73596013 22.79119080 17.85688996 0.00136836 -0.00398956 0.00243634
O 16.24845905 22.15062490 25.18978150 0.00539450 -0.00110300 -0.00236937
O 11.55417606 22.51604484 26.51509282 0.00210991 0.00152602 0.00048674
O 14.01875480 22.47405160 16.63128735 0.00174383 0.00167722 -0.00182534
O 14.88869025 15.55369555 31.45151325 0.00104145 0.00056477 0.00076676
O 10.09028205 16.61916597 23.25134063 0.00200317 -0.00655327 -0.00453870
O 14.35456932 13.89146814 0.72934852 0.00236024 -0.00469828 -0.00028812
O 10.90964077 17.83257778 25.21400450 0.00426896 0.00001564 -0.00608851
O 11.17362601 24.04613858 24.31839181 0.00038607 -0.00808924 0.00385198
O 15.71232138 20.47219047 14.69726922 0.00209970 0.00220119 -0.00553207
O 10.83216977 24.04132040 15.72853119 -0.00762426 -0.00373730 0.00782778
O 15.41416532 21.04960662 22.83394849 -0.00224810 -0.00410452 -0.00454504
O 15.09083675 14.21218313 25.25761978 0.00015243 0.00041630 0.00330967
O 10.24606174 18.00880130 0.76513823 0.00485404 0.00033258 -0.00584383
O 22.97604521 3.10202967 7.22556067 0.00182742 0.00314103 0.00650926
O 19.89102222 3.34674789 16.23529252 0.00470578 0.00594407 0.00452124
O 18.13942106 9.91706058 1.43591996 -0.00632730 0.00271246 -0.00001266
O 23.88080803 9.30509609 10.14112871 0.00125846 -0.00733242 -0.00168803
O 18.94718262 10.28764841 9.87455450 0.00169676 -0.00085693 -0.00559841
O 22.55017989 9.28904034 1.76030548 -0.01245393 0.00449038 0.00452355
O 23.76833896 3.29064525 14.81559810 0.00998226 -0.00703492 -0.00858438
O 18.40185449 3.52574840 8.14628943 0.00051210 0.00246350 0.00117117
O 23.88469477 1.52548030 16.71751231 -0.01048578 0.00041713 0.00394322
O 18.93159479 4.77918668 10.04487563 -0.00496176 0.00445283 0.00718263
O 19.39366990 11.58466556 7.71919653 0.00117161 0.00262873 -0.00120258
O 23.37815179 7.64307739 32.80504074 -0.00542645 0.00947726 0.00568501
O 18.28787805 11.24233264 32.11464433 -0.01166961 0.00254089 -0.00143652
O 23.57253486 8.00109843 7.86348711 -0.00240091 -0.00714768 -0.00942919
O 22.81468439 1.18576933 9.04392363 -0.00734170 -0.00505109 0.00231334
O 20.22693433 4.85361529 18.34359629 -0.00159958 0.00144154 0.00891921
O 22.79738873 2.30613149 22.86797183 -0.00324614 0.00281516 0.00498012
O 19.83461821 3.33848204 32.35839781 0.00180308 -0.00054698 -0.00554796
O 19.28650216 10.17882195 17.85539639 -0.00505270 -0.00596131 -0.00848429
O 23.74409982 8.71221670 26.60010758 -0.00792410 -0.00354322 -0.00183006
O 19.65569953 9.92265534 26.18262474 0.00448720 -0.00327101 -0.00071849
O 23.20493944 9.61937868 18.89212418 -0.00464439 -0.00387303 -0.00450670
O 23.46668716 2.51626490 31.81825516 -0.00002243 0.00887720 -0.00754025
O 17.83700342 3.53583800 24.21540685 -0.00092913 -0.00531227 0.00256503
O 22.78894052 0.87723344 1.03258258 0.00519029 0.00579730 -0.00381380
O 18.34633618 5.11312029 26.36941334 -0.00596154 0.00412216 0.00231592
O 18.84214158 11.20870341 24.10180941 -0.00132862 0.00095948 -0.00583177
O 22.98021689 8.02170987 16.69399898 -0.00168754 -0.00152160 0.00323822
O 20.50845210 11.59664568 15.93189769 0.00017895 -0.00464402 0.00318152
O 23.37701327 6.68215943 24.56398302 -0.00091427 0.00272245 0.00214253
O 23.25243381 1.36939431 25.48861242 -0.00668587 -0.00302692 0.00453191
O 19.43876037 4.89354510 1.95682101 0.00473605 0.00198487 -0.00411477
O 23.19047086 15.61371358 6.94908082 -0.00053390 -0.00162948 -0.00670996
O 18.89611889 16.40277027 14.21550261 0.00305542 -0.00063014 0.00666264
O 19.36738811 22.88038761 0.88101719 0.00183025 0.00106749 0.00046079
O 24.15158081 22.21092576 9.00615305 0.00014070 0.00251569 0.00157665
O 18.95099905 22.86357315 8.58824969 0.00469783 0.00679969 -0.00421930
O 22.69261140 21.44965725 1.21721751 0.00681705 -0.00147293 -0.00753436
O 23.72488025 15.82740565 14.60706094 0.00867276 0.00772155 -0.00639569
O 18.46989086 15.32996507 5.79180440 -0.00593910 0.00465168 0.00567239
O 23.42589561 14.42303546 17.05220033 -0.00541490 0.00531158 -0.00284052
O 20.31527355 17.88386193 8.10948756 -0.00328213 -0.00814507 0.00351453
O 19.05716644 24.92717800 6.75866549 -0.00500933 0.00510979 0.00244930
O 23.40129412 20.30844699 31.95888679 0.00018125 -0.00107033 0.00435563
O 18.82837857 24.33911403 31.70190627 -0.00036106 -0.00560807 -0.00139046
O 23.36632188 20.23485013 7.25625011 0.00541368 -0.00415896 -0.00474879
O 23.17288872 13.91705644 8.75670005 -0.00204397 0.00129225 0.00779995
O 18.49047228 18.37450722 16.46988510 0.00137674 -0.00201290 0.00820331
O 23.03003279 15.49517252 23.59487137 -0.00129753 -0.00116854 0.00084840
O 19.12893082 16.05127599 30.57395038 0.00249791 -0.00130580 -0.00147243
O 18.97739876 23.43326597 16.93464973 -0.00205199 0.00356640 -0.00586811
O 24.19124683 21.77716498 25.81609910 -0.00439770 -0.00250090 0.00591056
O 20.19231740 23.51109523 25.53406084 0.00264659 -0.00072768 0.00153002
O 22.57548297 22.41606928 17.35815067 0.00084324 0.00415248 -0.00384193
O 23.36994625 15.52471539 31.55592235 -0.00084982 -0.00382072 -0.00386821
O 19.05533371 15.92102146 22.34761940 -0.00267168 0.00326877 0.00681298
O 22.84073582 13.95573706 0.94220634 -0.00239450 -0.00636729 -0.00450701
O 19.61532606 18.24144886 24.36061957 -0.00187540 -0.00289100 0.00415416
O 19.26392917 24.64114971 23.23150078 0.00151566 -0.00113473 0.00111082
O 23.74168945 20.51989528 15.30948504 -0.00293605 0.00417707 -0.00318629
O 19.77718453 24.39624004 14.81756815 0.00068486 0.00136016 -0.00268664
O 23.59331173 20.54059143 23.66031011 -0.00564385 -0.00254649 0.00154958
O 23.19024580 13.86658741 25.53086718 -0.00060339 0.00172476 0.00653819
O 18.84851726 17.87672318 32.78169312 -0.00325632 -0.00581540 0.00092249
N 7.49009024 13.27177521 1.92522907 -0.00205278 0.00198603 0.00642768
N 1.00436709 6.61721522 10.94536050 -0.00341328 -0.00467990 0.00395933
N 2.60915691 25.30840891 4.80935698 -0.00018521 -0.00156379 -0.00309704
N 5.80380517 6.62668785 14.10869918 -0.00193755 0.00210794 0.00227858
N 1.16326279 0.57396628 13.18461444 -0.00111264 -0.00259860 0.00056190
N 7.45664127 6.65538379 5.94619765 -0.00171286 -0.00851368 0.00211475
N 5.83548273 12.69708651 10.36488332 -0.00274104 0.00062199 0.00786855
N 2.85142865 6.10249922 2.45266897 -0.00281969 -0.00393351 -0.00314280
N 7.47488966 12.76414103 18.47127628 0.00058150 -0.00571223 -0.00186555
N 0.88395840 6.34039374 27.09306269 0.00422633 0.00152513 0.00869477
N 3.80544858 0.08547531 22.00796525 -0.00647781 0.00532131 -0.00071850
N 5.11193584 6.12157534 30.45448324 0.00115826 -0.00929142 -0.00571802
N 0.84140799 25.25443202 29.49206194 -0.00375265 0.00537427 -0.00017101
N 7.79627373 6.83997670 21.89375483 -0.00544995 -0.00701012 0.00182358
N 4.99343007 12.75797194 26.82138135 -0.00363539 0.00556259 -0.00744158
N 3.48038395 6.21900393 18.94689429 0.00740171 0.00285432 -0.00574592
N 7.21359113 0.43113683 2.50494256 -0.00486394 -0.00113123 0.00249354
N 0.91035592 18.93864981 10.60818757 -0.01134314 0.00130699 0.00153407
N 3.30635619 12.67390560 5.28128729 0.00576845 -0.00716327 0.00174792
N 5.34593508 19.59319016 14.02675027 -0.00019738 0.00274747 0.00538225
N 0.94115222 12.61084589 13.77635486 0.00206652 0.00316953 0.00041206
N 6.67742320 19.40401513 6.08553830 -0.00204984 -0.00252371 0.00186470
N 5.37296801 0.21867456 10.08041980 -0.00452830 0.00111548 0.00131590
N 3.41100468 19.26152912 2.16613871 0.00847234 -0.00527309 -0.00156886
N 7.54742215 0.54768039 18.40854581 -0.00002781 -0.00104990 0.00525233
N 1.43076268 19.19763258 27.13951863 -0.00280966 0.00492913 0.00159187
N 3.22191543 12.83846327 21.89790010 -0.00702086 0.00318209 0.00166897
N 5.72218395 19.34940247 30.81432914 0.00014783 -0.00159500 -0.00207774
N 0.61505717 12.54851909 30.04535343 0.00682393 -0.00050929 -0.00055456
N 7.16693381 19.06600293 22.34316244 -0.00658251 0.00710468 0.00335840
N 6.02122107 25.48252752 26.93256066 -0.00293256 0.00515477 0.00079675
N 3.64690809 18.89813883 18.75368934 -0.00485377 0.00082990 0.00000767
N 14.71142886 12.34224618 2.40515119 -0.00733522 0.00480079 0.00381275
N 10.37886399 6.42189171 9.90124468 -0.00576877 0.00431493 -0.00427679
N 11.61521118 25.62403211 6.19068902 -0.00132583 -0.00099359 -0.00095300
N 13.91702900 6.15513219 15.44246313 -0.00679010 0.00286671 -0.00009188
N 9.55458815 25.29397819 14.30827324 0.00100601 -0.00173471 0.00058925
N 15.74337323 6.38485179 7.11420245 -0.00356722 -0.00011597 -0.00604295
N 13.89266220 12.30872073 10.41185087 -0.00003947 0.00200360 -0.00228316
N 9.90969152 7.08504541 1.67564720 0.00286988 -0.00780592 -0.00948474
N 16.19254590 13.22526673 18.60219461 0.00045986 0.00179486 0.00351989
N 9.66876822 6.28544425 26.57339395 -0.00054624 -0.00018929 -0.00216242
N 11.53687850 25.40657208 22.54754425 0.00335105 0.00273953 -0.00017699
N 13.71739863 6.45740343 31.04360432 -0.00061130 0.00780846 -0.00282554
N 9.35726753 25.42677546 30.66701281 -0.00155352 -0.00643585 -0.00665938
N 15.75725880 6.26050765 22.80999129 -0.00145997 0.00568159 0.00307771
N 13.88687943 12.93774667 26.67793238 -0.00289874 0.00393997 -0.00052824
N 11.19283380 6.73678073 17.89606266 -0.00517494 0.00359688 -0.00189870
N 15.94815780 25.50473454 3.61347812 -0.00041749 0.00134640 0.00524624
N 9.18008136 19.32857439 10.66448248 0.00347433 0.00052739 0.00103270
N 11.29881043 13.19440364 6.27745095 0.00640570 -0.00416420 -0.00298609
N 13.89128635 19.72180478 13.52336440 -0.00024453 -0.00322074 -0.00274363
N 10.06485947 12.73282674 14.32565172 0.00073662 -0.00157976 0.00423494
N 16.15507307 19.55885887 4.99248284 -0.00152280 -0.00014274 -0.00322343
N 13.99810896 0.00933683 11.59640027 0.00294045 -0.00025729 0.00510573
N 11.38615293 19.10116616 2.39837088 0.00674804 -0.00518192 -0.00313162
N 15.79825945 0.09048360 19.80456794 -0.00395758 -0.00071558 -0.01099254
N 10.01762993 19.31276474 26.74442947 0.00459917 -0.00266387 -0.00091727
N 11.70909911 12.82961134 22.49282428 0.00215429 -0.00535671 -0.00250825
N 14.01051043 19.66084917 29.61209314 -0.00244673 0.00803408 -0.00480958
N 9.54921204 12.80883816 30.99074090 0.00026192 0.00660586 -0.00292338
N 15.88430142 19.65985031 21.06204847 -0.00480256 -0.00100623 -0.00430159
N 13.76965246 25.44182612 28.16032219 -0.00331142 0.00913603 -0.00282090
N 11.95591669 18.74825029 18.45622489 0.00685223 0.00119382 0.00140988
N 24.26389473 12.76115800 2.23765804 -0.00285157 0.00920195 0.00405760
N 17.92316191 6.02724587 11.67259216 -0.00773747 -0.00681990 -0.00134470
N 20.57160567 0.20443992 5.35815513 -0.00262518 0.00367234 0.00389768
N 22.44731809 6.68174601 14.81470288 0.00038754 0.00050040 0.00894575
N 18.00339191 25.20623546 13.57430186 0.00404960 -0.00939151 0.00021134
N 24.31498160 6.59199636 6.16733772 0.00166303 -0.00331823 -0.00405614
N 22.38638178 12.56688837 10.40313419 -0.00012378 -0.01284590 -0.00098722
N 20.18511128 6.15892204 3.75277734 -0.00056744 -0.00875818 0.00224413
N 24.55540089 13.37826467 18.69148090 -0.01149409 -0.00293098 -0.00205264
N 17.70242859 6.29980336 28.22237096 0.00301594 0.00012966 -0.00402425
N 20.29067480 0.25672598 21.60273934 0.00468774 0.00189462 -0.00574943
N 21.99653618 6.48204236 31.42885971 0.00031512 -0.00045384 0.00499561
N 18.22393287 0.15967203 30.07568945 -0.00721065 -0.00494813 -0.00144125
N 24.64341195 6.08545616 22.84811281 -0.00597201 0.00006048 0.00202961
N 22.52984006 12.41735704 27.17091950 -0.00475956 0.00245218 0.00876260
N 20.66528691 5.96728151 20.32115846 -0.00022502 -0.00348952 0.00955286
N 23.85957876 25.43854232 2.81026981 0.00019229 0.00563640 0.00093453
N 19.29519909 19.45211372 9.46521936 0.00130635 0.00172435 0.00883625
N 20.35143942 12.47500587 5.87945800 -0.00620893 0.00408006 0.00392643
N 22.34657310 19.69051671 13.63559424 0.00076195 -0.00094523 -0.00605828
N 19.25122560 13.10459073 14.66618836 -0.00785700 -0.00191126 0.00057742
N 24.58046693 19.02646668 5.75292068 -0.00092102 0.00147537 -0.00592203
N 22.25321070 25.54241601 10.82549854 0.00068261 0.00778056 0.00316573
N 19.64275746 19.05546188 1.81284033 -0.00024351 -0.00046300 -0.00138228
N 24.85442269 0.00680755 18.21643832 -0.00013739 -0.00110058 0.00405645
N 18.79836078 19.33634285 26.18701268 -0.00316934 0.00230201 0.00223617
N 20.14724192 12.59012303 22.81703454 -0.00142883 0.00179788 -0.00575479
N 22.11272520 19.36069277 30.34569329 -0.00432417 0.00811460 0.00259856
N 17.46775101 12.63470442 30.54022752 0.00498348 0.00576528 0.00668223
N 24.52221173 19.56974915 21.79211590 -0.00063835 0.00622197 -0.00088090
N 22.50407599 25.54185405 26.99746866 0.00109904 -0.00432774 0.00936342
N 19.91917011 19.40251752 17.91898045 -0.00335018 0.00011507 0.00433930
C 7.60463085 1.17462321 4.87805608 -0.00644657 0.00238934 0.00012506
C 1.04619804 6.09757759 13.24279407 0.00673732 -0.00058633 -0.00196545
C 3.42457763 12.46188421 2.93039755 0.00087643 0.00150660 0.00630256
C 5.32120348 6.90645673 11.76295539 -0.00632653 0.00680709 -0.00252409
C 1.08986987 12.40584051 11.43107106 0.00524722 0.00269349 -0.00162726
C 7.15263390 6.84413278 3.54237272 0.00171647 -0.00062292 -0.00214358
C 5.07405941 0.58540739 12.40311941 -0.00122918 -0.00322002 -0.00230826
C 3.19086330 5.92001798 4.80271273 -0.00663021 0.00285819 -0.00096705
C 7.36176078 2.07148958 5.87880457 0.00296023 -0.00319184 -0.00207408
C 1.62050062 5.47558407 14.35630176 0.00082358 0.00277474 -0.00297125
C 3.07532241 11.91542263 1.72100217 0.01052776 0.00537511 0.00091125
C 5.45362974 7.51459201 10.54712427 -0.00296776 0.00999555 -0.00179277
C 1.47068976 11.67998797 10.28329963 -0.00099266 0.00950517 -0.00625415
C 6.94936451 7.54420317 2.34440539 0.00272790 0.00385956 -0.00045064
C 5.53849976 1.13683092 13.66615745 0.00135215 -0.00669137 0.00286793
C 3.06304922 5.26377468 6.00164703 0.00109217 0.00118114 -0.00568595
C 6.32322000 2.99726633 5.81179622 0.00472889 -0.00129336 0.00114451
C 2.40206011 4.36178068 14.15793034 0.00848544 -0.00001738 0.00422393
C 2.11806414 10.85050334 1.75278631 0.00604377 0.00276677 0.00435951
C 6.38512385 8.57942742 10.46124741 0.00503218 0.00660584 0.00082743
C 2.53751306 10.75118483 10.36681259 -0.00624363 -0.00336632 -0.00080170
C 6.21992722 8.77087156 2.40710914 -0.00447413 0.00172343 -0.00106812
C 6.42646326 2.28509121 13.59813267 -0.00018258 -0.00206703 -0.00055018
C 2.00450367 4.30004478 6.10701214 0.00144309 0.00913285 0.00487266
C 5.80178261 3.20785593 4.51324759 0.00622458 -0.00656339 0.00854232
C 2.62089753 3.86929222 12.88893422 0.00029435 0.00223329 0.00296081
C 1.76583465 10.29893941 2.99908249 -0.00290466 0.00413328 -0.00888921
C 6.93576406 9.14385890 11.63421844 0.00007327 0.00799136 0.00344548
C 2.82691752 10.23406968 11.61990293 -0.00583331 -0.00160928 -0.00095194
C 6.14757469 9.36994280 3.66644679 0.00528755 0.00029190 -0.00330998
C 6.87559077 2.70786005 12.29849819 -0.00138162 0.00080742 -0.00132673
C 1.55854428 3.71969002 4.89717428 0.00013548 0.00755367 0.00128733
C 6.01327338 2.30247251 3.50561208 0.00177187 -0.00391363 0.00603733
C 2.05520581 4.44017775 11.73352175 0.00650214 0.00570006 -0.00672981
C 2.18973549 10.80864356 4.19112210 -0.00049242 -0.00182787 0.00026747
C 6.72900222 8.52124376 12.84996116 0.00566762 -0.00703379 -0.00470521
C 2.30164370 10.82992279 12.71982573 -0.00134814 -0.00042533 -0.00797956
C 6.57178427 8.77576289 4.81826291 -0.00285431 -0.00263548 -0.00556914
C 6.56421371 2.07162518 11.13709633 0.00007100 0.00628688 -0.00050966
C 1.85453607 4.28164906 3.70802421 0.00454975 -0.00323623 -0.00327183
C 6.93624784 1.24029812 3.58757768 0.00475215 -0.00092829 0.00491503
C 1.38093489 5.69160772 11.90361092 -0.00196994 -0.00305763 0.00369848
C 3.02657962 11.95559602 4.17605008 -0.00682219 0.00402407 0.00238518
C 5.94582142 7.38337702 12.93059960 0.00238595 0.00439274 0.00083892
C 1.45042951 12.01502349 12.69443035 0.01006159 0.00615145 -0.00276201
C 7.07710903 7.41265707 4.80648109 0.00604740 -0.00496924 -0.00350504
C 5.71580067 0.92927243 11.24231881 0.00781634 0.00226431 -0.00790424
C 2.63942142 5.43100689 3.63660310 0.00505875 0.00140903 0.00836199
C 6.46759023 0.39160716 1.34836979 -0.00457694 -0.00081352 0.00440135
C 1.58258821 6.51192950 9.73634593 0.00417856 0.00464877 0.00684061
C 2.94812469 12.28541922 6.56970400 -0.00259523 0.00331702 -0.00122318
C 6.23829668 6.95307901 15.32755319 -0.00460794 0.00315064 0.00045384
C 1.66961410 12.63195177 14.93461517 0.00148082 -0.00339174 -0.00353380
C 6.87954282 6.78302065 7.13700040 0.00105448 -0.00376427 0.00027024
C 5.64929990 0.51658212 8.78016357 -0.00195676 0.00492295 -0.00332188
C 2.27092428 5.89558100 1.25362662 -0.00315845 0.01078062 -0.01014526
C 7.24970364 11.83975641 16.25648013 -0.00086353 0.00630242 0.00433365
C 1.66019439 7.77691208 8.91616969 0.00156820 -0.00314472 -0.00315575
C 2.38976058 0.89334432 6.77824389 -0.00118488 -0.00903901 0.01011631
C 5.32327728 5.64687293 32.81743361 0.01029995 -0.00723282 0.00588804
C 0.76902934 0.68958346 31.68989475 0.00637499 -0.00280756 -0.00927991
C 7.55979281 6.03633125 8.28341342 0.00033781 -0.00243774 -0.00258593
C 5.94767854 11.96043437 8.11704530 -0.00336809 0.00677876 0.00142127
C 3.17923574 7.15040292 16.72019429 0.00592400 -0.00004975 0.00650346
C 7.74747236 0.52799294 20.73304920 -0.00104180 -0.00072920 0.00357375
C 0.56254439 5.97724180 29.47572486 -0.00252848 -0.00327786 0.00004591
C 3.16110243 12.55173897 19.50020246 0.00596184 -0.00739697 -0.00662762
C 5.57175647 6.07002990 28.11344176 0.00474600 -0.01146279 -0.00364854
C 1.12107366 11.86236867 27.72334335 -0.00093203 -0.00278660 -0.00299078
C 7.49597562 7.17942036 19.59465880 -0.01007374 0.00306958 0.00536179
C 5.74545851 0.20345941 29.20783724 -0.00407300 0.00136525 -0.00091793
C 3.59505295 5.69954844 21.46361759 0.00338099 0.00261727 0.00588280
C 7.66579505 1.08827646 22.01807144 0.00500435 0.00059772 -0.00024930
C 0.86727683 5.29939759 30.59869604 0.00824779 -0.00434419 0.00536018
C 2.73712631 11.89502450 18.41031109 -0.00436164 0.00562596 -0.00697244
C 5.96149569 6.58381305 26.90193434 0.00111850 0.00564479 -0.00594417
C 1.67016989 10.91260991 26.85605375 -0.00694174 -0.00134700 -0.00223419
C 7.06133134 7.91569131 18.49344598 0.00700236 -0.01192126 0.00233749
C 5.64334207 1.02267138 30.31269834 0.00701920 -0.00210353 -0.00486201
C 3.09635809 4.96027781 22.51185217 -0.00148724 0.00864284 0.00417506
C 6.93188226 2.26858093 22.11940210 0.00159002 0.00206284 -0.00041088
C 1.90723844 4.31526774 30.59565679 -0.00192996 -0.00365238 -0.00063014
C 1.88318675 10.79794248 18.57374723 0.00012153 -0.00165682 -0.00519726
C 6.60400140 7.87438948 26.87409969 -0.00237970 -0.00971672 -0.00549747
C 2.54738045 9.89493058 27.31979476 -0.00463188 -0.00096392 -0.00112895
C 6.20030978 9.04639616 18.69124451 -0.00603645 -0.00072314 -0.00531983
C 6.37360742 2.22779244 30.35678534 0.00492654 0.00694987 -0.00029916
C 2.34581789 3.83521840 22.28849116 -0.00561910 0.00483509 0.00553735
C 6.51629119 3.02884909 21.00267303 -0.00229863 0.00523727 0.00039640
C 2.23852424 3.79215318 29.32011745 0.00006143 0.00232545 -0.00090232
C 1.61131908 10.26285224 19.82582698 0.00511334 -0.00614398 0.00832959
C 6.88707834 8.47448943 28.12692796 -0.00051010 -0.00099449 -0.00462753
C 2.50526243 9.55868678 28.68628512 0.00211998 0.00333194 0.00614454
C 6.02627686 9.50450655 19.99886204 0.00530786 -0.00472418 0.00459557
C 6.98247255 2.66487654 29.16648560 -0.00429293 -0.00361496 0.01113259
C 2.27946447 3.34302531 20.98659994 -0.00175371 0.00412527 0.00050174
C 6.66923449 2.46715134 19.73836598 -0.00642272 0.00201838 -0.00781592
C 1.71708769 4.26821084 28.16259646 0.00845363 -0.01062285 0.00072367
C 2.14500511 10.87849913 21.00435319 -0.00483527 -0.00356203 0.00496495
C 6.35786872 8.00088057 29.29417475 -0.00625931 -0.00503297 -0.00298422
C 1.87560950 10.44072976 29.51072638 0.00012908 0.00515123 0.01092874
C 6.62491135 8.83658892 21.05772378 -0.00375563 0.00494760 0.00712222
C 6.91907881 1.94259025 28.02836771 -0.00478022 -0.00044870 -0.00426463
C 2.70248133 4.08375896 19.91010302 0.00035881 0.00707707 0.00297390
C 7.29810581 1.19474139 19.59891139 0.00300401 0.00175389 0.00378085
C 1.05153409 5.56081938 28.15755854 0.00185736 -0.00447063 0.00186041
C 2.83338343 12.07076466 20.84947786 -0.00071853 0.00150456 0.00700374
C 5.62638892 6.72984001 29.30813964 0.00783632 -0.00506833 -0.00401529
C 1.27803792 11.65621142 29.11154863 -0.00186444 -0.00119501 -0.00498006
C 7.24419163 7.63930591 20.87676606 -0.00405540 0.00308387 0.00380201
C 6.31468688 0.68380246 28.01921345 -0.00144440 0.00062546 -0.00342925
C 3.25870359 5.36197110 20.03608537 0.00751619 -0.00440689 -0.00069384
C 6.79050889 0.60963688 17.29019182 0.00335566 -0.00687891 -0.00030077
C 1.51819091 6.04312389 25.87462945 -0.00679601 -0.00141080 0.00209741
C 3.01901661 12.45543049 23.19906060 -0.01185180 -0.00031215 0.00295162
C 5.29104231 6.62560685 31.72539469 0.00770305 -0.00719000 -0.00432770
C 1.23266958 12.76544835 31.26316861 -0.00503420 0.00507563 0.00115221
C 7.23257161 6.82506921 23.13661883 -0.00047410 0.00126550 -0.00112451
C 6.73448809 25.60182519 25.83133189 -0.00303363 -0.00255044 0.00090690
C 2.97485686 5.98405976 17.72058589 0.00249426 -0.00075463 0.00171824
C 6.83397602 12.11030444 32.68471223 -0.00174725 -0.00636566 0.00244370
C 1.51154758 7.20980863 24.99991319 -0.00120017 0.00655154 0.00300154
C 4.05660287 0.55481258 24.34607126 -0.00451154 -0.00018325 -0.00540581
C 6.20436703 5.72355670 16.18384426 -0.00743827 0.00667232 -0.00031244
C 1.24834616 1.34981614 15.54295427 0.00803736 0.00428941 0.00161064
C 7.48402013 5.70329248 24.04948050 -0.00643089 -0.00136233 -0.00242926
C 5.90224112 11.14486890 25.34393495 -0.00201460 0.00209189 -0.00117507