1920
Time=1000.00000000 pbc="T T T" Lattice="24.81504412 0.00000000 0.00000000 0.00000000 26.56049355 0.00000000 0.00000000 0.00000000 32.73474818" energy=-12243.11776543 virial="-68.41069887 -15.79689030 3.34089287 -15.79689030 -55.69039416 -6.92711196 3.34089287 -6.92711196 -38.98603797" stress="-0.00074128 -0.00082413 0.00020487 -0.00082413 -0.00049951 -0.00031301 0.00020487 -0.00031301 0.00019902" Properties=species:S:1:pos:R:3:vel:R:3
O 6.19559696 3.10120121 5.72472064 -0.00785610 0.00598120 -0.00290030
O 2.43435734 3.80131576 15.54004587 -0.00061328 -0.00015593 -0.00022346
O 2.07086019 10.54508355 1.53817365 -0.00820445 0.00192364 0.00170183
O 6.38973052 9.19542395 9.31918810 -0.00264909 -0.00205158 -0.00063084
O 2.52259139 10.76525907 9.76987181 0.00523562 -0.00546871 0.00210408
O 5.37798789 9.19640900 0.83107350 0.00854507 -0.00882431 -0.00160481
O 5.85713170 3.36735916 14.19260548 -0.00534418 0.00162760 -0.00099379
O 1.88688798 3.77579277 7.38061807 0.00597307 0.00364314 0.00883229
O 5.68297109 1.69483017 16.36732748 0.00450406 -0.00543663 -0.00226357
O 2.10419254 5.66199819 9.52324311 0.00090498 0.00024288 0.00187493
O 1.44265140 11.92802016 7.83134644 -0.00455015 0.00519901 0.00262123
O 5.38548933 7.53434677 31.77617122 0.00277556 0.00732480 0.00139168
O 3.05377468 11.86228232 32.06379210 -0.00335483 0.00286949 0.00531295
O 5.53286764 7.94401872 7.15260499 0.00198790 0.00311863 0.00329573
O 7.02405710 1.65851715 8.03745388 -0.00118581 -0.00107170 0.00064774
O 2.30858011 5.60405388 17.40248286 -0.00403021 -0.00747771 -0.00272744
O 6.61258431 3.51973920 22.52945785 0.00248639 -0.00637502 -0.00764501
O 1.91935554 3.62625362 31.81514916 -0.00427699 -0.00434564 -0.00110467
O 2.01647276 10.00829396 17.91000244 -0.00302381 0.00789806 -0.00901973
O 7.19362025 9.88216722 26.03191630 0.01314155 -0.00447699 -0.00383327
O 2.54997223 10.28512419 25.94965015 -0.00396794 -0.00404886 0.00411077
O 6.23246255 9.56527037 17.23387530 -0.00294344 -0.00123026 0.00210076
O 6.38672123 2.60390580 30.51928592 0.00691469 0.00392231 0.00313524
O 1.73840736 3.93911238 23.43604478 0.00499541 -0.00394543 0.00681487
O 5.75613855 0.99216595 32.44831593 0.00046895 0.00615048 -0.00059723
O 0.78316581 4.91112439 25.64936318 -0.00557448 0.00305791 -0.00373259
O 1.53264164 11.84993968 24.08506103 -0.00126698 0.00237306 -0.00774256
O 6.63609671 7.75390767 15.45131023 0.00600275 0.00242022 -0.00275979
O 2.42236525 11.83063427 16.08801780 0.00257835 0.00078127 -0.00365069
O 6.70570505 8.33168031 23.84023793 -0.00578460 0.00209081 0.00521456
O 7.04034956 1.15246180 24.34158767 0.00385790 0.00183231 -0.00260781
O 1.10331565 5.26624622 1.05573400 0.00154788 -0.00110265 -0.00404882
O 6.43679627 16.48914445 7.01304214 -0.00815231 -0.00363404 0.00217816
O 2.88806087 17.21210539 15.69003022 -0.00359143 0.00096787 -0.00282980
O 1.41063623 23.44685441 1.45062599 -0.00508267 -0.00354916 -0.00365068
O 6.30152929 23.25545044 9.54251827 0.00641500 -0.00091608 0.00195065
O 2.84645934 23.56717960 9.50704509 0.00601316 -0.00369873 -0.00035403
O 5.74055873 22.59822652 1.00995109 0.00090176 -0.00620666 -0.00394008
O 7.01159779 16.18113224 15.04455514 0.00733654 -0.00173654 -0.00894491
O 0.87301256 17.10090187 7.23985251 -0.00118552 -0.00082164 -0.00245272
O 5.85750570 14.47430448 16.71956216 0.00051823 0.00992964 0.00066753
O 1.65025196 18.66452978 9.58772484 0.00149361 0.01043578 -0.00272264
O 2.15905461 25.22773600 7.61572848 0.00182437 -0.00081008 0.00260686
O 6.14620698 21.54961759 31.36819164 0.00472385 -0.00367806 -0.00638930
O 2.17524297 24.98925597 32.03091200 0.00172683 0.00525386 0.00115370
O 6.74981603 21.72264958 7.30709952 -0.00229538 -0.00617411 -0.00366116
O 6.97497668 14.52665035 8.94824627 -0.00247086 -0.00497897 0.00122383
O 2.70552548 18.98295058 17.51639993 -0.00733198 0.00415754 0.00132422
O 5.65591967 15.90067703 22.84460882 -0.00649471 0.00315232 0.00371364
O 2.79116803 16.85708641 31.86047040 -0.00070190 -0.00555323 0.00050989
O 1.24585510 24.43298838 17.95169546 -0.00063014 0.00588974 -0.00507214
O 7.06981213 22.51697911 25.03807113 -0.00238697 0.00379553 0.00503861
O 2.33754733 23.48310714 25.68490442 -0.01130188 0.00101329 -0.01094724
O 7.10069764 23.94943895 17.59121717 -0.00058063 0.00333030 -0.01028897
O 7.20604467 16.12637856 31.39460736 0.00769601 0.00159731 0.00440717
O 1.61306300 17.10530061 23.35394215 -0.00358039 0.01016585 0.00630514
O 6.53469915 14.44133033 0.62038771 0.00816269 -0.00715042 -0.00177253
O 2.29612648 18.39014138 25.46619270 -0.00167846 0.00392602 0.00880576
O 1.77673409 25.65026881 24.04405089 -0.00465512 -0.00988760 0.00314709
O 6.78906186 20.47029872 14.99235475 -0.00079344 0.00194387 -0.00275264
O 2.56196442 25.42418117 15.72548988 -0.00278458 -0.00387131 -0.00556447
O 5.97282964 21.00050338 23.22579688 0.00164905 -0.00897821 -0.00705788
O 5.16291502 14.91155784 25.30401106 -0.00155772 -0.00135767 -0.00266673
O 1.76390898 18.30419266 1.14243953 -0.00303959 -0.00271958 0.00333897
O 13.88516057 3.17118260 7.99798061 -0.01059793 0.00300199 -0.00171008
O 11.41617673 3.45682669 14.67102502 -0.00062761 -0.00742602 -0.00422581
O 10.05469597 10.28579051 1.24915455 -0.00212417 -0.00135630 0.00043273
O 14.81600478 10.14908973 10.42961479 -0.00493756 0.00123495 -0.00291040
O 9.53678106 10.83701302 9.27591096 0.00642167 0.00238811 0.00275338
O 14.12509141 9.38135785 2.56503289 0.00112775 0.00082645 -0.00384122
O 14.52584634 2.32056453 15.49832147 0.00283627 0.00770754 -0.00219788
O 10.23366675 4.01961589 6.89049574 0.00177182 -0.00976475 -0.00152788
O 15.22221879 1.19925190 17.74770238 -0.00253593 0.00388401 -0.00203244
O 10.55748425 5.92978068 8.83851780 -0.00071992 -0.01099288 -0.00505476
O 9.60271383 12.46726826 7.30082000 0.00623450 -0.00230079 0.00031789
O 14.69568804 8.27694742 0.38235607 -0.00446533 0.00179970 0.00417073
O 10.36280578 12.07735079 31.97640948 0.00110212 -0.00283878 0.00428166
O 14.31528465 8.15225822 8.73261191 -0.00175362 0.00504224 -0.00017073
O 13.45441781 1.06370519 9.29229938 -0.00967679 -0.00080714 0.00344406
O 10.40662803 5.31441550 16.49225293 -0.00014684 -0.00271031 0.00266370
O 13.54490393 3.07573496 23.64471065 -0.00318797 0.00761148 0.00124836
O 11.01585092 3.24622462 30.50045753 0.00536804 -0.00236201 0.00026458
O 9.17352231 10.44090222 17.75070767 0.00312808 -0.00034776 -0.00139148
O 15.42860397 9.07869897 26.69410699 -0.01209397 -0.00625272 -0.00178550
O 10.94026758 10.67859400 25.79897147 0.00028916 -0.00378264 0.00136037
O 14.16463460 9.46153755 18.61633592 0.00272145 0.00218748 0.00244591
O 15.08604803 3.07631949 32.40684835 0.00423138 0.00166278 -0.00572528
O 10.09332991 4.00563550 22.63685572 -0.00203076 0.00711696 -0.00680839
O 14.49792595 1.67139934 1.96521368 -0.00180028 0.00367008 0.00075601
O 11.49720483 5.64147601 24.57686351 0.00248405 0.00057977 0.00464568
O 11.34849574 12.23291438 23.60769762 0.00304910 0.00117856 0.00456873
O 14.07585878 7.89940024 16.50448557 -0.00427921 -0.00051315 0.00130239
O 9.95950868 12.23926901 15.62166494 0.00355896 -0.00447560 0.00433561
O 13.84282568 7.78295990 24.80671004 0.00102015 -0.00771490 -0.00088974
O 14.23278669 1.53472389 26.09039144 -0.00557547 0.00339848 0.00386950
O 9.82750368 5.16055756 0.37253601 -0.00419273 -0.00221108 0.00104859
O 13.99669680 16.32634289 7.87534540 0.00275144 0.00482188 0.00221181
O 11.09347525 17.07747887 14.64942273 0.00629833 0.01015019 0.00005089
O 9.69720620 23.60961670 1.14089659 -0.00494472 0.00672033 -0.00238168
O 14.63880798 23.07921344 10.48662746 -0.00582939 0.00408533 -0.00317555
O 9.80960512 23.64888631 9.33572579 -0.00065098 0.00520871 -0.00212081
O 14.05575346 23.22265469 2.20063416 -0.00967447 -0.00042021 0.00670227
O 14.24813734 16.14157259 16.25948727 0.00183360 -0.00389249 0.00971471
O 10.60509632 17.06689319 6.16036271 -0.00505629 0.00603164 -0.00015031
O 14.24287522 14.42345990 18.34267486 -0.00735950 0.00328604 -0.00027428
O 11.15043422 18.61839565 8.50467594 -0.00103628 -0.00328840 0.00161869
O 10.64725356 25.17519576 7.19663407 0.00114334 -0.00171056 0.00735366
O 14.14545242 21.13958265 0.07655699 -0.00062296 -0.00555277 -0.00500279
O 10.07256403 25.34236268 32.11782802 0.00205573 -0.00380327 0.00043937
O 14.20935537 21.39555262 8.32209864 -0.00493989 -0.00209619 -0.00317246
O 13.44627854 14.65151159 9.95780526 -0.00174687 -0.00123677 -0.00254393
O 9.76687813 19.00792579 16.80646688 0.00311977 0.00118467 0.00674779
O 14.63055909 16.35598382 24.39866433 -0.00184728 0.00342157 -0.00798502
O 10.39244332 16.89511923 31.22263290 0.00295235 0.00012266 0.00057737
O 9.75905608 24.06912020 17.41002106 -0.00090338 0.00000104 0.00098471
O 14.93958188 22.70622260 26.81139563 0.00322130 -0.00019221 -0.00157771
O 11.15927140 23.41380211 25.80414664 -0.00694702 -0.00154501 0.00041766
O 13.13815938 22.53976232 18.13841052 -0.00516204 0.00010760 -0.00036282
O 14.87986148 16.09820327 0.29091922 0.00637236 -0.00699989 -0.00537352
O 9.52048370 17.31976081 22.95088503 -0.00324414 -0.00319102 -0.00447647
O 14.22315461 14.21483247 1.96221247 -0.00454906 -0.00086521 0.00082219
O 11.02984886 18.60222019 25.38097878 -0.00286749 0.00087700 0.01014923
O 10.55471675 24.97142488 23.74882378 0.00573823 0.00233931 0.00135471
O 14.56741461 21.26142432 16.51332347 -0.01325347 0.00418435 0.00176547
O 10.59104467 25.57176074 15.62228463 0.00376644 -0.00706440 -0.00313392
O 14.97877463 21.69793314 24.41447739 0.00148796 -0.00078408 -0.01155713
O 14.61316967 14.62926159 26.50593021 0.00687521 0.00665733 0.00103671
O 9.54570001 18.74498159 0.22825741 0.00160004 -0.00122936 -0.00165003
O 21.97985779 2.51419119 6.31871624 0.00735952 -0.00298496 -0.00549245
O 19.43781732 4.20338053 14.49501085 0.00165080 0.00183397 0.00406740
O 18.25848237 9.95778993 1.02114656 0.00423366 -0.00431382 -0.00564428
O 22.53331253 10.48530854 10.37469725 0.01102365 -0.01140547 0.00453338
O 19.28944213 10.74811550 8.88787222 -0.01033665 0.00171213 -0.00401453
O 22.63426612 9.86033778 1.24955158 -0.00296750 0.00119515 0.00758382
O 23.82429772 3.18003421 14.53180243 -0.00153456 0.00137480 -0.00309013
O 17.78607323 3.83006886 6.91379709 -0.00020166 0.00212862 -0.00147045
O 23.41792014 1.75846643 16.78568015 0.00735155 0.00214565 0.00191804
O 17.28185030 5.74369865 8.46637107 -0.00240921 0.00003779 -0.00470098
O 18.36096087 12.32317396 7.15722781 0.00083968 0.00064325 -0.00203664
O 22.48494333 7.80207163 32.29953263 0.00054818 -0.00037378 -0.00204193
O 17.89832958 11.57004456 31.60988644 0.00641213 0.00212304 0.00416312
O 22.42111225 7.59867401 7.50972831 0.00310222 -0.00379678 0.00068674
O 22.80316438 1.21971757 8.72610946 -0.00193526 0.00104679 0.00087285
O 18.70938504 5.17484160 16.76102424 0.00064838 0.00380562 0.00258665
O 21.85659078 2.44010338 22.98530699 -0.00255938 0.00236570 -0.00351635
O 19.64307786 3.62344593 31.50723401 0.00230656 -0.00224552 -0.00062843
O 18.17023321 10.05063487 17.51867378 0.00258741 0.00250777 0.00228272
O 22.89970387 9.37924044 26.00648140 0.00680269 0.00434387 0.00117965
O 19.70020003 10.50265030 25.38538101 -0.00015273 -0.00681836 0.00434748
O 22.26603049 9.50726738 17.83072763 0.00425045 0.00074797 0.00362897
O 22.44405663 3.37418016 30.66097101 -0.00453624 0.00293235 0.00010047
O 17.86818414 3.37232902 23.03624426 -0.00123295 0.00545700 0.00036800
O 23.19318707 0.88007209 32.68909229 0.00534611 0.00422622 -0.00631115
O 18.32720171 4.98462316 25.32623736 -0.00328312 0.00151653 0.00507212
O 18.50782081 11.99356751 23.42809848 0.00604327 -0.00876370 -0.00475457
O 22.14989309 7.64043965 15.80517929 -0.00039342 0.00453850 0.00123970
O 18.85096961 11.85271020 15.24836082 0.00381237 0.00351697 0.00197984
O 22.84613555 7.48679616 24.07845281 -0.00526422 0.00451488 -0.00166162
O 22.80829820 1.01882996 24.79690937 0.00659534 -0.00654560 -0.00013779
O 18.76188975 5.16897887 0.60603498 0.00006429 0.00316332 0.00113239
O 22.24004381 16.39099095 6.26258823 -0.00130445 0.00760121 -0.00317722
O 18.68887336 16.98955818 14.25961557 0.00404693 -0.00349521 0.00435533
O 18.02008818 23.26290707 0.97202919 -0.01154961 -0.00385731 0.00690623
O 22.89320348 22.58226998 10.11120382 0.00199883 0.00369429 -0.00500994
O 20.34767448 23.59900246 9.32016360 0.00168184 0.00173909 0.00786598
O 22.41314863 22.82328148 1.94368016 -0.00917564 -0.00061304 -0.00315827
O 23.59244447 16.07871768 14.99033179 0.00852541 -0.00125542 -0.00157245
O 18.57095919 16.97287299 5.62874153 0.00155085 0.00280007 -0.00172830
O 23.29927663 14.18115531 16.76239766 0.00137494 0.00731155 -0.00486306
O 18.44270794 18.22648571 8.03694860 -0.00361273 -0.00153638 -0.00849180
O 19.46767758 24.69999136 6.97860411 -0.00071795 -0.00494260 -0.00550386
O 22.92862846 21.36821972 32.23762726 -0.00990844 0.00383186 -0.00437070
O 17.21815838 25.24544432 32.13359007 0.00907462 -0.00332694 0.00693101
O 22.59638390 20.99552980 8.15910361 0.00554174 -0.00104723 0.00579129
O 22.85512770 14.91123826 8.53432477 -0.00689586 0.00143582 -0.01239942
O 19.08042408 18.93631834 15.95804924 -0.00141660 0.00406548 -0.00211712
O 22.49930249 15.86580534 22.80458218 -0.00089237 0.00407211 -0.00126225
O 18.62073198 16.69151787 30.10965185 0.00414513 0.00738221 0.00076119
O 18.22725347 23.66256109 17.14601368 -0.00301406 -0.00251095 0.00190922
O 23.13823753 22.48332656 26.07129267 0.00350313 -0.00231907 -0.00560846
O 19.59071093 23.79159181 25.87503740 0.00412474 0.00099640 0.00195760
O 22.48865958 23.69765986 17.61983405 0.00145851 -0.00373869 -0.00111125
O 23.47225070 16.57980113 31.09411863 -0.00259110 0.00343553 0.00399519
O 18.76647504 16.60985166 21.89896832 -0.00796637 -0.00547197 0.00365359
O 23.58796821 14.72271528 0.33359176 -0.00236656 -0.00063484 0.00742243
O 18.96453126 18.67847262 23.88302437 0.00496384 -0.00350103 0.00025296
O 19.22267519 24.86506772 23.49475158 -0.00286638 -0.01420805 -0.00513179
O 22.68975019 21.27617325 16.22867102 -0.00755622 -0.00387493 -0.00310388
O 18.28244555 25.00882541 14.94873709 0.00060680 0.00370050 -0.00075552
O 22.73324356 21.13554792 23.74841768 0.00475973 0.00038614 0.00616321
O 22.56019031 14.68936217 25.15633201 0.00266467 0.00544747 0.00555126
O 17.81713788 18.43849398 32.17905690 -0.00288735 0.00371778 0.00791629
N 7.28980681 13.36237870 2.47658465 -0.00471143 0.00776194 0.00284291
N 1.15704891 6.87463070 11.08188812 0.00007821 -0.00149748 -0.00234471
N 2.96945205 0.00802566 5.82391126 0.00281108 0.00174758 -0.00614023
N 5.48197633 6.39614359 13.97067103 -0.00655259 -0.00402441 0.00018890
N 1.36028702 26.36724028 14.04018677 -0.00256877 -0.00670702 0.00317126
N 6.48792320 6.59448838 5.56092351 0.00281628 0.00240031 0.00836251
N 5.42382088 13.65022020 10.41050738 -0.00255603 -0.00155492 0.00015080
N 3.02420617 5.75967079 2.22967616 -0.00004128 -0.00726715 -0.00271110
N 7.22785160 13.40339104 18.18423838 -0.00003204 0.00319298 -0.00347238
N 1.13516310 6.59898293 27.15867964 -0.00302746 -0.00221905 0.00215695
N 3.02826202 0.14489350 22.44860516 0.00212301 0.00169008 0.00255306
N 5.45629491 6.26713245 29.89207174 0.00318448 -0.00481831 -0.00691212
N 1.06295377 26.15345086 30.43650179 0.00451172 -0.00011094 0.00666732
N 7.14220991 6.86655637 22.09386667 -0.00378255 0.00354107 0.00577559
N 5.18661435 13.37349123 26.92519782 0.00014630 -0.00070971 -0.00067051
N 3.26490649 6.86466298 19.00823495 -0.00340813 -0.00099212 -0.00018752
N 7.04741244 26.51232806 1.28900598 -0.00145022 -0.00891554 0.00067411
N 1.19461122 20.09820536 11.29793283 0.00715136 -0.00613207 0.00580290
N 2.61399707 13.26793088 6.40033828 0.00415033 0.00167275 0.00230144
N 5.14093000 19.68400725 13.60431088 -0.00290968 0.00372973 -0.00764450
N 1.21422984 13.03274480 14.56492021 -0.00354165 -0.00770921 -0.00387796
N 7.61076456 20.38089335 5.68336547 0.00002801 -0.00037251 0.00530844
N 6.33807721 0.15086239 9.68451623 0.00003099 0.00792237 0.00800905
N 3.15252705 19.18665853 2.63434667 0.00767481 -0.00800606 -0.01584881
N 6.42186029 0.18731120 17.96577670 0.00503310 0.00177814 0.00854674
N 1.26091358 19.46540840 27.27312730 -0.00395491 -0.00670097 -0.00200269
N 2.41544182 13.24324092 22.43797480 0.00180256 0.00186024 0.00065504
N 5.01829412 20.26150935 29.72457337 0.00188438 0.00332993 0.00542549
N 1.38073008 12.76231183 30.84647287 0.00112396 -0.00835101 0.00042338
N 7.27265264 20.09494969 21.58986472 0.00376798 0.00625570 -0.00328620
N 5.61031386 26.55632126 25.81200696 0.00156561 0.00423098 0.00386601
N 3.31494458 20.25860593 19.24287298 -0.00205253 -0.00683586 -0.00361995
N 15.32410723 13.14382173 3.61700414 -0.00028552 0.00781322 -0.00735018
N 8.97834635 6.19425144 10.46144627 0.00242279 0.00160881 0.00711271
N 11.29244315 0.03164973 5.49948322 -0.00297071 -0.00324032 -0.00393571
N 14.24865205 6.69150855 14.49893969 0.00300046 -0.00185304 -0.00105465
N 9.53677783 0.28458750 14.01160325 0.00221848 0.00283401 0.00101599
N 14.44573344 6.43808650 7.19514025 0.00206988 0.00098226 0.00164355
N 13.17889158 13.26178416 11.73724906 -0.00778355 0.00226529 -0.00425376
N 10.81708333 6.46503942 1.99172616 -0.01349415 0.00487476 0.00063723
N 15.55131978 13.36921890 19.85739299 0.00163981 0.00024164 0.00468591
N 10.27201935 6.77395914 26.23815901 -0.00295783 0.00204873 0.00434441
N 11.29736561 26.48241501 22.13707258 -0.00043651 -0.00100250 0.00108974
N 13.92722767 6.85950192 31.44892126 0.00375226 0.00246165 0.00187822
N 9.48757363 26.49603640 30.15516004 0.00423268 0.00297680 0.00625026
N 15.20616622 6.66337380 23.37001375 0.00007878 0.00375845 0.00029498
N 13.53299438 13.51358204 28.19439308 0.00649688 -0.00107774 -0.00050976
N 11.21272185 6.81776294 17.93420536 -0.00121313 -0.00254263 0.00066350
N 15.54876262 0.38099340 3.53066247 -0.00560600 -0.00160822 0.00245899
N 9.81091243 19.70691363 10.00772361 0.00317003 -0.00542938 -0.00068991
N 11.18650837 13.19352832 5.80324138 0.00573723 -0.00303928 0.00016690
N 13.57242966 19.95413880 14.97607205 -0.00769938 0.00335105 -0.01013159
N 9.75233211 13.87333142 13.96365527 -0.00016683 -0.00278621 0.00087136
N 14.96328588 20.04050324 6.69803806 0.00304777 -0.00373649 -0.00254432
N 13.03057119 26.18620348 10.99942236 -0.00430827 0.00416574 0.00314687
N 10.00364061 20.32712793 1.74802603 0.00314155 0.00238835 -0.00031324
N 15.39539610 26.46966018 19.65192668 -0.00344591 -0.00587208 -0.00310005
N 9.37246360 19.63100956 26.61056141 -0.00928255 0.00206608 -0.00896323
N 11.65230877 13.36847022 21.62723724 0.00438468 -0.00214895 0.00232682
N 13.47662598 19.75775595 31.16241946 0.00469477 0.00179523 0.00257712
N 9.35796190 13.29144284 30.35825857 0.00321506 -0.00905373 0.00250999
N 15.37706413 20.32283079 22.60417286 0.00560085 -0.00124999 -0.00038519
N 13.50442288 0.36857462 27.85297822 0.00976976 0.00043250 0.00287640
N 11.06199681 19.92880727 18.44575400 0.00076917 -0.00399068 -0.00583570
N 23.39677443 13.17614403 1.97854199 0.00631135 0.00400514 0.00705729
N 17.18351967 7.12448037 10.30051397 0.00824015 -0.00489790 -0.00116705
N 19.51498913 26.30898000 5.35891598 0.00409324 0.00107962 -0.00263645
N 22.59691899 6.27587849 14.02262736 -0.00373408 0.00294569 -0.00600204
N 17.67322924 26.28904675 13.15831926 -0.00134134 0.00317017 -0.00081433
N 23.56658347 6.79289100 5.75406782 0.00720109 0.00373836 -0.00096387
N 22.25895218 13.49338956 10.29876025 0.00234391 0.00396560 0.00169687
N 19.66851102 6.46258612 2.36448414 0.00076281 0.00092945 0.00336840
N 24.10601704 12.89673388 18.41511639 -0.00737301 -0.00683062 0.00069903
N 17.65715905 6.15068290 27.09951431 -0.00504636 -0.00693826 -0.00402524
N 19.41215339 26.46516522 21.84599139 0.00816290 -0.00257707 0.00783772
N 22.42018926 6.38082072 30.51866105 -0.00528712 -0.00035019 0.00433196
N 17.30151643 26.54021544 30.19596322 0.00793082 -0.00318523 -0.00167188
N 23.32973399 6.32454333 22.20545469 -0.00214934 0.00376950 0.00190067
N 21.81119128 13.45460517 26.97047949 0.00890127 0.00169569 -0.00268037
N 18.91671271 6.56934821 18.64099457 0.00820552 -0.00111851 0.00633714
N 23.96455317 26.38605731 1.87777940 -0.00776616 -0.00173472 -0.00245068
N 17.95442433 19.79828079 9.61910505 0.01045159 0.00333422 -0.00409285
N 19.09015826 13.49689054 5.24391787 0.00167041 0.00265276 0.00352854
N 22.08607729 19.69843903 14.68574858 0.00021068 0.00184567 -0.00782327
N 17.67644686 13.10653296 13.67832355 0.00936137 -0.00058721 0.00483764
N 23.28791563 19.80044255 6.40250223 -0.01396167 0.00302438 0.00296276
N 22.38622106 26.45171223 10.46644385 0.00002396 0.00505592 0.00535672
N 18.64282909 19.97769078 0.93361839 -0.00147578 0.00657130 0.00283683
N 23.50690104 0.05543349 18.25293164 -0.00289404 -0.00005219 -0.00165338
N 18.00862326 19.95188789 25.57534418 -0.00117033 0.00009874 -0.00346298
N 19.53382406 13.23871778 21.81499758 -0.01081047 -0.00067311 -0.00182262
N 22.09325942 19.81621361 30.80842126 0.00427218 -0.00185655 -0.00054561
N 17.75099000 13.00767708 29.88599801 -0.01068401 -0.00624888 0.00005423
N 23.66161094 20.30751319 21.87430864 -0.00363558 0.00673577 0.00083993
N 22.14726590 26.14876064 26.46140249 -0.00381251 0.00118837 0.00753349
N 19.73922937 20.16728888 17.78005587 0.00609210 -0.00081509 0.00465056
C 7.52153817 0.61002695 3.52639147 0.00622079 0.00034533 0.00089171
C 1.08136694 6.35270746 13.44084905 -0.00455959 -0.01247526 -0.00040204
C 3.17844578 12.82315686 4.14406573 -0.00485023 -0.00092760 -0.00333390
C 5.09977103 6.64426014 11.60861383 0.00025968 0.00650454 0.00237732
C 0.87107879 12.73422755 12.17111760 0.01059671 0.00976937 -0.00247282
C 6.81020441 6.89441774 3.21102063 0.00284618 -0.00773093 0.00772816
C 5.34190420 0.65925384 11.88626050 -0.00156545 -0.00333939 -0.00722667
C 3.18109611 5.82878610 4.60209980 -0.00515073 0.00820006 0.00244459
C 7.36572534 1.40420539 4.64460172 0.00603407 0.00048993 0.00135936
C 1.31483668 5.56071108 14.52165321 0.00133747 -0.00166365 0.00050268
C 2.99400286 12.29478350 2.91878336 0.00262928 -0.00136247 -0.00439450
C 5.22601026 7.45598867 10.44182826 0.00198515 0.00438328 0.00204418
C 0.98070756 11.98042883 11.00660106 0.00406670 0.00601859 -0.00187867
C 6.54974092 7.49180210 2.01019365 0.00939572 0.00254774 0.00600015
C 5.13933185 1.55266961 12.93692657 0.00841374 0.00050300 0.00759242
C 2.90464221 5.39628570 5.89010500 -0.00423674 0.00752271 -0.00526104
C 6.40281552 2.34482434 4.61535832 -0.00276936 0.00156074 0.00502352
C 2.14370348 4.46820563 14.42635320 -0.00046821 -0.00035294 -0.00343671
C 2.19443471 11.15556353 2.73224717 0.00053590 -0.00413011 0.00295633
C 5.94235135 8.63720332 10.48377514 0.00188189 -0.00485689 -0.00682566
C 1.93872156 10.96921817 10.94605241 0.00092676 0.00521937 -0.00373076
C 5.76676925 8.63927084 1.99452864 0.00191919 0.00727609 0.00171082
C 5.82052537 2.74673961 12.97322236 0.00641948 0.00138220 -0.00182518
C 2.22383839 4.17960653 6.08909636 0.00002249 -0.00390477 0.00299274
C 5.63665188 2.63014327 3.43930750 0.00607192 0.00032001 -0.00393405
C 2.61722884 4.08725715 13.08608396 0.00569603 0.00082136 -0.01169846
C 1.40690181 10.73734526 3.84391361 0.00187861 0.00392813 0.00462414
C 6.34314638 9.14529434 11.70527388 0.00237455 -0.00046365 0.00384004
C 2.33515950 10.31540473 12.19350239 -0.00971892 0.00037352 -0.00095285
C 5.36840638 9.17024451 3.27469875 -0.00390988 -0.00076911 0.00598784
C 6.53642111 3.21465459 11.90088539 -0.00050854 -0.00062510 -0.00550933
C 1.78068746 3.47643367 5.00406146 0.00233106 0.00432808 0.00201052
C 5.92512017 1.91712954 2.32902530 0.00142211 -0.00097285 0.00163712
C 2.19768999 4.77144461 11.96380861 0.01135815 -0.00202495 -0.00332869
C 1.58611352 11.31330489 5.13329571 0.00066864 0.00494217 0.00018201
C 5.91960833 8.50493306 12.86460260 0.00019582 0.00529138 -0.00391313
C 1.97023177 10.96537808 13.35789797 -0.00048019 -0.00383310 0.00385226
C 5.44875774 8.45012036 4.46422275 -0.00102696 0.00057010 0.00692413
C 6.57162477 2.39758965 10.79444726 0.00269239 0.00167245 -0.00635896
C 1.99986841 3.95916032 3.68941806 -0.00466198 -0.00753230 -0.00071078
C 6.84730754 0.84315394 2.33996288 -0.00654331 -0.00461485 -0.00539064
C 1.51099764 6.02617873 12.13957339 -0.01028591 -0.00468697 -0.00136638
C 2.50610619 12.40843024 5.29662847 0.00178223 0.00360936 0.00811056
C 5.47419337 7.17817623 12.85032255 0.00170735 -0.00179269 0.00341880
C 1.29847437 12.22230058 13.38870061 0.00590643 -0.00868538 0.00119890
C 6.26739724 7.31293324 4.44105594 0.00521801 0.00132331 0.00486412
C 6.07219175 1.15173229 10.76504346 -0.00219665 0.00256923 -0.00266177
C 2.72214414 5.15066966 3.47554170 -0.00311251 -0.00085492 0.00106027
C 6.34888277 0.01786329 0.11679273 -0.01348800 0.00017906 0.00125899
C 1.71827923 6.74078418 9.85904596 -0.00249077 0.00000414 -0.00133970
C 1.86414836 13.02877498 7.56374996 -0.00259754 0.00271036 0.00035758
C 5.99709037 6.72941100 15.21566186 0.00762284 -0.00103856 -0.00709869
C 1.98279722 12.92773889 15.69254162 -0.00404297 0.00153825 -0.00366423
C 6.10726565 6.90293258 6.82740489 -0.00067271 0.00790065 0.00003314
C 6.80186885 0.50048462 8.43628596 0.00318349 -0.00242600 0.00081233
C 1.95392878 6.09019001 1.38359985 -0.00421622 0.00391284 -0.00449206
C 6.95741346 12.44430160 15.87406853 0.00535252 -0.00241490 0.00513397
C 1.84556389 7.89633427 8.84340576 -0.00984804 -0.00143917 0.00440377
C 2.57447161 0.99585281 8.00971399 0.00004350 -0.00232363 -0.00346093
C 5.19994408 5.18455778 32.17871646 -0.00429451 0.00523992 -0.00038119
C 1.53608335 0.74953983 32.50837362 -0.00160286 0.00361448 -0.00014616
C 6.43590162 5.79625328 7.84021739 0.00002354 0.00732441 0.00179318
C 5.36928090 12.85918947 8.19320410 0.00243338 0.00368634 -0.01268451
C 3.27127890 7.73040559 16.77383437 -0.00288965 0.00054507 -0.00602711
C 7.00131867 0.64018969 20.25185529 0.00236987 0.00493266 -0.00178000
C 0.90419290 6.18794529 29.53738591 -0.00061036 0.00124368 -0.00445823
C 3.19045121 12.62409821 20.28814612 0.00402928 -0.00021205 -0.00130284
C 5.43256652 7.12937342 27.65000557 -0.00335518 0.00242991 -0.00276566
C 0.85064061 12.40614812 28.51835059 0.00370796 0.00193941 0.00208991
C 7.30377092 7.07680773 19.74692743 0.00226635 -0.00880565 0.00418545
C 5.21468465 0.13254763 28.23883876 0.00555723 -0.00047962 -0.00182873
C 3.14354163 6.53105630 21.34995210 -0.00746753 -0.00558685 0.00146678
C 7.08249406 1.48652659 21.33297688 0.00769046 0.01245950 0.00020116
C 0.89107881 5.35644609 30.65344813 -0.00202437 -0.00054062 0.00615548
C 3.11317411 11.73779183 19.16656108 -0.00015225 0.00119339 -0.00534791
C 5.93317083 7.98173848 26.66597842 0.01093608 -0.00179799 -0.00515940
C 1.15496877 11.79043035 27.28099145 -0.00285918 0.00071590 0.00405194
C 7.27236535 7.78752741 18.56248796 0.00027926 0.00213871 -0.00186552
C 5.26972535 0.87713701 29.40867695 -0.00156469 -0.00312683 0.00236596
C 2.85198376 5.73796721 22.42276912 0.00846614 0.00394518 -0.00158005
C 6.43380632 2.70395155 21.40990522 -0.00138592 -0.00363847 -0.00231835
C 1.63895152 4.20256702 30.60613424 -0.00532315 -0.00068901 0.00584978
C 2.24480692 10.66141804 19.09093870 -0.00658804 0.00074229 -0.00896616
C 6.82406629 9.00949185 27.01080889 -0.00572871 0.00420016 -0.00746651
C 2.04302291 10.72581093 27.13923444 0.00425226 -0.00128989 0.00841882
C 6.47516603 8.99775134 18.45978262 0.00528841 0.00574364 -0.00432147
C 6.18138291 1.98479145 29.40338571 0.00237906 0.00321838 -0.00083205
C 2.10246475 4.56725331 22.34470045 0.00048750 0.00532218 0.00250370
C 5.70202439 3.08948026 20.26911822 -0.00494675 -0.00497550 -0.00489451
C 2.07786541 3.74425378 29.37562643 -0.00865826 0.00160318 0.00462905
C 1.73307389 10.24423480 20.28475543 0.00413840 -0.00108265 -0.00354174
C 7.19537229 9.20567016 28.32618141 0.00157340 0.00017314 0.00239286
C 2.52907080 10.15559259 28.27971708 0.00472061 0.00901355 0.00309346
C 6.09790377 9.58187926 19.69002653 -0.00930870 -0.00159927 0.00102005
C 6.70199982 2.46893259 28.17298957 -0.00164453 -0.00328729 -0.00902752
C 1.75438672 4.12089181 21.03797223 0.00015899 0.00737918 0.00133146
C 5.62464038 2.27630983 19.14515735 0.00309470 -0.00558978 0.00615216
C 1.97134839 4.46344713 28.20641371 -0.00940099 -0.01078919 -0.00381278
C 1.81322656 11.02515814 21.40026291 -0.00201321 0.00139381 0.00279469
C 6.70204117 8.35595176 29.31195916 0.00093193 -0.00537578 0.00082865
C 2.28500495 10.80216251 29.51151977 0.00525328 -0.00283498 -0.00191830
C 6.31586370 8.91602980 20.91886663 -0.00917561 -0.00602133 0.00097476
C 6.45575469 1.81797415 27.01257303 -0.00771594 0.00317343 0.00138705
C 2.17343312 4.82999882 19.90884105 0.00006989 -0.00067282 0.00097290
C 6.34096951 1.02991616 19.09930708 0.00538839 -0.00487121 0.00550724
C 1.37132434 5.80179898 28.29628665 -0.00076348 -0.00059079 -0.00051131
C 2.45054852 12.29040360 21.42567972 0.00162149 0.00221818 0.00317866
C 5.79168138 7.32520043 28.95564181 -0.00080805 -0.00328021 0.00560536
C 1.53247107 11.96885626 29.66131227 0.00830315 -0.00450796 0.00148191
C 6.90892517 7.63962454 20.95618552 -0.00472717 -0.00300002 0.00523696
C 5.79848701 0.60353203 26.98508171 0.00630338 0.00153304 0.00422971
C 2.86213158 6.06704605 20.05552910 -0.00248291 0.00168820 -0.00302891
C 6.22817442 0.64438656 16.71205306 0.00558972 -0.00524086 0.00405633
C 1.05821585 6.07035461 25.92453837 0.00017584 -0.00850823 0.00111186
C 2.05110042 12.92657608 23.74432878 -0.00144650 0.00608783 -0.00178540
C 5.34807663 6.40787549 31.24821659 -0.00526920 -0.00325285 0.00059290
C 2.22290213 12.80360891 31.86561826 0.00835929 0.00025586 -0.00863522
C 7.02644372 7.24469726 23.42222388 0.00144443 0.00103521 -0.00305707
C 6.35123740 0.20418110 24.64526607 -0.00204243 0.00149237 0.00198892
C 2.87389443 6.68972259 17.78698346 -0.00750013 -0.00153077 -0.00341583
C 6.27846457 12.05776768 0.59214457 -0.00684867 0.00255429 0.00133939
C 1.32708817 7.10160233 24.90734482 0.00234414 0.00490276 -0.00467990
C 2.75724864 1.33509790 24.44647768 -0.00890926 -0.00079542 -0.00308070
C 5.82311771 5.70874495 16.29477830 -0.00227789 -0.00430749 0.00509536
C 1.68766448 1.03065777 16.16474236 0.00086929 -0.00106393 0.00022500
C 7.32564849 6.05692091 24.41222008 -0.00126643 0.00680543 0.00044679
C 5.20648939 12.61270502 24.68196923 0.00781315 0.00286236 0.00545804
C 2.08094421 7.46445619 0.79111481 0.00668366 -0.00240309 0.00330128