1920
Time=10000.00000000 pbc="T T T" Lattice="25.53497851 0.00000000 0.00000000 0.00000000 25.38314057 0.00000000 0.00000000 0.00000000 33.22931158" energy=-12252.86441839 virial="-40.06770811 -5.50323899 -13.39556352 -5.50323899 -38.86648643 34.58501480 -13.39556352 34.58501480 -5.16999497" stress="0.00029722 -0.00029129 -0.00058522 -0.00029129 0.00028920 0.00162336 -0.00058522 0.00162336 0.00195224" Properties=species:S:1:pos:R:3:vel:R:3
O 5.90741413 2.82869266 6.86352010 0.00039454 -0.00273190 0.00878712
O 2.90773535 3.50401143 15.23484161 -0.00198617 -0.00044772 0.00244098
O 1.66249675 10.11778286 0.89856375 0.00461604 -0.00500010 0.00144303
O 6.76508974 9.49135475 9.78695144 -0.00398785 -0.00321995 -0.00023739
O 2.17751363 10.21873683 9.49537246 0.00160383 -0.00402836 0.00180829
O 6.07202818 9.38898854 1.29529185 -0.00393597 0.00254261 -0.00012457
O 7.36788823 2.96781045 15.14646726 -0.00313811 -0.00435907 0.00115125
O 1.30748975 3.85909267 6.72948624 -0.00276860 0.00361778 -0.00083475
O 7.06414031 1.24618218 17.06737753 -0.00018154 0.00158450 0.00178169
O 1.95675930 4.78492839 9.04060844 -0.00144404 0.00246444 -0.00663756
O 1.63864933 11.83422609 6.99921751 0.00244435 -0.00152369 0.00262519
O 6.45207817 7.71758069 32.53488643 0.00146242 0.00206613 -0.00210749
O 2.38468629 11.66977711 32.18975889 0.00140323 -0.00089798 0.00030146
O 6.70201774 8.00016932 7.66872873 0.00010859 0.00039371 -0.00108853
O 6.26004375 1.32399998 9.06516600 0.00271320 0.00239044 0.01554889
O 2.33579620 4.92938899 17.28883246 0.00131482 -0.00273003 -0.00306955
O 5.62986722 2.48240161 23.25995778 0.00513679 -0.00929819 0.00436460
O 2.87887542 4.03424913 31.99357641 -0.00413402 0.00028880 0.00440082
O 1.65654543 9.91838918 17.87961351 -0.00058690 -0.00413283 0.00233771
O 7.06327389 8.54937910 26.35554739 -0.00696170 0.00125766 0.00034370
O 2.58016371 9.73347167 25.99925634 0.00061878 0.00188836 0.00796193
O 5.94757171 9.14817795 17.97583002 -0.00037096 -0.00965071 -0.00134922
O 7.20454189 2.96571143 31.57614428 0.00415708 -0.00409046 0.00071413
O 1.61009631 3.79141725 23.59979984 -0.00542432 0.00863915 0.00094774
O 6.79754578 1.62765214 0.62097712 0.00749357 -0.00124272 -0.00803305
O 2.23639580 4.83987762 25.80022762 -0.00195910 -0.00796757 0.00276444
O 2.14273814 11.46697283 24.00998172 -0.00391826 0.00327828 -0.00048449
O 5.60673557 7.75780648 15.74969325 -0.00611954 -0.00459965 -0.00804851
O 2.31782653 11.35301433 15.77404670 0.00377623 -0.00430120 0.00665575
O 7.08512447 7.71041748 23.99256578 -0.00597867 -0.00131389 0.00090495
O 6.57902782 1.37604543 25.51617446 0.00267299 -0.01002373 0.00466129
O 1.95122779 5.34056705 0.68717111 -0.00127672 0.00265605 0.00626517
O 6.15407433 15.95275060 6.65044529 -0.00023056 0.00017108 -0.00279524
O 2.94319939 15.71249000 15.19536179 0.00712174 -0.00410829 -0.00642563
O 1.64432717 22.92624015 0.70381521 0.00138038 -0.00687200 -0.00542658
O 6.71222669 22.08713425 10.39633557 0.00033159 -0.00170443 -0.00129004
O 2.73050139 22.96103266 9.32865954 -0.00047402 -0.00052752 -0.00318086
O 5.71611370 22.07530257 1.79608391 -0.00428045 0.00240189 -0.00616929
O 7.10461815 15.58262078 14.94870475 -0.00342106 0.00634087 -0.00084481
O 1.21748580 16.48889863 7.20124520 0.00124520 -0.00145482 -0.00737203
O 6.81390132 13.92857376 17.26088213 -0.00024364 0.00233843 -0.00200453
O 1.92384197 17.83353741 9.20856927 0.00135698 0.00634742 0.00242857
O 2.22808813 24.36026091 7.04216893 -0.00294515 0.00093527 -0.00021082
O 6.27365964 20.50565512 32.75759848 -0.00320517 -0.00041914 -0.00589192
O 2.55921675 24.65814176 32.04803916 -0.00538595 0.00513498 0.00251853
O 6.16443668 20.61996761 8.09061159 0.00239607 -0.00437061 0.00022120
O 5.63408138 14.17702683 8.90708298 0.00016155 0.00119564 -0.00174556
O 2.64207803 17.19715901 17.25305002 -0.00102670 -0.00129688 -0.00497975
O 6.25534675 14.88249232 23.46760711 0.00135743 0.00279866 0.00073087
O 2.96672026 16.55823915 32.00865978 0.00129930 -0.00411314 -0.00086733
O 1.91882441 22.49723982 17.26059915 0.00190015 -0.00088623 -0.00468153
O 7.00775714 21.60803739 26.21412019 -0.00349548 0.00293218 0.00213808
O 2.32976954 22.34307697 25.85366948 -0.00551335 0.00282487 0.00170432
O 5.51742136 21.72235801 18.18759447 0.00463141 -0.00390531 0.00197695
O 7.10502515 16.08258683 31.62292550 0.00427649 -0.00060308 -0.00461679
O 1.71819641 16.13055967 23.42583285 0.00776961 0.00062599 -0.00056295
O 7.08244785 14.12630207 0.57551455 -0.00170182 0.00330142 0.00067998
O 2.05711573 17.16384207 25.66914380 -0.00345734 -0.00015971 -0.00735027
O 2.71717285 23.42160602 23.54183762 -0.00821381 -0.00690066 0.00164284
O 6.12814297 20.07927393 16.28632741 -0.00255128 0.00599029 0.00021141
O 2.28284244 24.37832304 15.47813587 0.00170295 -0.00095826 0.01206552
O 6.40600055 20.26955761 24.03560301 -0.00158280 -0.00233174 0.00144845
O 6.44757866 13.81228793 25.83587385 -0.00025932 0.00337155 0.00008963
O 2.15673511 17.91094378 0.90280117 0.00541466 0.00239732 0.00707669
O 14.21781527 3.02347412 6.74473239 0.00351513 -0.00260032 0.00269176
O 10.85924495 3.69581016 15.89050148 -0.00766967 0.00360909 -0.00092677
O 10.61090591 9.52288684 1.35313878 0.00030670 0.00110518 0.00542272
O 15.68521828 8.87332517 9.72871796 -0.00212421 0.00514680 0.00117158
O 11.18498811 10.17493126 9.22150181 -0.00492288 -0.00515360 0.00309932
O 14.55290980 9.22516852 1.61632079 -0.00927554 0.00194296 -0.00272435
O 15.17922893 3.03329771 15.19241904 0.00259834 -0.00063956 -0.00109295
O 9.85334438 4.02101493 7.56782491 -0.00243385 -0.00188834 -0.00040040
O 15.17492974 1.18200717 16.94362198 0.00387498 -0.00231567 -0.00140286
O 10.42515453 5.27791997 9.61259803 -0.00218585 0.00041860 0.00571839
O 10.14533006 11.56709836 7.42798374 0.00183026 0.00200156 0.00041139
O 15.13394718 7.58218592 32.64151108 -0.00135891 -0.00642034 -0.00291068
O 10.67146756 11.09592381 32.25588815 -0.00778052 -0.00920079 0.00011923
O 14.73040485 7.47923053 7.79116240 0.00383093 0.00285612 -0.00218211
O 14.48772632 1.40215205 8.85356269 -0.00304269 -0.00343621 -0.00716281
O 10.18080150 5.41198421 17.65424923 0.00518129 0.00181468 0.00181691
O 14.55294554 2.34019370 23.40134338 0.00269004 -0.00132670 -0.00080032
O 11.51042095 3.85728186 32.41020991 -0.00098836 -0.00073335 0.00391425
O 10.05981381 10.46529207 17.50960067 -0.00634392 -0.00125781 -0.00146190
O 15.18570488 8.80653642 26.06931870 0.00308176 -0.00304568 -0.00594960
O 11.19992243 10.08420635 25.90540266 -0.00436682 0.00092869 0.00079237
O 14.05780235 9.02871785 18.25032215 -0.00021342 -0.00377414 0.00487791
O 15.08747687 2.47474694 31.78407588 -0.00187759 -0.00378180 0.00218025
O 9.95646174 3.49671633 23.57968867 0.00288889 -0.00358772 0.00069011
O 14.69900490 0.87561870 0.77318171 0.00087064 -0.00035577 -0.00691866
O 10.15852322 4.74088534 26.01223622 0.00439805 -0.00891698 0.00056680
O 10.35900038 11.31652354 23.81233671 -0.00311154 0.00146800 -0.00246686
O 14.37483084 7.83515655 15.87730426 -0.00537550 0.00101501 0.00666217
O 11.00815297 11.57782066 15.28567720 0.00169275 0.00077254 -0.00042400
O 14.83889627 7.21831022 24.18837295 0.00243747 -0.00415083 0.00147816
O 14.42610340 0.72377365 25.70247571 -0.00517172 -0.00533774 0.00301534
O 10.76397360 5.05162385 1.40561232 0.00097845 -0.00280052 0.00546256
O 13.86338899 15.55216051 6.62681225 -0.00440695 -0.00409019 -0.00072644
O 11.01537814 16.57362078 15.98883072 0.00262854 0.00613315 0.00335535
O 10.17387813 23.32545528 1.23621480 -0.00071159 -0.00228389 -0.00179331
O 14.90103773 21.76150183 10.18349223 0.00316575 0.00264750 -0.00200083
O 10.98857480 22.76320847 9.39582518 -0.00325274 0.00688709 0.00178080
O 14.45580498 21.90970931 1.99453190 -0.00156206 0.00160102 -0.00638935
O 15.33407409 15.69054688 15.01575060 0.00369983 0.00522036 0.00417046
O 9.98394932 16.39713508 7.37875540 -0.00204448 0.00276780 -0.00392346
O 15.14436838 14.12204584 17.20189174 -0.00339278 -0.00325180 -0.00145186
O 10.17406144 17.72877475 9.69132502 -0.00050680 -0.00270513 -0.00264751
O 9.93004626 24.26931669 7.38947333 -0.00240201 -0.00028559 0.00228637
O 14.53301248 20.31418830 33.17139208 -0.00278212 -0.00231447 -0.00548057
O 10.88976079 24.24778090 32.21200013 0.00073396 0.00330368 0.00419887
O 15.06118828 20.05864980 8.02551019 0.00426786 -0.00980786 0.00619033
O 14.04185960 14.05043101 9.01575543 0.00227401 -0.00267041 0.00103222
O 10.39537781 17.89163429 18.07037229 0.00054099 -0.00202790 -0.00513546
O 14.61915266 15.50829224 23.37276742 0.00107116 -0.00051744 0.00217736
O 10.91139675 16.59858092 32.06609156 0.01073793 -0.00715193 -0.00028067
O 10.00082906 22.68050250 17.53509040 0.00106691 -0.00409325 0.00504790
O 15.36745631 21.72791990 27.01518202 0.00940827 -0.00059988 -0.00027870
O 11.13614077 22.56137337 26.28300675 0.00034409 -0.00238846 0.00184283
O 14.76942906 21.58785384 18.20057041 -0.00849219 -0.00560660 0.00205959
O 15.60453711 15.71872369 31.58293407 0.00221295 0.00215414 0.00333077
O 9.78010935 16.07647732 23.91006420 -0.00547027 -0.00932774 0.00163880
O 14.94227051 13.91962939 0.50568647 0.00941290 -0.00003337 -0.00944384
O 10.63562013 17.45441281 25.89369217 -0.00226009 -0.00354886 -0.00654653
O 10.62929454 23.67487245 23.99587098 -0.00697409 0.00252642 -0.00208928
O 14.83472321 20.00182016 16.19001573 0.00330598 -0.00125535 -0.00822867
O 10.99554086 23.99797891 15.44405798 0.00100812 0.00684549 0.00001838
O 15.31505928 20.56164159 24.55826621 -0.00302706 -0.00557153 -0.00082953
O 14.98060058 13.88366557 25.43920514 -0.00148596 0.00780997 -0.01357001
O 10.76972103 18.12671829 1.22175213 0.00131525 -0.00349663 0.00296495
O 22.60257694 2.48015813 6.56571797 -0.00389217 -0.00154134 0.00864912
O 19.65564335 3.89666012 15.38307060 -0.00375267 0.00342520 -0.00428975
O 18.55054902 10.35161691 0.82290111 -0.00398428 -0.00163639 0.00396975
O 24.33227075 9.14889408 9.72646863 -0.00001545 -0.00319514 0.00118605
O 19.60576993 10.29906331 9.44556422 -0.00065051 -0.00443257 0.00342599
O 22.95828982 9.40458536 1.14911398 -0.00626829 0.00547052 -0.00012372
O 23.87288577 2.59028811 15.08327333 -0.00157197 -0.00330647 -0.00367029
O 18.66998914 3.59217360 6.72092294 -0.00390653 0.00172079 -0.00092817
O 23.07506013 0.98054871 16.97240097 0.00295379 0.00340012 -0.00744972
O 18.97752280 5.07030880 9.07469696 0.00680920 -0.00117196 0.00664750
O 18.92661130 11.47491416 7.08488895 0.00298943 0.00242613 -0.00048981
O 23.29941516 7.71138945 32.37417291 -0.00046553 0.00179351 0.00649155
O 19.41286159 11.83169003 32.21358999 -0.00573476 0.00252351 0.00598386
O 23.63830130 7.81952179 7.25076915 0.00803037 0.00555164 0.00891565
O 22.76474941 1.41318892 8.98275967 -0.00055561 0.00320811 0.00412333
O 19.09009202 4.90216962 17.56316903 0.00174508 0.00506334 0.00244063
O 22.69765063 2.82351503 23.20817626 0.00467833 0.00054825 0.00839452
O 19.86906723 3.32639926 31.80246198 0.00158198 -0.00106512 0.00181324
O 18.36028660 10.12038628 17.89916228 0.00874856 0.00441525 0.00544314
O 24.42942377 8.98930256 26.29840767 0.00027002 -0.00044574 -0.00104169
O 19.98390808 10.10496104 26.06238663 0.00437266 0.00018678 -0.00128396
O 22.62833868 8.66450248 17.80243607 -0.00008069 -0.00110133 0.00295234
O 23.90175504 2.92010704 31.45080966 0.00189275 -0.01062713 -0.00723044
O 18.46584804 3.35079753 23.58332510 0.00229281 0.00175324 -0.00185949
O 23.81155879 1.38160719 0.38523966 -0.00201676 -0.00732105 0.00378505
O 18.94658471 4.79243218 25.68352850 -0.00788140 -0.00116111 -0.00249258
O 18.94508946 11.39830140 24.08774814 -0.00104671 0.00610301 0.00370198
O 23.41717691 7.33649398 15.75461197 -0.00741912 0.00224794 -0.00036097
O 18.96831864 11.32868085 15.73614303 0.00313334 0.00140527 0.00198708
O 24.07286780 7.80005277 24.09633037 0.00011857 0.00015083 0.00003338
O 23.32012451 1.23457662 25.43457453 -0.00067804 0.00018694 -0.00034278
O 19.43569365 4.86275756 0.62720536 -0.00334174 -0.00241975 0.00063771
O 22.86509528 15.61878716 6.67000037 -0.00296018 -0.00051290 -0.00771646
O 20.08753213 16.49624107 15.65026315 0.00132171 0.00159772 -0.00148065
O 18.65393558 23.22158503 1.05364417 -0.00135112 -0.00753578 0.00216648
O 23.74700207 22.23979444 9.92575890 -0.00297620 0.00446756 -0.00342232
O 19.73884492 22.49890116 9.93232961 0.00109066 0.00294709 -0.00668965
O 23.04054316 22.07755286 1.57984381 0.00432351 0.00400663 0.00147814
O 24.05371253 15.47273918 15.12247916 0.00207802 -0.00413886 -0.00537262
O 18.24517273 16.21709929 7.64264603 -0.00537923 -0.00340730 0.00012757
O 23.43812519 13.93894753 17.28742931 0.00091254 0.00292835 -0.00099680
O 19.06950401 17.65092479 9.60661581 0.00142277 0.00642598 -0.00579902
O 19.54363320 23.71262148 7.61332364 0.00246461 -0.00714689 0.00023631
O 23.23357883 20.44770433 32.74577989 -0.00572007 0.00566149 -0.00205228
O 19.44378445 24.83276073 32.23598929 0.00549412 -0.00020911 -0.00288131
O 23.75825657 20.64045689 7.81680811 -0.00080367 -0.00129302 -0.00444815
O 23.35733370 13.85853471 8.94288842 0.00428195 0.00208882 -0.00377715
O 19.84934896 17.57835938 18.02210696 0.00321151 0.00508267 -0.00033113
O 23.17676286 15.41767436 23.41990928 -0.00295816 0.00278540 -0.00494371
O 19.98886172 16.54436676 32.49820097 0.00113685 0.00155825 -0.00938253
O 19.05431157 22.47364118 17.51739934 0.00427629 -0.00294727 0.00112778
O 24.18524783 21.80925388 26.46807620 -0.00482551 -0.00072194 -0.00083633
O 20.06434284 22.85804565 26.23294294 0.00152300 -0.00545614 0.00480394
O 23.01930505 21.85852218 18.21333332 0.00338485 0.00090521 0.00348296
O 24.07062386 15.41392950 31.82091667 -0.00331954 -0.00524347 0.00042124
O 18.54331440 16.53225511 24.41411764 -0.00300106 0.01044867 0.00298466
O 23.19830134 13.95604834 0.65974218 0.00060453 -0.00437760 -0.00427006
O 19.22410009 18.00318708 26.38196548 -0.00535756 -0.00040390 0.00068322
O 19.27036446 23.85863314 23.83323670 0.00222315 -0.00198815 -0.00446087
O 23.36805835 20.43044343 15.90901318 0.00163821 -0.00839660 -0.00063144
O 19.15866559 24.33811356 15.82782144 0.00081479 0.00285318 0.00410779
O 24.18612133 20.13695239 24.40118267 0.00419605 -0.00435086 -0.00055257
O 23.31833622 13.93113471 25.60583006 0.00559836 0.00831275 0.00013978
O 19.11984256 17.93819022 1.27841690 0.00013554 -0.00180132 -0.00163257
N 7.14169066 12.58000550 2.37722376 -0.00247465 -0.00232032 0.00287297
N 0.87872438 5.84726578 10.72772582 0.00033579 -0.00397096 -0.00153126
N 2.91299475 0.37606786 5.36887838 -0.00470226 -0.00158051 -0.00759199
N 5.13530975 6.38567686 14.01205136 0.00357638 -0.00271550 0.00313126
N 1.00625220 0.09266510 13.98889415 -0.00108215 0.00212830 0.00382583
N 7.33691674 6.55617139 5.94731849 -0.00393327 -0.00009536 0.00096895
N 5.28036290 12.69438968 10.62195811 -0.00073507 -0.00050408 0.00168025
N 3.23065553 6.35890616 2.26480363 0.00603107 -0.00336618 -0.00094400
N 7.58633725 12.37214747 18.80491835 0.00266261 -0.00594203 0.00780743
N 1.03869462 6.26889851 27.19140854 -0.00116545 -0.00005325 0.00454616
N 3.11738681 25.18367898 22.04258641 -0.00253116 -0.00772136 -0.00218846
N 5.32140998 6.40909822 30.99099698 0.00192208 -0.00441500 0.00735817
N 1.08232152 25.30915633 30.39007167 -0.00645073 -0.00250769 -0.00589325
N 7.91181380 6.38212203 22.34965432 -0.00515064 0.00231230 -0.00578701
N 5.25255159 12.90463247 27.50545664 -0.00067190 -0.00261193 -0.00076568
N 3.37713262 6.19692987 18.90597298 0.00160218 0.00425725 -0.00751354
N 7.54535189 0.20075171 2.17029516 -0.00210062 -0.00049266 -0.00086805
N 0.87041918 18.84045720 11.04209998 0.00408654 -0.00251481 0.00206216
N 3.24641122 12.58027930 5.52511814 0.00741900 0.00367287 0.00697365
N 5.54289631 18.76851047 14.55104091 -0.00116784 0.01147724 0.00289639
N 1.15590983 12.63228674 14.28892120 0.00221466 0.00784241 -0.00597075
N 6.91502447 19.18057621 6.42265692 -0.00247762 0.00186514 0.00526151
N 5.42266409 0.01316752 10.76147812 -0.00384730 -0.00481394 -0.00452221
N 3.35262585 18.97604288 2.56153335 -0.00541802 0.00086841 0.00620985
N 7.75336390 25.23091626 18.86127838 0.00224220 0.00138240 -0.00129100
N 1.17436823 18.57025656 27.21379938 0.00665528 0.00344500 -0.00778772
N 3.48628403 12.53599509 22.44915322 0.00388886 0.00897883 -0.00565836
N 5.32632878 19.27548773 30.99885926 -0.00586590 -0.00153833 -0.00258886
N 0.92466036 12.46122180 30.62920668 -0.00339752 -0.00161672 0.00177604
N 7.50239955 19.06418428 22.46646786 0.00447954 0.00931249 0.00544041
N 5.21777759 0.37930695 27.06346682 0.00057737 -0.00240063 0.00016393
N 3.46942765 18.63920538 18.90235905 -0.00310743 0.00436567 0.00526954
N 15.69562144 12.67382767 2.23730935 -0.00386906 0.00399071 0.00037099
N 9.13228059 6.24347749 11.22452125 -0.00415450 0.00244887 -0.00173358
N 11.42591634 25.30383654 6.05262773 -0.00193986 -0.00224580 -0.00295627
N 13.51134995 6.56635988 14.11615459 0.00160743 0.00227139 -0.00200912
N 9.70320428 25.26595640 13.99878687 -0.00356333 -0.00201315 -0.00491461
N 15.80608301 6.36419578 6.16808806 -0.00560796 0.00156839 -0.00501141
N 13.55002631 12.68454519 10.72113825 -0.00748232 0.00108174 -0.00586970
N 11.93154686 6.33655107 2.96323096 0.00091600 -0.00523115 0.00120952
N 16.15460818 12.77490248 18.80057196 -0.00999079 0.00034334 -0.00226919
N 9.49981922 6.09056032 27.68819419 0.00211196 0.00248473 0.00261224
N 11.98631958 24.55506246 22.35545821 -0.00558524 0.00097508 0.00053687
N 14.28385334 6.31758710 30.94315866 0.00042508 0.00335480 0.00242806
N 9.54538020 25.37266610 30.75120973 -0.00829273 -0.00048455 -0.00254595
N 15.94675966 6.11607605 22.51264493 -0.00082521 -0.00673579 -0.00765413
N 13.88450821 12.78805254 27.16559325 0.00319444 -0.00615778 0.00211880
N 11.69418519 6.30486905 19.12066946 0.00223597 0.00170071 -0.00022256
N 15.89806416 0.05573831 2.56076304 -0.00324585 0.00209576 -0.00119730
N 9.42488240 19.13126235 11.34699902 0.00351812 -0.00508741 0.00675427
N 11.54366023 12.61764259 5.90332809 0.00391398 0.00366795 0.00874085
N 13.91187782 18.65741171 14.67655227 0.00230520 -0.00332310 0.00208914
N 9.43044716 12.53560929 13.90110318 0.00288924 -0.00034472 -0.00302205
N 15.83127530 18.78298952 6.28547734 -0.00022122 0.00516091 0.00016330
N 13.97462476 0.02477347 10.61156259 0.00123467 0.00209359 -0.00007362
N 11.31810112 19.42442902 2.93166796 -0.00307714 -0.00410995 0.00064248
N 16.05429103 25.24632971 18.63259132 0.00014095 0.00348838 -0.00480476
N 9.60758472 18.93583209 27.25351041 -0.00772160 -0.00356130 -0.00448678
N 11.58361455 12.54539893 22.29357824 0.00982116 0.00248246 -0.00535069
N 13.86216334 18.87954771 31.47986245 0.00268600 -0.00211536 0.01002401
N 9.77316515 12.49361767 30.66356410 0.00197539 -0.00454828 0.00021926
N 16.15859372 19.09024585 22.96585412 -0.00504711 -0.00186569 0.00076299
N 13.52861245 24.88084923 27.35202398 0.00415459 0.00046998 0.00053626
N 11.96825950 18.61237723 19.44498395 -0.00588993 0.00315694 0.00524434
N 24.52165698 12.80915050 2.10430005 0.00587645 -0.00200599 0.00625698
N 18.00716689 6.42369639 10.71457923 -0.00385734 0.00778718 -0.00361523
N 19.92426626 25.23907878 5.98640421 0.00357466 -0.00018560 0.00038162
N 22.36960026 6.28636771 13.98443411 -0.00524238 -0.00341573 -0.00376775
N 18.05424354 0.00187318 14.16490213 0.00071122 0.00522671 -0.00834293
N 24.29830157 6.41062022 5.60402000 0.00289296 0.00229256 -0.00216550
N 22.17700535 12.89804856 10.66205613 -0.00503490 -0.00997391 -0.00373331
N 20.20149178 6.28603196 2.23865133 -0.00123653 -0.00261058 0.00008251
N 24.31637314 12.53303218 18.82505807 -0.00639949 -0.00762982 0.00310143
N 18.07119186 5.98691707 27.39690602 -0.00148450 -0.00694714 0.00246925
N 20.26408185 25.04807721 22.19586914 -0.00993533 -0.00150168 -0.00513797
N 22.48990072 6.29142424 30.68216640 -0.00022408 -0.00155732 -0.00787580
N 17.98125687 0.24294443 30.61879374 0.00678291 -0.00156575 0.00403557
N 24.83774294 6.40926204 22.38126796 0.00114670 -0.00424963 -0.00395180
N 22.34456795 12.71399527 27.29303588 -0.00022133 0.00299905 0.00458073
N 20.36514354 6.07567231 19.11007144 -0.00232653 -0.00163982 -0.00159043
N 24.41060213 25.26082385 2.01301229 0.00951208 -0.00526972 0.00155669
N 17.70326746 18.75805334 11.15034196 0.00281216 0.00343087 0.00221554
N 20.35505073 12.46226954 5.58243724 0.00264264 0.00218881 0.00645502
N 22.07656275 19.45990298 14.34874297 0.00086643 0.00778544 0.00349208
N 17.65398776 12.41156379 14.22210533 0.00429974 -0.00215197 0.00098527
N 24.36859434 19.12194449 6.11549846 0.00060970 -0.00508121 0.00089732
N 21.97739007 0.11071284 10.58938751 -0.00369739 -0.00243922 0.00065011
N 20.21094689 18.78436930 3.13387367 -0.00316733 -0.00527266 0.00338701
N 24.44852213 0.14062636 18.69837866 -0.00153247 0.00367684 0.00543691
N 18.22870891 19.25325740 27.89234491 -0.00550889 -0.00362378 0.00141804
N 20.45713857 12.16326921 22.57517006 0.00245723 -0.00756905 -0.00766021
N 22.51511515 19.06191652 31.11148286 0.00238468 0.00361635 -0.00540629
N 18.17812334 12.81670020 30.51163476 0.00768816 0.00425782 0.00066887
N 24.69145674 18.84129044 22.59380994 -0.00144055 0.00123196 -0.00208478
N 22.50832232 25.20847954 27.04250548 0.00113002 0.00001085 -0.00107025
N 20.94101948 18.55973969 19.75988930 0.00376405 -0.00445390 0.00036194
C 7.38845858 0.42527080 4.59214110 -0.01224270 0.00303696 0.00253277
C 1.01938340 5.64471596 13.08609500 0.00620098 -0.00344485 -0.00175081
C 3.24679447 12.45607149 3.12135293 0.00112549 -0.00180281 0.00697405
C 5.14573503 6.90780929 11.65356934 0.01818443 0.00243960 -0.00264920
C 1.07182391 12.57209523 11.95875273 0.00138310 0.00044331 -0.00299305
C 7.53701689 6.93698436 3.62788007 0.00169040 0.00082109 0.00373475
C 5.40418268 0.58547661 13.10685244 0.00063654 0.00147965 0.00287749
C 3.29605464 5.99742773 4.50025374 -0.00596087 0.00783553 0.01053365
C 7.02636366 1.07242830 5.72607928 0.00143563 -0.00289371 0.01066693
C 1.40866399 5.02231105 14.23025030 -0.00086655 -0.00449808 -0.00489351
C 2.92062165 11.87004348 1.93976269 -0.00124697 -0.00416570 0.00443256
C 5.49116389 7.63941212 10.58064572 0.00356458 0.00419452 -0.00390705
C 1.16200083 11.98289787 10.75160109 -0.00016209 -0.00195482 -0.00556268
C 7.22697537 7.70526425 2.44589158 0.00434068 0.00409921 -0.00071022
C 5.92171978 1.18264541 14.26171008 -0.00445139 0.00114629 0.00013304
C 2.84757106 5.37256422 5.65567501 -0.00617596 -0.00510687 -0.00420021
C 6.38459789 2.26921757 5.71820426 -0.00024692 -0.00326548 0.01085547
C 2.32890705 3.97824966 14.13262713 0.00270307 -0.00152031 -0.00670050
C 1.99772962 10.75525480 2.04669778 -0.00918323 0.00545522 0.00011733
C 6.29426369 8.80420857 10.79259703 0.00220451 0.00217238 0.00046306
C 1.79476781 10.69821541 10.73791045 -0.01286915 0.00686717 -0.00266644
C 6.40609735 8.80303590 2.50583190 -0.00562526 0.00607381 -0.00449820
C 6.81782438 2.29862165 14.09920600 -0.00486198 0.00100688 0.00071216
C 1.90201116 4.31689584 5.63542500 0.00232774 -0.00050998 -0.00301514
C 6.04943537 2.82512474 4.48870372 0.00769295 -0.00373862 0.00231920
C 2.62554605 3.46066395 12.87811733 0.00315054 -0.00457265 -0.00156366
C 1.67664850 10.23414229 3.27443121 -0.00604073 0.00915603 -0.01295439
C 6.63829771 9.12728911 12.11219864 -0.00292383 0.00267492 -0.00530448
C 2.17516380 10.03058182 11.87053415 0.00079159 0.00896498 0.00200093
C 5.84104565 9.12361746 3.74596997 -0.00707226 -0.00985517 -0.00808785
C 7.09815845 2.70075425 12.77226819 0.00137036 -0.00317656 0.00280052
C 1.45397117 3.79520128 4.35761277 -0.00497403 -0.00688687 0.00366495
C 6.39750017 2.14246097 3.28820337 0.00469372 0.00074791 -0.00353333
C 2.14748402 4.01841327 11.72261557 -0.00225592 -0.00504331 0.00353815
C 2.11384618 10.75428557 4.45873188 0.00209083 0.00343624 -0.00093333
C 6.16749197 8.47037762 13.20537766 -0.01033390 0.00957914 -0.00106292
C 2.10188867 10.62528716 13.07573579 0.00303389 -0.00149952 -0.00556471
C 6.17393936 8.52376303 4.90757656 -0.00193538 0.00353043 0.00390941
C 6.55373376 2.06428114 11.60597489 0.00205716 -0.00177808 0.00478393
C 1.98319889 4.38459245 3.22739127 -0.00480602 -0.00902049 -0.00195844
C 7.16249366 0.94320059 3.27938163 0.00094864 0.00293337 0.00298976
C 1.38462566 5.12486496 11.79796556 0.00318486 -0.00457450 -0.00323675
C 2.79562288 11.98310551 4.35653086 -0.00249038 -0.00119248 0.00264610
C 5.49540780 7.27366331 13.00582090 0.00630120 0.00886481 -0.00658084
C 1.45622043 11.92606167 13.16611460 -0.00541937 0.00612336 0.00435742
C 7.03794570 7.31237709 4.84403466 0.00352216 0.00221514 -0.00254075
C 5.76096458 0.90582607 11.77272055 0.00328160 0.00469586 -0.00309420
C 2.80902262 5.53784925 3.30402986 -0.00515589 0.00087969 -0.00217199
C 7.03884083 0.46768756 0.95672569 -0.00143755 -0.00110203 -0.00486153
C 1.53919482 5.81792154 9.47217405 0.00002210 -0.00721033 -0.00129465
C 2.45816268 12.69208491 6.63501930 0.00158006 0.00285268 0.00245727
C 5.44461583 6.61086613 15.31976219 0.00914349 -0.00290838 0.00596711
C 1.74943677 12.39209475 15.53616122 0.00585994 -0.00022612 0.00883288
C 6.97231123 6.87954433 7.19515202 0.00507430 -0.00289863 0.00227276
C 5.90237415 0.24444713 9.47618327 0.00181418 -0.00199941 0.00708468
C 2.62861635 6.31384362 1.08353733 -0.00975331 -0.00596728 0.00232978
C 7.00011068 11.62721215 16.59521674 0.00229640 -0.00764684 0.00707817
C 1.65912491 7.10013312 8.68305998 -0.00050203 0.00509465 -0.00096763
C 2.84334749 1.29944214 7.60972723 0.00235119 -0.00036520 0.00200659
C 5.89925327 5.42731197 33.05643273 -0.00706465 0.00018614 0.00097830
C 1.40529240 1.37757375 32.24428099 -0.00489317 -0.00596765 0.00489588
C 6.84521490 5.62353586 8.09738185 0.00630867 -0.00351853 -0.00298715
C 5.32996701 11.90884250 8.38499252 0.00205216 0.00113886 0.00828040
C 2.72330511 7.22574914 16.66763256 -0.00440501 -0.00435614 0.00101959
C 7.65945770 0.14343623 21.21494262 -0.00014335 -0.00189531 0.00323980
C 1.11382509 6.23705958 29.64485285 -0.01060845 -0.00228670 -0.00336932
C 3.38014142 12.18536553 20.07196868 -0.00143555 0.00386726 0.00513193
C 5.10322275 6.70242188 28.66316639 0.01071237 -0.00819017 0.00448583
C 0.85737365 12.05049169 28.24108125 -0.00049906 0.00270370 -0.00140896
C 7.56188048 6.63734786 19.97420917 0.00234650 0.00116162 -0.00354850
C 5.16584305 0.72800268 29.45128854 -0.00429848 -0.00250552 0.00001422
C 3.55668877 5.87656601 21.25348674 0.00433939 0.00037699 0.00135870
C 7.11103819 0.79329340 22.30019581 -0.00924440 -0.00353631 0.00133554
C 1.53690935 5.74689216 30.82213442 0.00357825 -0.00885209 0.00627420
C 2.99194843 11.52722588 18.88535188 0.00035072 0.00109006 0.00796161
C 5.42509774 7.25466648 27.46840432 -0.00172983 -0.00680096 0.00574877
C 1.28714002 11.48930452 27.04875701 -0.00329367 -0.00099436 -0.00547297
C 7.23501125 7.36103291 18.88881980 0.00198278 -0.00450788 0.00111358
C 5.60488891 1.34468794 30.60219307 0.00229447 0.00389195 0.00233006
C 3.13021299 5.32965855 22.46373466 0.00055128 0.00225339 -0.00322951
C 6.27006271 1.92477871 22.18654974 -0.00852080 -0.00402143 -0.00507753
C 2.22617330 4.48929749 30.89533476 -0.00460849 0.00071221 0.00339684
C 2.17540335 10.42973092 18.98462902 -0.00303587 0.00135768 0.00684869
C 6.37588597 8.31785144 27.44398290 0.00021003 0.00018018 -0.00298173
C 2.12098409 10.34065419 27.14446573 0.00817154 0.00096514 -0.00016365
C 6.43585182 8.53431990 19.02971324 0.00522035 -0.00118382 -0.01058305
C 6.49691002 2.49827407 30.52212958 0.00527351 0.00290223 0.00186618
C 2.15823872 4.30228853 22.49469377 0.00212908 -0.00471169 -0.00317246
C 6.03884072 2.37402030 20.92877106 0.00039972 0.00761347 -0.00375910
C 2.39576005 3.88601845 29.68482220 0.00113350 0.00434086 -0.00601675
C 2.05655509 9.84640890 20.27397247 0.00381336 -0.00103347 0.00014856
C 6.64204000 8.96761373 28.66802613 -0.00928850 -0.00480769 -0.01328951
C 2.61676570 9.95231253 28.40108270 0.00114370 -0.00023051 0.00174979
C 6.13591152 8.93838300 20.35818106 0.00053787 -0.00564580 -0.00709372
C 6.59362333 3.09006808 29.21818746 -0.00854548 0.00547836 0.00558078
C 1.75659769 3.74127183 21.27756218 -0.00630810 -0.00603841 -0.00395423
C 6.62252269 1.77029612 19.83802758 -0.00694539 -0.00180216 0.00353262
C 1.94877571 4.37335402 28.49971754 0.00636175 -0.00353964 0.00737226
C 2.55411907 10.39886492 21.44991246 0.00008544 -0.00561018 0.00958540
C 6.36748000 8.33549746 29.85036736 -0.00526468 -0.00723452 0.00262071
C 2.17350523 10.56785848 29.57377631 -0.00205267 0.00259771 0.00339509
C 6.76103688 8.36111028 21.39906852 0.00113698 -0.00404405 -0.00601632
C 6.26983343 2.36397335 28.13328193 0.00588525 0.00110456 0.00137279
C 2.23260122 4.25754858 20.08899279 -0.00044586 -0.00364086 0.00307175
C 7.39361127 0.64152892 19.95540571 0.00871007 0.00276351 0.00129172
C 1.42365484 5.61988183 28.38712191 0.00049017 -0.00018836 0.00196094
C 3.08705408 11.70170328 21.32766598 0.00657159 0.00210421 0.00113903
C 5.55667589 7.20674287 29.90844658 0.00117533 -0.00342236 0.00572493
C 1.31470143 11.68646118 29.49047565 0.00403100 -0.00600731 -0.00350693
C 7.42096068 7.09220601 21.26203113 -0.00333320 0.00055224 0.00088490
C 5.62531154 1.09579051 28.18180141 -0.01112288 -0.00094038 0.00842718
C 3.07537849 5.41518814 20.05144951 0.00479519 -0.00506847 0.00154305
C 7.33636127 0.12853469 17.57221146 0.00399351 -0.00091389 -0.00109182
C 1.67355428 5.96225005 26.01515094 -0.00932864 0.00037483 0.00388044
C 2.91579870 12.36379145 23.67767371 0.00769514 -0.00506180 0.00481020
C 5.94086593 6.65531376 32.20070452 0.00447085 0.00291724 0.00116667
C 1.54332764 12.53403317 31.86241080 0.00160691 -0.00398777 0.00557749
C 7.34162020 6.54004742 23.56768867 -0.00236580 0.00847483 -0.00376300
C 5.86414324 0.44850703 25.88153285 -0.00130480 -0.00080627 -0.00228564
C 2.81350064 5.98549339 17.63179298 -0.00291485 0.00487801 0.00628818
C 7.50152954 11.83267374 0.09111453 0.00253965 -0.00910944 0.00051742
C 1.67320675 7.01364652 24.96024521 -0.00205510 -0.00180091 -0.00023743
C 2.82837030 0.25370197 24.40295674 0.00442021 0.00399297 0.00681930
C 5.58925885 5.38643307 16.21518926 0.00155497 -0.00029030 0.00162916
C 1.34225263 1.08968688 16.20768284 0.00194588 -0.00386133 -0.00461229
C 7.03518471 5.33381936 24.38016284 -0.00138336 -0.00613350 0.00441473
C 5.59322178 11.61164059 25.40124220 0.00231386 -0.00266316 -0.00141171