1920
Time=54000.00000004 pbc="T T T" Lattice="25.40973443 0.00000000 0.00000000 0.00000000 25.70073954 0.00000000 0.00000000 0.00000000 33.05662754" energy=-12251.09525049 virial="-24.63490465 15.82607083 -1.74325084 15.82607083 -74.22083673 -4.91137783 -1.74325084 -4.91137783 -36.87299017" stress="0.00098994 0.00072000 -0.00001971 0.00072000 -0.00121389 -0.00022692 -0.00001971 -0.00022692 0.00054201" Properties=species:S:1:pos:R:3:vel:R:3
O 6.03030846 2.54859600 7.06227205 -0.00317120 0.00006121 -0.00770494
O 2.39408623 3.50573626 15.45157906 -0.00166440 -0.00349367 0.01589628
O 1.72706104 9.84243358 1.82381870 0.00240946 0.00564327 -0.00303018
O 7.27874404 9.03095841 9.87578792 -0.00279478 -0.00598397 -0.00455385
O 2.62636388 10.36951415 9.96268325 -0.00281254 -0.00035289 -0.00220595
O 6.16331948 9.10018479 1.58620500 -0.00039100 -0.00105400 -0.00721532
O 7.09899206 2.71878778 14.88201215 0.00023649 -0.00505064 -0.00231956
O 1.40027872 3.83069458 7.21380519 -0.00112795 -0.00592460 -0.00162091
O 7.12528573 1.24332417 16.95679567 -0.00234682 -0.00799135 -0.00301709
O 2.36097020 5.07577319 9.32220076 0.00085381 -0.00930924 0.00593680
O 2.16217264 11.82168796 7.96058563 -0.00017459 -0.00147372 0.00427665
O 6.10593998 7.85732742 32.50896973 -0.00336735 0.00116975 -0.00239960
O 1.81063952 11.34505213 32.74751403 -0.00106865 -0.00577038 0.00172715
O 6.78971691 7.42895024 7.85839278 -0.00276782 -0.00735209 0.00597585
O 6.61768744 0.97866866 8.97356462 -0.00288828 0.00171272 0.00936109
O 2.18368832 4.89639177 17.58638585 -0.00109004 -0.00276706 -0.00544275
O 6.16718544 2.52776146 23.20731058 -0.00101567 -0.00199030 -0.00013880
O 2.67213011 3.96886930 31.99838701 0.00356359 0.00246506 -0.00117450
O 1.52276686 9.84719211 18.26575485 -0.00240426 -0.00149920 -0.00327214
O 6.40294356 9.35347724 26.15252610 -0.00311142 -0.00420863 0.00336809
O 2.36489235 10.23765232 26.34731022 0.00096369 0.00066053 -0.00184645
O 5.60413639 8.46562104 17.97352271 -0.00676368 0.00443215 0.00147559
O 7.12070132 3.24765335 31.36225494 0.00448868 0.00321855 -0.00224763
O 1.52617472 3.76712694 23.89415464 -0.00129669 -0.00071117 0.00291291
O 7.17147909 1.67225839 0.50486164 -0.00051144 -0.00667693 0.00213963
O 2.16200861 5.21962741 25.80541848 0.00227035 0.00145087 0.00236630
O 2.10677520 12.03303617 24.29463443 0.00128906 0.00107659 0.00407937
O 6.67869635 7.20572312 16.01909042 -0.00226090 -0.00158925 0.00214225
O 1.81054660 11.58073697 16.22061123 0.00345652 0.00213229 0.00217594
O 5.69689037 7.38939571 23.91953730 0.00145562 -0.00547738 -0.00177619
O 6.39708075 1.19910958 25.49216950 -0.00769279 0.00550491 -0.00152435
O 1.94298327 5.24394240 1.06066804 0.00358951 0.00449856 -0.00554239
O 5.88962858 15.60332125 7.32437190 -0.00278889 -0.00039834 0.00097635
O 2.65989443 16.26644493 15.04456435 -0.00218275 0.00442059 0.01324856
O 1.57224803 22.75740412 0.85938985 0.00574048 -0.00367276 0.00484610
O 6.89218723 21.93433722 9.31482779 0.00715004 0.00424298 -0.00131984
O 2.48697828 23.05894919 9.18323151 -0.00095108 -0.00192450 -0.00256892
O 5.68899729 22.38530166 0.79616903 -0.00060969 0.00376974 -0.00544423
O 7.27980098 15.44081558 15.65531419 -0.00035930 -0.00547814 -0.00491995
O 1.69024630 17.10223944 6.80917590 0.00158051 -0.00427441 0.00005130
O 6.22234504 13.85825523 17.45464880 -0.00388590 -0.00045076 -0.00309626
O 2.06385967 18.39624463 9.02389206 -0.00436404 0.00637442 0.00002818
O 2.20094566 24.49518362 7.02058450 -0.00024114 -0.00135549 0.00421304
O 6.24851061 20.92243862 31.94276855 -0.00008846 -0.00161209 0.00149387
O 2.07419202 24.33272980 32.01344745 -0.00182255 -0.00116090 -0.00332120
O 6.56653184 20.70918123 6.89412060 -0.00330944 -0.00163075 0.00444963
O 5.73765196 14.39730799 9.55208364 0.00847091 -0.00103405 0.00476760
O 2.40915126 17.70345834 17.24286597 0.00267434 0.00342806 -0.00055182
O 5.98974729 15.67081595 23.59638951 -0.00374832 -0.00261374 -0.00192387
O 2.41463443 16.40386812 31.50777941 -0.00112910 -0.00531870 0.00038691
O 1.18642421 22.97710427 17.39682536 0.00624743 -0.00598304 -0.00283407
O 6.76511787 21.96776837 25.80540270 -0.00136019 0.00066130 0.00237987
O 2.74059463 23.34533829 25.69776851 -0.00589555 0.00036933 0.00121598
O 5.76694489 21.93319550 17.32757654 0.00092968 0.00888344 -0.00254750
O 6.53927934 15.71308366 32.23355133 -0.00885504 -0.00081241 0.00308784
O 1.65457492 16.61105236 23.40186401 -0.00483541 -0.00521065 -0.00231614
O 6.83145224 14.25276021 1.21316455 0.00109315 0.00130452 -0.00191720
O 2.21499936 18.18029938 25.48765944 0.00350805 -0.00569004 -0.00324338
O 1.94612416 24.47814368 23.41907098 0.00183858 -0.00031988 -0.00058679
O 6.62763089 20.24305629 15.40857883 -0.00275859 0.00112396 0.00117154
O 2.04052125 24.36095591 15.33809918 -0.00245028 0.00302321 -0.00099703
O 6.29568030 20.69044074 23.52909383 -0.00051657 -0.00093449 0.00258680
O 5.96922376 14.39582842 26.04721221 -0.00464207 -0.00285298 -0.00392237
O 2.53032741 17.87576755 0.51058706 -0.00029046 -0.00564964 0.00676012
O 14.35486285 2.66890890 6.56521336 -0.00043963 -0.00079195 0.00371820
O 10.85070228 3.73763189 15.49378448 -0.00330945 -0.00281259 -0.00487851
O 9.81164826 10.28733966 1.36767087 0.00102377 -0.00238002 0.00294769
O 15.39755155 9.13243763 9.92571405 0.00223343 -0.00394787 0.00403427
O 11.09081511 10.00620172 9.46316848 -0.00618181 -0.00290560 -0.00490966
O 14.21601671 9.40933136 1.40212949 0.00185825 -0.00553869 0.00308153
O 15.41327272 3.23841519 14.81640808 0.00131480 -0.00696525 -0.00010196
O 10.23240585 3.73154782 7.21898654 -0.00018547 0.00253642 0.00630813
O 15.18353502 1.67224389 17.11524127 -0.00375451 0.00644557 0.00560086
O 10.90501058 5.01079695 9.25709606 -0.00045673 -0.00103248 0.00682950
O 10.42354194 11.57592165 7.30840321 -0.00337477 -0.00427632 0.00877943
O 14.74871293 7.80084377 32.53296386 0.00555804 0.01057312 0.00371822
O 10.56267918 11.65393899 32.36725909 -0.00456136 0.00248566 0.00755240
O 15.24231545 7.82920258 7.58646397 0.00511188 0.00039534 0.00837935
O 15.08629329 1.20144700 8.69635260 -0.00131006 -0.00199662 -0.00535546
O 9.91604439 5.43133782 17.56304333 0.00502757 -0.00715339 -0.00190835
O 14.55465062 2.89857454 23.27663474 -0.00257825 0.00444038 0.00066572
O 11.21504119 3.95682904 31.96242456 -0.00108408 0.00063583 0.00113217
O 10.20043397 10.50550256 17.95818899 0.00486336 0.00427147 0.00375336
O 14.78986645 9.29999349 25.95189931 -0.00032211 0.00437158 0.00824749
O 10.21886009 10.08302970 26.13196346 -0.00195282 -0.00461971 -0.00280106
O 13.82229209 8.70102250 17.93677935 -0.00047049 -0.00024335 -0.00176550
O 15.53465334 2.73554736 31.38538781 0.00926249 -0.00196440 0.00214633
O 9.69374436 4.10710636 23.52988942 -0.00187455 0.00359364 -0.00407100
O 14.82730673 1.14340607 0.42382453 0.00171447 0.00204228 0.00230634
O 10.66427969 5.15965118 25.73235452 -0.00092571 0.00258147 -0.00000937
O 10.35222911 11.71481051 24.04365400 -0.00296289 0.00458957 -0.00195222
O 14.73882941 7.51139188 15.92531546 0.00221983 -0.00080086 0.00241370
O 10.25892834 11.33290170 15.60733882 -0.00351191 -0.00172250 -0.00109732
O 14.67735445 7.75310552 24.12288088 0.00134235 0.00484595 -0.00316106
O 14.47090250 1.40741069 25.31013927 -0.00311164 -0.00516663 0.00046825
O 10.69096725 5.39119434 1.07748979 0.00068223 0.00289405 -0.00002786
O 14.09255790 15.59834276 7.22725969 -0.00168772 0.00776288 -0.00318647
O 10.75654320 16.56271424 15.11379471 -0.00266985 -0.00847562 -0.00579233
O 9.79486107 22.92143504 0.91045685 -0.00677776 -0.00349804 0.00449933
O 15.41012438 21.90882697 9.43654769 0.00026284 -0.00229051 -0.00173747
O 11.51143657 22.69840404 9.17746204 -0.00265367 0.00054243 0.00033375
O 14.38457976 21.90502073 1.06533673 0.00100095 0.00958354 0.00579893
O 15.15491394 15.66430323 15.37631203 0.00230600 0.00925229 0.00664054
O 10.34315975 16.41200603 6.59699735 0.00262367 -0.00275063 -0.00090077
O 14.80948013 14.11746307 17.35386667 -0.00168729 0.00021097 0.00312318
O 10.25381914 17.85006367 8.74696936 -0.00381943 -0.00561560 0.00210962
O 10.55456932 24.40849376 7.07505478 0.00009643 -0.00129247 -0.00659310
O 15.10702811 20.39456495 31.88987231 0.00045759 -0.00470576 0.00129623
O 9.76759948 24.36724690 31.74489108 0.00267052 0.00331463 0.00678146
O 14.83263301 20.42439131 7.36318894 -0.00428505 -0.00214443 0.00131809
O 14.48031528 14.14096242 9.34224319 -0.00037312 0.01658575 0.00077883
O 10.52786983 18.22630777 17.28619531 0.00881544 0.00236323 0.00554722
O 14.04382235 15.60422777 23.55556008 -0.01061149 0.00018903 0.00351543
O 11.38596487 15.96544183 31.21955311 0.00174588 -0.00020761 0.00135661
O 9.88318493 23.12154180 17.36420099 -0.00627680 0.00416860 0.00546559
O 14.94434106 22.15760600 26.00130775 -0.00194552 -0.00133320 0.00534385
O 11.20749990 22.88807108 25.53774922 0.00134219 0.00476870 0.00089980
O 14.85485892 22.02394232 17.36848366 0.00615964 0.00427015 0.00103012
O 15.72556958 15.29854780 31.90287208 0.00157293 0.00440585 -0.00066944
O 10.18299206 16.20645714 23.18989894 0.00382649 0.00522248 0.00020381
O 14.96469931 14.06042461 1.13160608 0.00070287 -0.00607571 0.00474116
O 9.85461541 17.78334537 25.28926664 0.00863826 0.00240668 -0.00199781
O 10.80790950 24.47812716 23.55642530 -0.00160684 -0.00333882 -0.00094109
O 15.20732346 20.44394935 15.42344744 0.00283720 0.00337449 0.00112635
O 10.81624334 24.37098794 15.15142431 0.00278282 -0.00477674 0.00977930
O 14.95844626 20.68931985 23.70317164 0.00561776 0.00347697 -0.00514648
O 14.72637609 14.33509980 25.77964342 -0.00117845 -0.00022006 0.00034500
O 10.94000725 17.66810079 0.41802863 0.00205818 0.00906246 0.00026612
O 22.85029653 3.23449223 6.68933155 -0.00068819 0.00475084 0.00266568
O 19.24891903 3.24249286 15.45898945 -0.00082573 -0.00436736 -0.00223612
O 18.59866504 10.15769527 1.73466295 -0.00265395 -0.00017216 -0.00032241
O 23.78502768 9.50734710 9.92698574 0.00664603 0.00133631 -0.00412183
O 19.83877787 10.15141899 9.56570766 0.00839215 -0.00402167 -0.00402987
O 22.80044373 9.01897129 1.53974836 -0.00387347 -0.00188329 0.00282868
O 23.58487366 2.68951271 14.86377374 -0.00340615 -0.00221587 0.00070526
O 18.68245497 3.83901920 7.00286350 -0.00619792 -0.00064924 0.00085022
O 23.82136300 1.53345295 17.11728648 -0.00143923 -0.00332399 -0.00021206
O 18.62163075 5.16805976 9.30240126 -0.00763329 0.00098706 -0.00278217
O 18.90530218 11.92571572 7.64322022 -0.00103884 0.00333555 0.00058561
O 23.27150983 7.66281350 32.42321784 0.00183615 -0.00664932 -0.00179919
O 19.14366353 11.35780905 32.51624854 -0.00705918 -0.00197580 0.00729986
O 23.88150625 7.89412169 7.84694860 0.00419156 -0.00284634 -0.00525071
O 22.63179948 1.51332849 8.63822119 -0.00161010 0.00469835 -0.00288989
O 19.38606684 4.83716751 17.33203922 -0.00405864 0.00128284 -0.00316065
O 23.02322668 3.03457345 23.35316676 0.00197624 0.00317756 0.00166217
O 19.88965058 3.78212419 31.71056274 -0.00098940 0.00022147 -0.00132224
O 18.54507004 10.06319481 17.90784084 0.00417045 -0.00327689 0.00094182
O 23.92490644 9.12354765 26.18764024 0.00326534 0.00098880 0.00252743
O 19.20125970 10.49835014 26.22080962 0.00036400 -0.00466432 -0.00297332
O 22.96805040 9.36474582 18.01006207 0.00097247 -0.00127450 0.00415000
O 23.71668439 2.39431032 31.51433659 0.00826422 -0.00759189 0.00449878
O 18.71099645 4.17538116 23.82507403 0.00465917 0.00733997 -0.00026156
O 23.48100054 1.14410117 0.70003535 -0.00067004 -0.00076000 0.00220880
O 19.13412107 5.61233493 25.85990956 -0.00155978 0.00367476 -0.00474766
O 19.00650713 11.76090433 24.12865294 0.00622628 0.00506872 -0.00105589
O 22.86481500 7.60153013 16.04103150 -0.00114307 0.00093591 0.00222379
O 19.18732082 11.69637230 15.75616558 -0.00156781 -0.00173570 -0.00256766
O 23.17741270 7.80578828 24.02162211 -0.00215336 -0.00727007 0.00977227
O 22.69849694 1.34149313 25.29392564 0.00152733 -0.00369614 -0.00294906
O 19.42819803 5.12085381 0.83017015 -0.00275677 -0.00339338 0.00349316
O 22.50689728 15.30185012 7.47746025 0.00633718 -0.00244960 -0.00296553
O 19.82830028 16.34215167 15.24520401 0.00080103 -0.00261861 -0.00116204
O 18.88004101 23.14934716 0.97820647 0.00353588 -0.00206757 -0.00111160
O 23.21412038 22.29883062 9.54668088 0.00100030 -0.00039741 0.00186687
O 19.33234313 23.19010089 9.38615481 -0.00188612 0.00398498 0.00162446
O 22.67369535 21.90175930 1.27119284 -0.00233806 0.00978896 0.00189520
O 23.81206297 15.41774744 15.54128946 -0.00015682 -0.00459323 -0.00002646
O 18.28521424 16.80628628 6.91641841 -0.00186626 -0.00377283 -0.00349014
O 23.07100980 14.16956850 17.66624108 -0.00001086 -0.00181549 0.00062481
O 19.07679935 17.94589240 9.16864286 -0.00625043 0.00663258 0.00614872
O 18.75633165 24.48388066 7.25665401 0.00051330 0.00423198 0.00051406
O 23.27434546 20.30157749 32.40031306 -0.00253556 0.00060179 0.00297220
O 18.97140405 24.53405650 31.97103771 0.00448369 -0.00328500 0.00140857
O 23.17292629 20.60777594 7.54138022 -0.00414710 0.00030681 0.00225162
O 23.49088941 14.22575666 9.44730738 0.00125296 -0.00011660 0.00443336
O 19.47801280 17.82850028 17.27194190 -0.00106202 0.00550529 0.00244573
O 22.85829456 15.53014459 23.89228957 0.00535728 0.00077744 -0.00937567
O 19.65297828 16.33637060 31.90958819 -0.00144669 0.00263344 0.00136598
O 17.96003830 22.93815985 17.92190377 0.00363873 0.00419948 0.00169170
O 23.62577928 22.22194888 26.20577781 -0.00065385 -0.00031034 0.00309914
O 19.62884873 23.07110548 25.99039901 -0.00145865 -0.00044670 -0.00693531
O 23.10029743 21.95755639 17.69899034 -0.00364412 0.00530468 0.00431491
O 24.34813681 15.13998778 32.26214822 0.00351623 -0.00037250 -0.00318789
O 18.33466113 16.77478405 23.48409527 0.00476943 0.00232698 -0.00497682
O 23.62734201 14.04257690 1.38459299 -0.00335642 -0.00959974 0.00249317
O 18.56177932 18.01505037 25.76647371 -0.00075434 0.00838467 -0.00484412
O 19.02368026 24.52725793 24.03649552 -0.00113782 0.00566624 -0.00161567
O 23.47094805 20.45494280 15.67455117 -0.00826778 0.00344995 -0.00101934
O 18.78734906 24.02850117 15.70140786 -0.00196109 -0.00140755 -0.00504630
O 23.57052189 20.48300712 24.00914557 0.00555392 -0.00424755 0.00577529
O 23.19568043 14.18858485 26.13676234 -0.00455399 0.00284726 0.00100561
O 18.96791916 17.89530374 0.76990774 -0.00167971 -0.00243999 0.00107644
N 7.89000861 12.99478633 2.85214656 0.00908566 0.00120514 -0.00151376
N 1.19835785 6.30835081 10.86624893 -0.00408394 -0.00203395 -0.00202861
N 3.09417800 0.05819028 5.27791539 -0.00601626 0.00213727 0.00292165
N 5.22498121 6.33227102 14.36623477 0.00288915 -0.00277349 0.00550893
N 0.86796148 25.58771556 13.77147522 -0.00250391 0.00763333 0.00086409
N 7.40144664 6.07241002 6.12530145 0.00238497 -0.00418687 0.00512627
N 5.27660939 12.97797316 11.20951869 -0.00078362 0.00118635 -0.00271389
N 3.48408571 6.11046959 2.70092323 -0.00386398 -0.00144877 -0.00125050
N 7.64422180 12.92121759 19.08906654 0.00117038 0.00048524 0.00678167
N 1.16554450 6.58272720 27.45031467 -0.00280138 0.00091641 0.00226398
N 3.38752585 25.36413361 21.96185853 -0.00394482 0.00358992 -0.00385313
N 5.19469451 6.53708685 30.90360242 -0.00257465 0.00202527 -0.00217337
N 0.90537684 25.45993633 30.45042381 -0.00085842 0.00484997 -0.00449691
N 7.43930882 6.50728585 22.66541060 -0.00388014 -0.00462113 0.00054666
N 5.22430590 12.90501856 27.60753706 -0.00221914 0.00748128 0.00214199
N 3.25792740 6.14478132 19.21465784 -0.00096887 -0.00393199 0.01049326
N 7.37250621 0.10121873 2.23892551 0.00679102 -0.00305876 0.00141811
N 0.69351544 19.18407966 10.65535391 -0.00042243 0.00085742 -0.00175769
N 3.20948598 12.84192152 6.16584090 -0.00258843 -0.00106556 -0.00241296
N 5.06302789 19.39026113 13.97963598 -0.00011128 -0.00409401 -0.00725767
N 1.42707304 13.03983310 14.51354993 0.00089160 -0.00257201 0.00227543
N 7.31532984 19.41488673 5.15626754 0.00472231 -0.00493591 0.00117634
N 5.18022892 0.09971533 10.42248265 -0.00129128 -0.00287189 -0.00612062
N 2.85000960 19.49740535 2.02088712 -0.00260605 0.00080979 -0.00925510
N 7.39869504 25.47569461 18.65536155 0.00019699 0.00283194 0.00208761
N 1.07619853 19.27349957 27.06519900 -0.00256989 0.00157955 0.00014754
N 3.56758417 12.86056688 22.68930209 0.00032893 -0.00075549 -0.00250022
N 5.32287450 19.38845184 30.40504214 -0.00258791 -0.00830908 0.00505066
N 1.10811786 12.80804531 31.18408848 0.00277714 -0.00101649 0.00046004
N 7.64212870 19.58963617 22.06958269 0.00077032 0.00348592 -0.00295283
N 5.41261910 25.64853332 27.24878405 0.00052191 -0.00481564 -0.00535887
N 3.57375396 18.88282908 18.78671101 0.00065790 -0.00627631 -0.00458690
N 16.11462680 13.00766232 2.75487536 -0.00133564 0.00228169 -0.00127609
N 9.52134711 6.12099447 10.67448387 -0.00700944 0.00038146 -0.00202565
N 11.64568667 25.54415078 5.39746773 -0.00219539 0.00007482 -0.00578935
N 13.76441958 6.30755783 14.32696908 0.00087961 -0.00399456 -0.00348260
N 9.67395447 25.43157466 13.52584925 0.00100091 -0.00120061 0.00332042
N 16.05972422 6.65083917 5.77852964 0.00511926 -0.00229377 0.00183607
N 13.65916365 12.75083889 10.90209369 0.01058883 -0.00270782 -0.00264215
N 11.70611147 6.62343364 2.72881770 0.00114493 0.00771768 0.00070580
N 16.17379209 13.08712121 18.99048749 0.00394958 -0.00800153 0.00029309
N 9.27722945 6.18258989 27.18769085 0.00415323 0.00503908 -0.00050670
N 11.63183279 25.69474947 21.74822794 -0.00458304 -0.00085141 0.00137849
N 13.50697783 6.97476906 30.86005242 0.00192056 0.00120287 -0.00250321
N 9.18576347 25.56277228 29.88306594 0.00003460 0.00910611 0.00248009
N 15.94809900 6.68670960 22.55933491 -0.00080026 -0.00406861 -0.00030203
N 13.62338895 13.01691541 27.33125573 0.00181647 0.00593535 -0.01080921
N 11.45235784 6.36767944 18.94252694 0.00009163 -0.00420128 -0.00175495
N 15.90015414 25.63501091 2.03820689 -0.00371628 -0.00035190 0.00270084
N 9.44696841 19.27486078 10.46197159 0.00677711 0.00303739 0.01074421
N 11.63925147 12.74780327 5.89400815 0.00165341 0.00179992 0.00565699
N 13.91342288 19.18631492 14.00254277 -0.00242811 0.00071706 0.00632798
N 9.35126325 12.64249147 13.98762477 -0.00220926 -0.00190823 0.00684476
N 15.76153713 19.19166904 5.69667302 0.00409384 0.01038935 -0.00135512
N 13.82457678 0.27533753 10.38761651 0.00364751 0.00279929 -0.00300401
N 11.72568071 19.16582739 1.98723719 0.00499149 -0.01287248 0.00707376
N 15.72506413 0.14425810 18.69601068 -0.00680120 0.00473723 0.00010185
N 9.56290614 19.17554816 27.03889028 -0.00091054 -0.00235637 0.00690713
N 11.74242565 12.92850983 22.72409173 -0.00007842 0.00263289 0.00129429
N 13.73667161 19.30548519 30.42373499 -0.00085262 0.00517431 -0.00334292
N 9.47775909 13.00796399 30.86113994 -0.00544778 0.00394587 0.00034220
N 15.71474282 19.23773266 22.12715231 0.00642381 0.00031377 -0.00231479
N 13.65590356 0.15109415 26.98451261 -0.00453531 -0.00578895 0.00393167
N 11.69642911 19.30140080 18.88887259 -0.00658362 0.00086347 0.00253932
N 24.87707412 13.08837306 3.03883174 0.00474421 -0.00253649 0.00308260
N 18.01414566 6.41632803 11.11710803 0.00665730 -0.00558555 -0.00266921
N 20.15833616 25.52052882 5.79163227 -0.00515971 -0.00106021 0.00314869
N 22.30960595 6.30851707 14.26168198 -0.00032347 -0.00397911 0.00065925
N 17.83458598 25.50144260 14.25295629 0.00590443 -0.00235951 0.00523990
N 24.27043843 6.31474617 6.15216603 -0.00389159 -0.00096634 -0.00600568
N 22.10787200 13.10367698 10.87523470 -0.00405400 0.00442779 0.00415156
N 20.34201094 6.52844266 2.36764859 0.00158757 0.00365234 0.00730660
N 24.24062703 12.90504586 19.15074505 -0.00399027 -0.00523520 -0.00296621
N 17.68734449 6.43723595 27.48876599 -0.00471589 0.00031166 -0.00096680
N 20.21249211 25.46747683 22.27352163 -0.00046943 -0.00304984 -0.00120206
N 22.24654388 6.44992835 30.76261662 -0.00290239 0.00176667 -0.00432590
N 17.59268707 25.49095075 30.42992435 -0.00075118 -0.00879839 0.00245718
N 24.21620716 6.47327530 22.54085327 -0.00357410 0.00187997 0.00109210
N 21.94438248 13.14471406 27.73188713 -0.00447084 -0.00079678 0.00306527
N 19.84833114 6.42486340 18.90133676 -0.00146778 0.00281970 -0.00340972
N 24.47866836 0.04258560 2.34678212 0.00083734 -0.00078936 -0.00116107
N 18.11786660 19.17562629 10.89385738 0.00071873 0.01035169 0.00153705
N 20.43145329 12.93096635 6.17760379 -0.00811275 -0.00614691 -0.00201251
N 22.34927877 19.20947847 14.09776884 0.00278700 0.00206483 0.00272357
N 17.76741715 12.58461277 14.14789142 0.00371403 0.00055669 -0.00142031
N 24.34362651 19.40630344 5.98898611 0.00084238 -0.00720518 0.00053135
N 22.21116263 0.02453343 10.25575230 0.00499681 -0.00075364 0.00365932
N 20.02986172 19.24587857 2.31652647 0.00250274 0.00013504 -0.00059801
N 24.74510773 0.35206585 18.84334969 -0.00219449 0.00187384 0.00240366
N 17.74687237 19.25245213 27.56730660 -0.00177039 0.00318147 0.00229933
N 20.24468700 12.77084014 22.52265254 -0.00583057 -0.00597318 0.00074249
N 22.31480988 19.11441127 30.65311089 0.00459724 -0.00592138 0.00227779
N 18.04797306 12.73550680 31.06629105 -0.00122961 -0.01419360 0.00352519
N 24.39823616 19.14839019 22.29725357 0.00450228 0.00420373 0.00221662
N 22.01272280 25.66180502 26.94511984 -0.00297689 -0.00020750 -0.00167768
N 20.27084800 19.11254326 18.89638263 -0.00567406 -0.00284631 0.00154772
C 7.55498257 0.30684176 4.62642669 -0.00262443 0.00057340 0.00144024
C 0.89219145 5.83763870 13.11549767 0.00060811 -0.00035971 -0.00892625
C 3.39407428 12.18454529 3.88358615 0.00168066 -0.00261680 -0.00816778
C 5.31208998 6.72044577 11.96809647 -0.01105309 0.00065966 0.01142935
C 0.96153264 12.63530180 12.21015133 0.00206176 -0.00717243 0.00579203
C 7.52046737 6.53646896 3.84909363 -0.00540768 0.00698808 -0.00439736
C 5.21186998 0.41753539 12.82152762 -0.00292093 -0.00254699 -0.00234004
C 3.37505170 5.89087926 5.08428584 0.00633179 0.00074148 -0.00189881
C 7.21370340 0.84729570 5.88541561 0.00037343 0.00499225 -0.00474061
C 1.15818271 5.12752373 14.30617538 -0.00650592 -0.01134607 0.00041866
C 3.17697421 11.37068242 2.81903039 -0.00862350 0.00173095 0.00115247
C 5.82516377 7.39738190 10.87372090 -0.00390277 -0.00323220 0.00303472
C 1.31443524 11.99044243 11.06327815 0.00045203 -0.00643799 0.00181445
C 7.30182156 7.28060122 2.70593700 0.00213239 0.00432740 0.00212910
C 5.56770198 1.14201375 13.94427687 0.00587634 -0.00935359 0.00041024
C 3.07621305 5.21689500 6.24580739 -0.00026048 0.00579240 0.00342427
C 6.46317378 2.02227529 5.88844612 0.00572473 -0.00036214 0.00026481
C 2.03754644 4.01718682 14.22633399 0.00103074 -0.00266197 -0.00615874
C 2.28198865 10.30518690 2.95540686 0.00137018 0.00169240 -0.00491204
C 6.64855215 8.48460594 11.01541310 0.01113306 0.00117104 0.00957974
C 2.14074142 10.84952652 11.10490017 0.00152571 -0.00029676 0.01213917
C 6.52334031 8.47646046 2.71879538 -0.00395322 0.00758995 0.00065340
C 6.58589108 2.21853398 13.77990989 0.00834788 0.00256953 0.00038310
C 2.09801353 4.20340924 6.17322969 -0.00272904 0.00665649 0.00188070
C 6.11732189 2.58642329 4.65931839 -0.00191780 -0.00391765 0.00371599
C 2.44375795 3.55799562 13.01685124 -0.00208978 0.00665554 0.00368673
C 2.00026587 9.85311977 4.25427721 -0.00095928 0.00096919 0.00518564
C 6.75672953 9.04471184 12.24916334 0.00139353 -0.00237672 0.00450772
C 2.52473277 10.29440224 12.31200059 0.01354828 -0.00379882 0.00698766
C 6.22193994 8.93612422 4.01234974 -0.01177320 0.00258844 -0.00463561
C 6.77957294 2.70422563 12.54274584 -0.00014068 -0.00896081 0.00182996
C 1.95904775 3.63381675 4.89318421 -0.00047120 0.00151564 -0.00215205
C 6.40694378 2.09450789 3.43922937 0.00771048 -0.00342094 -0.00293527
C 2.13361852 4.19058737 11.82101413 0.00532152 0.00259164 0.00512081
C 2.36980009 10.54517919 5.38722017 -0.00419212 -0.00505137 0.00454730
C 6.28609775 8.28696649 13.35721707 0.00996672 0.00286336 -0.00096801
C 2.05888293 10.84431070 13.48941186 0.00401577 -0.00049476 0.00468260
C 6.55994708 8.28924128 5.19919555 0.01081489 0.00267882 -0.00447413
C 6.29961151 2.05113819 11.39068339 0.00123571 -0.00459514 -0.00356439
C 2.44518934 4.17351417 3.72927246 0.01052011 0.00411111 -0.00270786
C 7.07002548 0.86894301 3.42838889 -0.00416953 -0.00183561 0.00507735
C 1.41262662 5.43281562 11.94327091 0.00463163 0.00087966 -0.00226154
C 2.97214741 11.81774795 5.17329648 0.00706473 -0.00532614 0.00285058
C 5.62917306 7.08541230 13.25621565 -0.00113803 0.00212606 -0.00660683
C 1.49240389 12.17329099 13.43941935 0.00704039 0.00038470 0.01150151
C 7.13745916 6.99716358 5.12943425 -0.00036806 0.00443935 0.00342342
C 5.51050359 0.88118263 11.51726689 -0.00415155 0.00364843 0.00978389
C 3.10773240 5.42861172 3.79831681 -0.00271874 -0.00683054 0.00368420
C 7.09445826 0.52556156 0.95048812 0.00118048 -0.00454206 0.00926686
C 1.71624842 6.07075233 9.61134045 -0.00336165 0.00386114 -0.00283472
C 2.73136010 12.80485081 7.43081683 0.00216897 -0.01029564 0.00109964
C 5.92761044 6.35916170 15.58702672 0.00796599 0.00167265 0.00292088
C 1.64640063 12.70051886 15.77594958 0.00531057 -0.00827698 -0.00186567
C 7.12438531 6.32064801 7.46826274 -0.00562345 0.01046018 -0.00130223
C 5.81237207 0.03901516 9.30476906 0.00081472 0.00003883 0.00385460
C 2.74649496 6.09699505 1.51147234 -0.00179080 0.01070853 -0.00287851
C 7.05381415 11.63233689 17.10958938 0.00579261 -0.00062182 -0.00330955
C 1.62845282 7.39051968 8.86678182 -0.00165376 0.00008147 -0.00050283
C 2.91719558 1.00446035 7.60184542 -0.00720717 -0.00194470 -0.00353485
C 5.94093134 5.45586981 32.88497254 -0.00123302 -0.00087244 -0.00346720
C 1.25317724 0.82909480 32.63580767 0.00200608 0.00618509 0.00517205
C 7.21831919 5.18279619 8.41045072 -0.00336386 0.00492996 0.00355651
C 5.47678956 12.10705002 8.92783866 0.00492183 0.00137949 0.00190117
C 2.59500602 7.28119360 17.22338431 0.00248891 0.00661943 0.00726058
C 7.53553541 0.09845598 20.94625598 0.00313013 0.00160543 0.00087677
C 0.93269891 6.16839054 29.73537230 0.00040856 -0.00443725 -0.00766495
C 3.32056970 12.32517482 20.34665042 -0.00172583 -0.00482179 -0.00518012
C 5.11272936 6.86012543 28.52097158 -0.00161720 -0.00983773 -0.00346726
C 1.10215189 12.62462890 28.79745523 -0.00237756 0.00009510 0.00057604
C 7.72668252 6.63421421 20.22534999 0.00567042 -0.00388625 -0.00128651
C 5.30536778 0.69960769 29.52910562 0.00029437 -0.00832939 -0.00125140
C 3.30210986 6.02972588 21.70017502 0.00513527 0.00242882 0.00129199
C 7.30651232 0.86823482 22.11005245 -0.00169669 0.00115172 -0.00460005
C 1.24513544 5.49543633 30.89222883 0.00227163 -0.00549334 -0.00340441
C 2.98502271 11.49016052 19.29917254 -0.00056854 0.00458476 0.00386695
C 5.35188526 7.48175048 27.30627747 -0.00031157 -0.00054591 0.00506941
C 1.32139478 11.98453154 27.64615979 0.00039968 -0.00044094 -0.00692103
C 7.23932948 7.15495526 19.03881048 0.00036042 0.00168362 0.00129051
C 5.59420411 1.53174473 30.56140781 -0.01503025 0.00579186 -0.00185844
C 2.82359009 5.34375614 22.81321351 -0.00006915 -0.00059647 0.00300043
C 6.53311514 2.04672019 22.06839110 0.00446198 0.00084754 0.00019793
C 2.10981303 4.39842402 30.84486173 0.00243537 -0.00866767 0.00397822
C 2.10041740 10.40758202 19.41862788 0.00050568 -0.00279767 0.00103801
C 6.04168245 8.72129484 27.34729593 -0.00427026 0.01042831 -0.00352597
C 1.91230696 10.74446782 27.55899189 -0.00026195 -0.00183423 0.00839263
C 6.29241521 8.23939838 19.04238978 -0.00114558 0.00752250 -0.00131395
C 6.53335683 2.62580807 30.38754137 -0.00145271 0.00420304 0.00229933
C 2.06148484 4.19142117 22.75975796 -0.00052865 0.00468757 -0.00441022
C 6.18347363 2.57711720 20.76902816 -0.00426335 -0.00176179 -0.00649758
C 2.35352032 3.79730702 29.56760704 0.00655740 0.00236570 -0.01395433
C 1.86177262 10.04216925 20.73929308 0.00212012 -0.00451474 0.00011897
C 6.37810150 9.26504984 28.60934191 -0.00892985 0.00117185 0.00342526
C 2.11351588 10.10672330 28.82472851 0.00673080 -0.00036755 0.00433362
C 6.06049772 8.90268930 20.24894189 0.00394597 -0.00004037 -0.00151716
C 6.79041403 2.93348249 29.06733336 -0.00269896 -0.00466294 -0.00454418
C 1.97616108 3.55142999 21.54174092 -0.00303536 0.00359190 0.00733363
C 6.57188368 1.91319385 19.65203911 0.00464351 -0.00419062 0.00433406
C 2.07968237 4.45926665 28.45205990 0.00114215 -0.00180099 -0.00197657
C 2.27643776 10.80996998 21.79025520 0.00028310 0.00189427 0.00532196
C 6.05583392 8.62270655 29.78186749 0.00180497 -0.00107467 0.00390556
C 1.87211365 10.71114983 30.00839444 0.00305584 0.00574836 0.00179864
C 6.54257715 8.39197820 21.40922952 -0.00112266 0.00597602 0.00313732
C 6.29875854 2.17304921 28.00082091 -0.00291735 -0.00393140 0.01167407
C 2.41197602 4.20368261 20.38496265 0.00657970 -0.00135466 -0.00843812
C 7.13192341 0.56871405 19.68427345 0.00661019 0.00538850 0.00028724
C 1.39610750 5.72566691 28.52106595 -0.00073968 -0.00036456 0.00400663
C 3.00016421 11.98850845 21.64370644 0.00373515 -0.00090304 0.00178893
C 5.48525548 7.36889168 29.75312019 -0.00227577 0.00209640 -0.00361950
C 1.33356088 12.02844953 30.03597168 -0.00385740 0.00351076 -0.00630620
C 7.27252363 7.17633918 21.45857486 0.00234673 -0.00942226 -0.00276652
C 5.67410868 0.91076038 28.19971901 -0.00860365 0.00424697 0.00436250
C 2.99340276 5.45553648 20.46759994 -0.00535275 -0.00635887 0.00420219
C 7.28395662 0.06009628 17.31349452 -0.00330423 -0.00167310 -0.00431341
C 1.54282101 6.27227351 26.21151869 -0.00099450 0.00385518 0.00023677
C 2.88730035 12.89373212 23.95925316 0.00801852 0.00416436 0.00218611
C 5.81843883 6.72845847 32.09336999 -0.00385191 -0.00415371 0.00094062
C 1.57019875 12.49882071 32.41244667 -0.00455906 -0.00725155 0.00848167
C 6.49211797 6.50762473 23.64949797 -0.00069160 0.00211465 0.00300539
C 6.00095835 0.12207302 25.98581561 0.00899618 -0.00385505 0.00350791
C 2.69212497 5.97174824 18.03876453 -0.00264198 0.00134829 -0.00613083
C 7.22965962 11.87077637 0.75548398 0.00167813 0.00081361 -0.00023858
C 1.22011229 7.42092539 25.24281630 -0.00797716 -0.00270275 -0.00098322
C 3.40158425 0.65561400 24.17826614 0.00029974 -0.00021681 0.00544218
C 5.44196250 5.20259134 16.42339164 -0.00333817 0.00216105 -0.00027839
C 1.25371356 0.84271352 15.97662066 0.00484616 -0.00871886 0.01474341
C 6.68166977 5.27861898 24.56799618 -0.00024798 0.00099027 -0.00549203
C 5.57192741 12.28486544 25.25326519 -0.00451675 -0.01111235 -0.00877623