1920
Time=63000.00000006 pbc="T T T" Lattice="25.75504548 0.00000000 0.00000000 0.00000000 25.38267958 0.00000000 0.00000000 0.00000000 32.85582274" energy=-12251.15492499 virial="-42.14637017 8.24650439 25.91268004 8.24650439 -51.62926617 -5.42976016 25.91268004 -5.42976016 -74.03709006" stress="0.00036920 0.00028846 0.00124567 0.00028846 -0.00023093 -0.00025427 0.00124567 -0.00025427 -0.00125257" Properties=species:S:1:pos:R:3:vel:R:3
O 5.63476912 2.98949635 6.86172532 -0.00045750 0.00609792 0.00514796
O 2.76775157 3.82951133 15.35679302 0.00743833 0.00306558 -0.00067150
O 1.60588738 9.63389974 1.52963522 0.00360460 -0.00064361 -0.00451138
O 7.16807749 9.25499527 9.73273235 0.00987462 -0.00502247 -0.00307016
O 3.01247679 9.96056346 9.72757613 0.00274956 0.00290421 -0.00341395
O 6.37615664 9.12224651 1.65216418 -0.01347293 0.00267934 -0.00754571
O 6.87415390 3.00568604 15.14901791 0.00401396 0.01281070 0.00376358
O 1.51115069 3.73002581 7.37441651 -0.00030759 0.00143385 0.00233201
O 6.35593624 1.50383644 17.19127504 -0.00625907 0.00347857 -0.00486005
O 1.82553837 5.30905865 9.30047740 0.00207874 0.00434792 0.00112367
O 2.57254267 11.46489368 7.61755974 0.00150826 0.00221890 0.00276003
O 6.29475858 7.72680931 32.36097237 -0.00485088 -0.00209297 -0.00155504
O 1.42850250 11.01043116 32.17059878 0.00051436 0.00357343 -0.01135197
O 6.67066455 7.70726599 7.63906277 -0.00143964 -0.00094369 0.00132535
O 6.14487781 1.49007840 8.95144143 0.00961760 -0.00237065 -0.00352770
O 2.71804776 5.10363189 17.42903849 0.00388371 0.00150637 -0.00543335
O 5.79060289 2.39631260 23.46165343 0.00242173 -0.00392596 0.00342303
O 2.43455320 3.69242265 31.91192944 -0.00446760 -0.00409466 0.00848954
O 1.57343307 10.17768283 17.85170219 -0.00042899 -0.00248763 0.00495892
O 6.91848265 9.05076996 26.06758807 0.00168811 0.00914484 0.00207736
O 2.64805448 10.13519746 25.89319747 -0.00773982 0.00407892 -0.00443320
O 6.17557515 9.47600328 18.19778087 0.00074226 0.00317435 -0.00292943
O 7.45026552 2.91429027 31.37857888 0.00123509 -0.00325290 -0.00612089
O 1.47246743 3.61992274 23.65044956 -0.00011441 -0.00062045 0.00253029
O 6.75130557 1.23503331 0.80442849 -0.00550243 0.00137725 -0.00139902
O 1.71708525 5.03849818 25.69509365 0.00328532 -0.00037339 0.00155143
O 1.91994461 11.70006256 23.98001671 -0.00040831 -0.00884109 0.00002504
O 6.21427893 7.94361920 15.96846041 0.00205780 -0.00622933 -0.00385985
O 2.34216429 11.68585248 15.82171887 -0.00719240 -0.00381052 0.00260203
O 7.14290445 7.19401020 24.17338608 -0.00930064 0.00131660 -0.00380593
O 6.73831736 1.16532640 25.71553931 -0.00310986 -0.00033226 0.00091835
O 1.93748573 4.87589402 1.40184852 -0.00353221 0.00556530 -0.00435071
O 5.74171229 15.23685539 6.73417534 0.00363719 0.00259800 0.00180338
O 2.86815846 16.06306473 14.55130655 0.00187797 0.00030095 -0.00067384
O 1.89251976 22.46207760 1.06230866 -0.00250999 0.00080927 0.00389409
O 7.15812186 21.82541234 8.94388767 0.00081510 0.00345652 -0.00745888
O 2.66150622 22.75291354 9.21466122 -0.00343055 -0.00262683 0.00788114
O 6.04663686 21.46512991 0.75237657 -0.00561977 -0.00214899 -0.00331473
O 6.92032447 15.24978013 15.22963188 0.00167409 0.00171585 0.00094431
O 1.67397298 16.41242373 6.43746056 -0.00778927 0.00115465 -0.00158525
O 6.21543502 13.72100037 17.21253913 -0.00123380 0.00031495 -0.00297442
O 1.88313524 17.94991949 8.54305064 -0.00138147 -0.00270092 0.00157152
O 1.90472125 24.40578990 7.31518015 0.00130512 0.00350990 -0.00646084
O 6.49479221 19.84471804 31.86295672 -0.00050467 0.00385852 -0.00131743
O 2.05034504 24.11108846 31.98630683 -0.00367088 -0.00092876 -0.00370281
O 6.39220195 20.33758939 7.02525469 -0.00250544 -0.00461507 -0.00376106
O 6.77947354 14.19799346 8.95902802 0.00232114 -0.00029856 -0.00176750
O 2.83699935 17.71801582 16.63766698 0.00658760 0.00142424 0.00024441
O 5.78283400 15.47946775 23.19949055 -0.00057443 0.00249116 0.00152757
O 2.87656323 16.07736699 30.99807172 0.00108755 -0.00284504 -0.00738619
O 2.03605279 22.63449286 17.37757628 0.00036819 0.00062674 -0.00599340
O 6.78878506 21.74414855 25.80697399 -0.00174738 0.00470858 0.00538889
O 2.32947575 22.36387344 25.97158373 0.00264631 0.00323981 -0.00392120
O 6.43091331 22.07291428 17.49622254 0.00408905 0.00336139 0.00073470
O 7.33951143 14.79617760 31.35599826 -0.00575510 0.00594641 0.00578419
O 1.58545931 15.94374292 22.65747143 0.00003642 0.00885225 0.00355457
O 6.51872642 13.89549566 0.75017515 0.00196047 -0.00206446 -0.00288470
O 1.70929667 17.74284562 24.88263342 -0.00194573 -0.00184356 0.00050566
O 2.30557706 23.84922664 23.77341435 0.00726567 0.00231777 0.00398777
O 6.09982612 20.58032690 15.31151368 -0.00625060 -0.00502058 -0.00839939
O 2.45787375 24.26222231 15.36712366 0.00393959 0.00362101 -0.00057743
O 6.29251995 20.16431417 23.60903838 0.00571003 -0.00368147 -0.00459009
O 5.80724699 13.84029730 25.22912952 0.00061575 -0.00552263 0.00253576
O 2.03772543 17.70662020 0.03568733 0.00177398 0.00429986 0.00258635
O 14.76022452 2.87318485 6.83850747 -0.00015313 -0.00400661 -0.00337062
O 11.52890414 3.72955007 15.55068883 0.00241542 -0.00104211 0.00842920
O 9.98604551 10.44981147 1.36068911 -0.00093831 0.00331172 -0.00111272
O 15.31102204 8.96160144 9.83452374 -0.00554717 0.00408282 0.00069045
O 11.34781063 9.85210949 9.70255569 0.00582655 -0.00367679 0.00037885
O 14.72809982 8.72875101 1.70245479 0.00077179 0.00204340 0.00427061
O 15.62185343 2.80241309 15.27198680 -0.00069935 -0.00075960 0.00236727
O 10.11494076 3.78892981 7.15855112 0.00541839 -0.00469090 -0.00587110
O 15.32491049 1.14530290 17.29195256 0.00521130 -0.00130778 -0.00397752
O 10.77862178 5.09540348 9.44495160 0.00307919 0.00541905 -0.00233570
O 10.48405344 11.73736668 7.52710718 0.00175761 0.00118496 -0.00162780
O 15.02961820 7.43026126 32.34272131 -0.00055109 0.00008137 0.00034196
O 11.20074289 11.37773056 32.01563944 -0.00284967 -0.00094978 0.00477083
O 14.59474678 7.39612534 7.95898987 -0.00194751 -0.00179665 -0.00028278
O 14.72592694 1.34624505 8.96151344 -0.00613447 0.00311071 -0.00159242
O 11.36874035 5.36824363 17.49999268 0.00487050 -0.00315927 -0.00061944
O 14.11329405 2.75427231 23.44108120 -0.00384372 0.00130600 0.00042828
O 11.33755376 3.79567149 31.98849789 0.00096122 -0.00318863 0.00353015
O 10.15567748 10.09096018 17.74444014 0.00031868 0.00629243 -0.00224338
O 15.46635507 9.43345934 26.25471281 0.00499591 -0.00125184 -0.00226463
O 11.05614588 9.84984313 25.83541248 -0.00071467 -0.00381960 0.00638655
O 14.44184572 9.20850036 18.16231227 -0.00225341 -0.00026943 0.00387604
O 15.14087971 2.71810714 31.70079725 0.00306646 -0.00413056 -0.00140827
O 10.57090229 3.43756206 23.63594685 -0.00414160 -0.00058228 0.00454106
O 14.55770088 0.99351071 0.73645803 -0.00282878 0.00560146 0.00270781
O 10.68302445 4.80704836 25.74155059 -0.00012219 0.00058957 0.00312843
O 10.85270851 11.52198370 23.86151976 0.00468796 0.00177503 -0.00215333
O 14.96312172 7.47468582 16.14088535 -0.00112906 0.00299636 0.00422489
O 10.85418597 11.40898728 15.70938884 -0.00172827 -0.00675321 0.00283940
O 15.33555050 7.60760679 24.38726001 -0.00238821 -0.00153215 0.00296941
O 14.69099949 1.26572748 25.41116151 -0.00042124 -0.00429430 -0.00325349
O 10.51474335 5.38638835 0.99312327 -0.00049252 -0.00144390 0.00024451
O 14.59128865 15.44564366 6.94213698 0.00360155 -0.00417768 0.00192444
O 11.03782370 16.16080940 14.71921298 -0.00388712 0.00220015 -0.00555300
O 10.21991775 22.77901855 1.15492678 -0.00613305 0.00164010 0.00338235
O 15.93937577 21.74717479 9.48497086 -0.00406462 0.00742194 0.00148590
O 11.51001141 22.67879359 9.43327368 -0.00107460 0.00193609 -0.00268075
O 14.22824474 21.34176888 0.93369427 -0.00087830 -0.00172093 0.00513079
O 15.59589230 15.48879936 15.06442427 0.00182720 0.00480928 0.00098116
O 10.59847250 16.20890355 6.36149150 -0.00018863 -0.00663971 -0.00192546
O 15.24232820 14.31210220 17.18067354 0.00056106 0.00583789 0.00382069
O 10.61208511 17.76546497 8.43936591 0.00854429 0.00578894 -0.00012773
O 10.98606387 24.12963886 7.34979895 0.00039484 -0.00319086 0.00135493
O 14.77048725 20.07662519 31.59545185 0.00043958 0.00402056 -0.00648229
O 10.03357256 24.27953526 31.86142900 -0.00556374 0.00288542 -0.00259432
O 15.32312360 20.41926227 7.21473568 0.00305899 -0.00674627 0.00251917
O 15.19860435 13.92277216 8.90396922 -0.00394467 0.00222484 -0.00751682
O 10.98979227 17.96809461 16.59794349 -0.00497268 -0.00182484 -0.00016847
O 14.40617850 15.28648732 23.40332010 -0.00327344 -0.00058898 0.00016641
O 10.90060471 16.26464378 31.21030881 -0.00632161 0.00144339 -0.00166249
O 10.52907421 22.63465385 17.61734245 0.00140555 0.00731108 0.00462524
O 16.03418317 21.67148838 25.61828916 0.00381487 0.00662138 0.00756627
O 11.36663180 22.16592177 25.93639402 -0.00862104 -0.00158886 0.00347978
O 14.27035864 21.77708542 17.43654224 -0.00172782 -0.00357618 -0.00103765
O 15.25056268 15.16215688 31.80216012 -0.00121515 -0.00289868 -0.00644078
O 10.17399497 16.55253473 22.89471973 0.00101154 0.00231868 -0.00875525
O 14.63073409 13.69412407 0.84029900 0.00796182 -0.00543070 0.00060365
O 10.76024139 17.97343309 25.11292079 0.00408666 0.00643332 0.00292729
O 10.87078566 23.66247639 23.84666912 0.00784964 0.00206226 -0.00362181
O 14.83885869 20.28656085 15.52743000 -0.00308578 -0.00319403 0.00510301
O 10.17850828 24.17228074 15.41110145 0.00078878 -0.00110626 -0.00123255
O 15.45640624 20.38286584 23.58408153 0.00651137 -0.00575497 0.00925423
O 15.19286063 13.85701013 25.31027520 0.00313231 0.00276836 0.00212359
O 10.32946922 18.04059427 0.34590220 0.00125848 0.00107116 0.00610861
O 23.14219450 2.65587343 6.76292752 -0.00216129 0.00211165 -0.00234462
O 20.00491550 3.85309375 15.46265460 -0.00043233 -0.00030879 -0.00030391
O 18.35902108 10.47680469 1.40464526 -0.00173929 0.00286364 -0.00187415
O 24.54526343 9.17045554 9.87661991 -0.00343457 0.00090124 0.00778288
O 19.78216430 9.99991052 9.53798818 0.00608423 -0.00109152 -0.00302152
O 22.79976315 9.10046931 1.67932179 -0.00530164 -0.00281384 0.00138277
O 24.26705694 3.00910202 15.05829709 0.00500358 -0.00804038 -0.00068289
O 19.03221791 3.39540182 7.15810487 0.00086882 -0.00188629 -0.00009995
O 23.80934603 1.50562334 17.17498102 0.00307919 0.00158932 0.00022014
O 19.07166819 4.88242544 9.22529507 0.00222147 -0.00325186 -0.00089877
O 19.24818671 11.60314682 7.47509697 0.00337774 0.00429396 -0.00298964
O 23.32051927 7.54892048 32.36480843 -0.00192286 -0.00064337 -0.00030417
O 19.03520818 11.48690130 32.08158348 0.00153725 -0.00375475 0.00101370
O 24.25333946 7.40925448 7.86409499 -0.00080880 -0.00153147 -0.00435630
O 23.46600647 1.45808747 8.93093344 -0.00836445 -0.00364595 0.00259115
O 19.28609924 5.31607107 17.53321240 -0.00201616 -0.00007183 0.00022441
O 22.80326564 2.71934272 23.27631741 0.00192095 -0.00236328 0.00085299
O 19.45667398 3.42180401 31.81309811 0.00135323 0.00419797 0.00117334
O 18.45611088 10.22423070 17.88482494 0.00428112 -0.00160451 -0.00267393
O 24.05231399 8.89464517 26.24312301 0.00005912 0.00396998 -0.00320405
O 19.83756728 10.06429167 26.05677531 0.00168110 -0.00256537 0.00248109
O 23.10192027 9.17551932 17.96710581 -0.00905249 -0.00628295 -0.00268233
O 23.96039866 2.78041741 31.73671210 -0.00502057 0.00824492 -0.00369407
O 18.84062991 3.73608140 23.80018778 0.00655737 -0.00116021 -0.00390914
O 23.82363509 1.13233770 0.76661357 -0.00433063 0.00167737 -0.00245324
O 19.25465508 5.26156602 25.67074523 0.00117540 0.00259256 0.00312374
O 19.09708582 11.44738381 24.03581352 0.00516530 -0.00700939 -0.00275262
O 23.46255067 7.65194690 15.94084910 0.00620817 -0.00548923 0.00144797
O 19.08395948 11.41654411 15.67579800 0.00257811 -0.00577876 -0.00495085
O 23.45260029 7.45875166 24.09421229 0.00180015 -0.00142095 0.00008563
O 23.40996860 1.26730584 25.48461333 0.00020935 0.00155106 0.00558347
O 19.14168672 5.07430850 1.02087510 0.00179139 -0.00397236 -0.00677335
O 23.09041698 15.33987295 7.15321248 -0.00056501 0.00709734 -0.01133056
O 19.62949383 16.26559732 14.92586120 0.00590036 -0.00669151 -0.00143086
O 18.86270437 22.71553896 0.97483732 0.00933428 -0.00270152 -0.00066238
O 24.25647900 21.53702437 9.17734727 0.00257632 0.00147231 0.00225342
O 20.09731357 22.70611966 9.51402235 -0.00216345 -0.00134844 -0.00005621
O 23.23841426 21.31808995 0.79285745 0.00366881 -0.00047879 -0.00826336
O 24.27367202 15.47092499 15.31662147 -0.00289770 0.00891409 0.00428688
O 18.89931914 16.31692882 6.71935650 0.00284625 0.00117195 -0.00323321
O 23.99064104 14.11871919 17.50900781 0.00225032 0.00096892 -0.00482314
O 19.03989137 17.92525543 8.63880442 -0.00269496 -0.00093581 0.00300719
O 19.48955377 23.91618724 7.23479048 -0.00796581 0.00221861 -0.00016448
O 23.66296546 19.62427653 31.85272693 0.00902038 -0.00298273 -0.00042262
O 19.30992179 24.43659549 31.89693885 -0.00305124 0.00635173 0.00308761
O 23.32757216 20.19716339 7.14698182 -0.00579753 0.00239665 -0.00015076
O 23.89026255 13.76603953 9.10793063 0.00178194 0.00223833 -0.00432127
O 19.98169897 17.77844189 17.06799463 -0.00053822 -0.00380674 0.00130195
O 22.74510944 15.46700484 23.56387828 0.00572725 0.00108506 0.00261415
O 20.04770727 16.18687063 31.22827481 0.00281226 0.00528675 0.00382076
O 18.77914459 22.50921855 17.81496884 0.00586960 -0.00204414 -0.00165316
O 23.85080772 21.69532539 25.76823310 0.00792556 -0.00438559 -0.00120365
O 19.91181259 22.37885125 26.01047724 0.00004240 0.00227066 -0.00525770
O 23.27529324 21.79480792 17.27217422 0.00025144 0.00636469 -0.00389548
O 24.43576693 15.00344020 31.78460197 -0.00052848 0.00557082 -0.00290756
O 18.94985196 16.22670744 23.21100244 -0.00020660 0.00430013 -0.00375530
O 23.35629611 13.80168006 1.07074289 0.00649675 -0.00267504 0.00513084
O 19.20364058 17.54869730 25.27467317 -0.00123919 0.00385302 -0.00081836
O 19.83449040 23.96024684 23.98529692 0.00106846 -0.00213322 0.00426351
O 24.02186839 20.44041761 15.19653026 0.00001552 -0.00328483 -0.00385708
O 19.29307476 24.21128877 15.79824736 0.00287949 -0.00471107 0.00229929
O 23.79497481 20.65817434 23.43518791 -0.00434096 0.00050531 0.00246288
O 23.50701439 14.01156074 25.59702246 0.00503508 0.00527332 -0.00330294
O 19.20607898 17.46342719 0.41315767 -0.00586289 -0.00097756 0.00185641
N 7.61245894 12.72389157 2.28780886 -0.00320028 -0.00191781 -0.00326239
N 1.14256546 6.82667422 10.94988541 0.00491935 -0.00214114 -0.00103010
N 3.36696236 25.18936562 5.58917817 -0.00533460 -0.00524666 -0.00901157
N 5.38368723 6.53817882 14.28150927 -0.00291457 -0.00375030 0.00003074
N 1.18229109 0.01373953 13.86871187 -0.00021871 0.00761941 -0.00195760
N 7.47545530 6.17759789 6.19969035 0.00553972 0.00218731 -0.00448815
N 5.44099953 12.89517896 10.40954987 -0.00626583 -0.00383189 -0.00128473
N 3.35613387 6.07548422 2.76442986 0.00236825 -0.00429081 -0.00801685
N 7.49288748 12.54684399 18.76245785 -0.00555473 0.00561833 -0.01076385
N 0.58440678 6.14866786 27.26817878 -0.00329906 0.00090674 -0.00212138
N 3.14342679 25.23040022 22.14283845 -0.00126705 -0.00514886 0.00051862
N 5.37698150 6.43217441 30.74567007 0.00377043 -0.00093089 -0.00196458
N 1.21759290 0.04622867 30.39992928 -0.00348618 0.00679018 0.00161130
N 7.63391876 6.10052405 22.27176443 -0.00500450 0.00072761 0.00551461
N 5.50463282 12.37975216 26.92563799 0.00150500 -0.00131021 0.00210693
N 3.42103901 6.32141553 19.26594953 0.00023004 0.00286976 -0.00970606
N 7.46022655 25.29927491 2.49840564 0.00482423 -0.00113138 0.00134242
N 1.04811524 19.15502769 10.24785017 0.00021597 0.00478979 0.00332912
N 3.46392952 12.62155053 5.84869622 0.00005219 0.00133335 0.00264315
N 5.32332115 19.30662913 13.63955424 0.00637981 -0.00309298 -0.00264423
N 1.30024804 12.80637218 14.15220101 -0.00180279 -0.00313599 0.00371415
N 7.71711736 19.19678246 5.52233326 0.00181493 -0.00285660 0.00738283
N 5.04819008 0.45919940 10.62201050 0.00495952 -0.00656363 0.00094807
N 3.38509871 18.58423992 1.67926644 0.00016174 0.00063393 -0.00915270
N 7.55375854 0.28437752 18.63280099 -0.00443812 0.00581240 -0.00064695
N 1.15342536 19.14420350 26.60272382 0.00271136 0.00574953 -0.00179230
N 3.33426593 12.62322188 22.42795416 -0.00676286 0.00037224 -0.00079588
N 5.27455580 18.76607687 30.27902612 -0.00733557 -0.00325671 0.00427341
N 0.82765736 12.47730248 30.52343930 -0.00524133 -0.00170948 0.00439020
N 7.53703718 19.04320533 22.02367956 0.00280220 -0.00684126 0.00288302
N 5.17339033 0.22728887 27.15726066 0.00011374 0.00260360 0.00654865
N 2.99505885 19.09832031 18.35272683 0.00006594 0.00386672 0.00057084
N 16.12711782 12.68405137 2.31352608 0.00869751 -0.00427042 -0.00345519
N 9.55203568 6.23435021 10.98497393 -0.00241262 -0.00240677 0.00412616
N 11.83670769 0.14509758 5.72840518 -0.00695131 -0.00120127 0.00150286
N 13.88602727 6.16862786 14.58635761 -0.00139423 0.00071287 -0.00639601
N 9.70052115 0.27519491 13.73905000 -0.00478894 -0.00605623 0.00945583
N 15.94591451 6.31054391 6.39888757 0.00551590 -0.00229938 -0.00341140
N 13.88545788 12.92967900 10.61228019 -0.00169409 0.00205366 0.00327076
N 11.85738543 6.28617213 2.56281163 0.00293745 0.00350616 -0.00630577
N 16.10112672 12.96352033 18.74362464 0.00269600 -0.00428915 -0.00351493
N 9.46474979 6.09587627 27.21776937 -0.00380948 0.00107955 0.00303622
N 11.53739404 25.22314765 22.30238545 0.00346433 0.00012459 0.00094183
N 13.89092027 6.31785500 30.69354885 0.00640482 0.00003465 -0.00321037
N 9.67489327 0.05759288 29.91260413 -0.00683828 0.00044228 0.00487114
N 16.14312936 6.30585670 22.72528316 -0.00460706 0.00093047 0.00370730
N 13.87385951 12.89977183 26.96034905 0.00093322 -0.00518174 -0.00279124
N 12.08029892 6.68585749 19.22859719 -0.00422147 -0.00609417 0.00485015
N 15.84945415 25.25319940 2.17942272 0.00412844 0.00285003 0.00279859
N 9.74262158 19.05208057 10.15856685 -0.00334076 -0.00139690 -0.00058265
N 12.13582634 12.38484036 6.05874427 -0.00736144 0.00415456 -0.00084264
N 14.09261060 18.95919032 13.85193354 -0.01219711 0.00057102 0.00614760
N 9.43105171 12.53977782 14.24482047 0.00086278 0.01039745 0.00110756
N 16.38947629 19.18539121 5.65524404 0.00291432 0.00404799 -0.00129934
N 14.20704846 25.36322363 10.75210354 0.00321715 0.00004884 -0.00104273
N 11.83856299 19.06220570 1.83837521 -0.00275669 -0.00309103 0.00444653
N 16.25768465 25.36375470 19.11532930 -0.00245064 -0.00577839 0.00053058
N 9.40574695 19.07516715 26.63190218 -0.00206529 0.00232110 0.00011764
N 11.89281566 12.77744363 22.28607459 0.00275024 -0.00000937 -0.00344340
N 13.52116021 19.15361783 29.89935302 0.00367637 0.00186170 -0.00050203
N 9.74584176 12.40866014 30.59655277 -0.00300784 -0.00800344 -0.00007445
N 16.26333931 19.18222246 21.89771820 -0.00842285 0.00101176 0.00307924
N 13.84172921 0.01324347 27.09229315 -0.00051258 -0.00197128 0.00117672
N 11.75396860 19.25514435 18.32615756 -0.00539603 -0.00171292 -0.00343898
N 24.76580862 12.67842809 2.48233453 -0.00247134 0.00171451 0.00081642
N 18.10396532 6.22482958 10.85382381 -0.00013876 -0.00122923 0.00104597
N 20.64159678 25.08778332 5.66037970 0.00125163 -0.00364485 -0.00389119
N 22.41429298 6.51429445 14.26869975 0.00083015 -0.00309473 -0.00438660
N 18.35160271 25.30482410 14.05032392 -0.00001559 -0.00009521 -0.01090408
N 24.88981688 6.22909648 5.95612239 0.00188168 -0.00557510 -0.00047445
N 22.52218824 12.85238257 10.70768018 0.00394550 0.00453211 0.00362224
N 19.99242622 6.41321765 2.66299135 0.00077618 0.00374056 -0.00102658
N 24.63876069 12.63198527 19.14180133 -0.00188415 0.00265482 0.00531296
N 18.21176620 6.40507353 27.33550654 -0.00065623 -0.00262029 0.00574983
N 20.65006764 25.30551644 22.34995757 0.00124995 0.00230929 -0.00402452
N 22.00104947 6.54006203 30.76599166 0.00265181 0.00131338 0.00132864
N 17.84345205 25.11476874 30.34361004 0.00275537 -0.00580959 0.00363779
N 24.56069761 6.30556673 22.45560787 -0.00584287 0.00179691 -0.00186798
N 22.23953389 12.89185879 27.15107365 -0.00102227 -0.00745166 0.00595061
N 20.43291034 6.44422261 19.14897477 -0.00315620 -0.00376315 -0.00130086
N 24.58895961 25.04231091 2.39494038 -0.00557998 0.00334217 -0.00127162
N 18.35235230 19.31446749 10.39915822 -0.00513816 0.00177506 0.00071022
N 20.71716352 12.43978083 5.96338900 -0.00530349 -0.00018535 0.00376926
N 22.65349028 19.32020378 13.86899089 0.00743827 -0.00292185 0.00131487
N 18.35478016 12.88390793 14.05461578 -0.00115131 -0.00100190 0.00013626
N 24.73792600 19.13531557 5.59867527 -0.00139197 -0.00285114 0.00120643
N 22.83918404 0.09067244 10.60710742 0.00165609 0.01181395 0.00103208
N 20.42491939 18.63981581 1.94479612 0.00036220 -0.00135458 -0.00496191
N 24.90334999 0.25503204 18.71214497 0.00347425 0.00272268 -0.00622984
N 17.91142237 18.65774291 26.82279544 -0.00828938 -0.00242739 0.00501737
N 20.34214691 12.63321220 22.53314385 0.00309920 -0.00020711 0.00278155
N 22.55681891 18.56342581 30.19925038 -0.00642637 -0.00555647 -0.00516897
N 18.28433142 12.97851180 30.57568003 0.00963543 -0.00730090 0.00246371
N 24.61796694 19.06735443 21.92794357 0.00074220 -0.00120823 0.00539006
N 22.35658504 0.08943294 27.20299726 -0.00133821 -0.00273193 0.00614781
N 20.30933685 19.24638764 18.79075077 0.00508677 -0.00222002 0.00527476
C 7.40263299 0.46302368 4.89730261 -0.00200085 0.00385930 0.00834977
C 1.07719341 6.38221542 13.41056606 0.00046090 0.00278293 0.00108119
C 3.52484089 12.06515364 3.50646187 -0.00104299 0.00171111 0.00016796
C 5.28301208 6.96107947 11.83412329 0.00487122 -0.00262584 0.00293675
C 1.19187704 12.45641545 11.75519914 0.00223061 0.00060057 -0.00611752
C 7.69436641 6.55785934 3.80232971 0.00909218 -0.00330007 -0.00247150
C 4.91854896 0.86139113 13.03103188 0.00176147 -0.00268697 -0.00807284
C 3.15509956 6.05910951 5.17624845 0.00060622 -0.00223529 -0.00033419
C 6.96973798 1.16408889 5.99394845 0.00437960 -0.00579944 -0.00954996
C 1.41264515 5.65369580 14.51930015 0.00471026 0.01175983 0.00003712
C 2.91954267 11.44337799 2.41170309 -0.00020581 -0.00626227 -0.00484595
C 5.61662528 7.67503485 10.71297870 -0.00163811 0.00049337 -0.00393020
C 1.50303489 11.58197656 10.63617890 -0.00805319 0.00701130 -0.00095389
C 7.40518191 7.29554047 2.67659637 -0.00393038 0.00221458 -0.00136940
C 5.35519546 1.48417590 14.18335251 0.00456763 0.00291163 0.00799314
C 2.88243382 5.36084778 6.36193612 -0.00401401 0.00525943 -0.00406708
C 6.22387905 2.31140411 5.82957214 0.00387495 0.00643716 0.00119704
C 2.13473329 4.42115802 14.32605912 -0.00392911 0.00144109 -0.00214590
C 2.09449681 10.33165588 2.57735086 0.00074501 -0.00567637 0.00095036
C 6.59044471 8.68658374 10.79691062 -0.00084480 0.00163529 -0.00024621
C 2.43021949 10.50566362 10.75107647 0.00452231 -0.00617135 -0.00167697
C 6.64067290 8.49923991 2.76075905 0.00016189 -0.00572270 -0.00956334
C 6.33237552 2.55199850 14.07042696 -0.00475057 0.00550861 0.00278683
C 2.13166713 4.16464769 6.28722770 -0.00068249 0.00522895 0.00641358
C 6.14503077 2.81339344 4.53442758 -0.00599149 0.00399217 -0.00517645
C 2.27016640 3.91248534 13.01703036 0.00230487 -0.00216657 -0.00078615
C 1.79923216 9.90350269 3.85494822 -0.00546842 0.00799385 0.00405920
C 6.89045110 9.15893650 12.16332115 0.00161335 -0.00375088 0.00099140
C 2.72528812 10.06190446 12.03103781 -0.00564891 -0.00268835 -0.00335805
C 6.26114480 8.98437446 4.06919542 -0.00175841 0.00871074 0.00148835
C 6.65294382 2.99432107 12.77674470 0.00210265 0.00503212 0.01110819
C 1.94294208 3.54235313 4.98071498 0.00402622 -0.00490099 -0.00211161
C 6.63835559 2.11600796 3.44341132 -0.00366700 -0.00152704 0.00168567
C 1.93805989 4.69393083 11.95243578 0.00172861 0.00394206 -0.00091955
C 2.08273341 10.71173120 4.93730343 -0.00031647 0.00024551 -0.00007464
C 6.40073557 8.52910743 13.29039137 0.00753169 -0.00671613 -0.00641967
C 2.30420506 10.76730081 13.14921654 0.00012946 -0.00367708 -0.00231507
C 6.56793088 8.31799502 5.16366333 0.00381634 0.01083191 0.00070548
C 6.21571127 2.30729603 11.67135431 0.00784627 0.00442451 0.00852356
C 2.50961218 4.11946927 3.86374996 0.00822278 0.00050307 -0.00194142
C 7.20120005 0.83772414 3.60157543 0.00007621 -0.00413188 -0.00258556
C 1.36851541 5.94680283 12.07009451 0.00918193 -0.00018213 -0.00358483
C 3.11187521 11.77907247 4.82865332 -0.00084259 -0.01175554 -0.00572186
C 5.64651939 7.34970902 13.15740951 0.00270532 -0.00349374 0.00174377
C 1.57557587 12.04538284 13.04646816 0.00113953 -0.00308276 -0.00562032
C 7.25771335 6.99271114 5.07074524 -0.00164209 0.00512468 0.00185330
C 5.34302753 1.22454610 11.72838601 0.00489174 0.01051937 -0.00188110
C 2.98084067 5.44559788 3.88396976 0.00008250 0.00718593 0.00022291
C 7.16858467 0.13711727 1.23268273 0.00450245 -0.00353740 0.00032223
C 1.46731642 6.46639477 9.65080596 -0.00037850 0.00007961 0.00323613
C 2.97626949 12.52010535 7.14197891 -0.00515546 0.00025558 0.00165376
C 5.83307237 6.80757365 15.53644676 0.00508683 -0.00519727 0.00229549
C 1.78881721 12.69535415 15.43926295 -0.00219719 0.00282956 0.00274802
C 6.94686725 6.53265719 7.41013812 0.00716821 0.00404037 0.00321225
C 5.60592428 0.48580186 9.38782971 0.00132643 -0.01327720 0.00076069
C 2.72593329 5.80808447 1.51497555 -0.00008981 0.00124230 -0.00031501
C 7.11182758 11.53242734 16.58942456 0.00239678 0.00400298 -0.00779400
C 1.48384109 7.61209434 8.65670052 0.00325529 0.00127398 0.00254560
C 2.75363079 1.16002198 7.55396888 0.00544100 0.00463167 0.00029633
C 6.28195081 5.34640442 32.65661912 0.00140910 -0.00103402 0.00696350
C 1.25702430 0.84923209 32.66376499 0.00337319 -0.00486109 0.00261088
C 6.99471545 5.35026809 8.31614519 0.00254786 -0.00349999 -0.00571591
C 6.04122482 12.04699758 8.20209131 -0.00088607 -0.00620399 0.00102567
C 2.90336493 7.46118200 17.11684476 0.00288256 0.01042270 0.00122156
C 7.42407764 0.21007109 21.03190495 -0.00322770 0.00273973 0.00230235
C 0.67319550 5.97982854 29.67564645 -0.00242845 -0.00390498 -0.00459412
C 3.28600892 12.42219212 20.05577138 0.00985428 -0.00015229 0.00016285
C 5.06154193 6.95901175 28.46785573 0.00791576 0.00176219 -0.00111276
C 0.78410190 12.25643422 28.14764074 -0.00635066 -0.00592821 0.00066918
C 7.63325174 6.73476633 19.97148577 0.00170748 -0.00474571 0.00052586
C 5.33364692 0.56387008 29.55786938 0.00189523 0.00068148 0.00854892
C 3.22505546 6.04202218 21.67729661 -0.00130685 -0.00172383 0.00081974
C 7.00860294 0.71287998 22.25053765 0.00447512 -0.00281861 -0.01113454
C 1.15348657 5.45875322 30.83864837 0.00541762 -0.00624964 -0.00339603
C 2.89867585 11.86638974 18.87516168 -0.00026516 -0.00556680 0.00217457
C 5.47472610 7.54537556 27.26724483 -0.00567643 0.01026916 0.00007393
C 1.23283582 11.69614679 26.98150098 -0.00224456 0.00137561 0.00029845
C 7.31965094 7.59347917 18.92277674 -0.00018212 0.00199975 -0.00644234
C 5.79905825 1.31294030 30.63551805 -0.00522860 -0.00475673 -0.00174545
C 2.89260630 5.34851568 22.77707013 -0.00540104 0.00209750 -0.00011792
C 6.29983228 1.92617583 22.29541626 0.00651317 0.00616556 0.00446684
C 2.07570946 4.40433195 30.86956425 0.00828569 -0.00645887 -0.00371236
C 2.09824755 10.62963754 18.96999851 -0.00314997 -0.00197983 0.00179335
C 6.43598368 8.49890440 27.25967187 0.01040738 0.00243031 -0.00725713
C 2.01146278 10.51503655 27.03304281 -0.00804809 -0.00310395 0.00024973
C 6.50406570 8.69993317 19.21175423 -0.00153082 -0.00580770 -0.00453582
C 6.63949933 2.41053351 30.36441730 0.00521077 0.00366981 0.00229745
C 2.06342015 4.19341713 22.61826169 -0.00707222 -0.00268170 -0.00302703
C 5.96439969 2.58429455 21.10860347 0.00341794 -0.00368124 0.00584010
C 2.36214458 3.90074656 29.58763429 -0.00854651 0.00431298 0.00106148
C 1.89990071 10.01245422 20.21566069 -0.00840236 0.00173558 0.00279525
C 6.97914993 8.89323333 28.49128616 -0.01160739 -0.00143924 0.00437317
C 2.19370497 9.84923013 28.26651359 0.00133662 0.00473938 -0.00293842
C 6.22958035 9.06514435 20.56754226 0.00289627 -0.00538550 -0.00718484
C 6.59219422 2.96711146 29.10052294 0.00532314 0.00088886 -0.00657319
C 1.85337089 3.63147683 21.32915354 -0.00001677 0.00312591 0.00443075
C 6.68919144 2.22463621 19.97037437 -0.00635291 -0.00214943 -0.00185736
C 1.96466738 4.39213613 28.40796985 -0.00436195 0.00020596 0.00662900
C 2.33591913 10.61979555 21.36860871 0.00307577 0.00631816 0.01135492
C 6.46712224 8.46021518 29.70350060 0.00672406 -0.00357588 -0.00334402
C 1.85716073 10.44603451 29.48753717 0.00450712 0.00743909 -0.00223434
C 6.65606128 8.27758918 21.58731470 -0.00379717 0.00137702 0.00000679
C 6.10967761 2.22610641 28.02732870 0.00373868 -0.00878211 -0.00430295
C 2.31314004 4.35170397 20.19353058 -0.00393829 0.00508070 0.00505345
C 7.26458614 0.93754548 19.85978563 0.00186427 0.00109438 0.00408979
C 1.04040006 5.47704967 28.42791850 -0.00157655 0.00661212 -0.00217936
C 2.98352838 11.89505077 21.29411046 0.00469280 0.00362078 0.01088810
C 5.61406816 7.26397131 29.67075428 -0.00209914 -0.00313654 0.00261820
C 1.18374808 11.72850419 29.40371207 0.00660588 -0.00159866 -0.00845299
C 7.34938756 7.06171695 21.32291096 0.00513901 -0.00220587 0.00902787
C 5.59236455 0.98758990 28.25486283 0.00489245 -0.00088644 -0.00384219
C 2.97604604 5.61215044 20.33895768 0.00005568 0.00026125 -0.00022478
C 6.96569186 0.45834623 17.44153212 0.00183295 -0.00248000 0.00207642
C 1.16229346 6.08204580 26.04755029 -0.00089152 -0.00534797 -0.00180111
C 2.67619681 12.62091530 23.66081488 -0.01054253 0.00700659 -0.00479476
C 5.92388625 6.59831946 31.93112235 0.00289145 0.00086386 -0.00173408
C 1.32112987 12.18343302 31.74540401 0.00432154 0.00556771 -0.00190063
C 7.46187752 6.15828698 23.60871220 -0.00232071 0.00174738 -0.00420105
C 5.84826349 0.34786872 25.97167776 -0.00043389 -0.00306723 -0.00501239
C 2.99209136 6.14202495 17.96941822 -0.00194098 -0.00038929 -0.00515631
C 7.07331088 11.64552479 0.17793984 -0.00590922 -0.00044940 -0.00394710
C 0.98193282 7.29009278 25.13129910 -0.00176379 -0.00469647 0.00786240
C 2.63015718 0.70395198 24.34166313 0.00293330 0.00696196 0.00049818
C 5.88310521 5.52920948 16.38445595 -0.00107618 0.00037401 0.00388677
C 1.55635210 1.00852870 16.01274490 0.00067346 -0.00094354 -0.00097502
C 7.37379873 4.79895275 24.45568974 -0.00379741 -0.00316636 -0.00127102
C 5.78935727 11.55920655 24.62665475 0.00045458 0.00363965 -0.00758285