2880
Time=91000.00000003 pbc="T T T" Lattice="39.34990569 0.00000000 0.00000000 0.00000000 28.90467007 0.00000000 -12.03216597 0.00000000 24.41861528" energy=-18398.64953989 virial="-26.07696472 23.54461123 -30.36920327 23.54461123 -32.17699629 24.08152883 -30.36920327 24.08152883 -23.37704995" stress="0.00174680 0.00082916 -0.00114998 0.00082916 0.00123926 0.00101883 -0.00114998 0.00101883 0.00167699" Properties=species:S:1:pos:R:3:vel:R:3
C 3.19528266 3.80525965 5.16297549 -0.00781376 -0.00773975 -0.00292320
C 0.34801045 8.55694157 0.76471680 -0.00056564 0.00009756 -0.00110883
C 6.86858245 5.99169965 1.03456276 0.00620086 0.00101457 0.00012211
C 9.60440723 1.23989668 5.23734456 0.00417141 -0.00451871 -0.01288435
C 4.46144905 3.69386402 4.55127732 -0.00347106 -0.00341312 -0.00174564
C 12.20134728 8.47239502 1.59017252 -0.00000299 0.00285501 -0.00075252
C 5.61577980 6.13064414 1.66278936 -0.00703824 0.00526517 -0.00741242
C -2.12143602 1.02962911 4.50966739 0.00318408 0.00918948 0.00103414
C 5.39305779 2.82658094 5.04733994 0.00115955 -0.00468449 -0.00450428
C 11.19121059 7.66134915 1.14906485 -0.00543826 -0.00212710 0.00294312
C 4.69964498 7.05064807 1.21635256 -0.00070330 -0.00444417 0.00132350
C -1.13301095 1.95507113 4.82148820 -0.00700147 -0.00203207 0.00354737
C 5.13621115 2.02084279 6.15079729 -0.00454210 -0.00308725 0.00290347
C 11.36289183 6.79543959 0.06831300 -0.00114217 0.00380086 0.00425240
C 4.85392915 7.79615897 0.06007719 -0.00027422 -0.00132473 -0.00360984
C -1.33762063 2.81860788 5.93887300 -0.00280778 0.00687430 0.00699224
C 6.77249655 2.14543531 0.58241382 -0.00570123 -0.00783756 0.00243153
C 9.84544542 6.84478172 5.66700794 -0.00231524 -0.00328722 0.00353689
C 3.21111485 7.80668536 5.56226261 -0.00199036 -0.00589536 -0.00082362
C 0.40548166 2.84313487 0.60239356 0.01345785 0.00505838 0.00345223
C 5.86594255 3.08128558 0.12985209 0.00048162 -0.01138435 -0.00635975
C -2.41305803 7.84209406 5.74987401 -0.00777811 -0.00126115 0.00237049
C 4.24233268 6.96142746 6.02651371 0.00184919 0.00304893 -0.00202541
C 12.43391609 1.66247760 0.03279649 0.00069499 -0.00601419 0.00539052
C 2.07782571 5.10270082 3.51188984 -0.00122151 -0.00850143 0.00495130
C 1.73669977 0.20888163 2.49781685 0.00475594 0.00199291 -0.00493859
C 8.13232308 4.56618293 2.54531480 0.00159658 0.00075242 0.00667587
C 8.78203716 9.27624970 3.37485356 0.00233136 0.00007320 -0.00226971
C 0.95460965 5.97594140 3.40158170 0.00296677 0.00731191 0.00549851
C 2.95093121 1.02299485 2.66065233 -0.00487975 -0.00227160 0.00049335
C 9.30102824 3.61314321 2.61424055 -0.00083496 -0.00385342 -0.00008853
C 7.74137821 8.24415623 2.94998789 -0.00438030 0.00682723 -0.00391583
C 0.16785543 3.80067594 11.19292593 -0.00438642 0.00194240 -0.00134129
C -2.61771464 8.66889961 6.91544943 0.00987060 0.00181409 0.00543606
C 4.04304110 6.11783905 7.12663961 0.00148979 0.00466848 0.00551842
C 6.63801389 1.20871248 11.23081189 0.00285027 0.00075768 -0.00840125
C 1.41719716 3.58717661 10.61601571 -0.00118516 -0.00382595 0.00168327
C 9.51360455 8.54088147 7.77784164 -0.00031886 -0.00094325 -0.00060972
C 2.71481116 6.13859455 7.74628249 0.00625934 -0.00283237 -0.00320471
C 34.13493536 1.15765687 10.51466359 0.00933683 0.00102589 0.00049871
C 2.31870487 2.67951741 11.11289832 -0.01140174 0.00087411 -0.00321567
C 8.53242548 7.64400652 7.44357664 0.00101242 -0.00030137 0.00943937
C 1.70168914 6.98520912 7.21964155 -0.00569347 0.00112301 0.00200962
C -4.22310805 2.05559521 10.87846066 -0.00195372 -0.00231075 0.00234695
C 2.01171131 1.90668859 12.24233272 0.00383944 -0.00222105 -0.00459914
C 8.65271329 6.80062734 6.37967683 -0.00876835 -0.00136631 -0.00104469
C 1.90713005 7.82422351 6.09270485 0.00123457 -0.00447669 -0.00609849
C -4.36409418 2.83088173 11.97842781 0.00712330 0.00699325 -0.00244352
C 3.96963952 2.29461319 6.88552088 0.00406401 -0.00214521 0.00103705
C 6.51691466 6.86416290 11.51361340 -0.00371631 0.00116485 -0.00063938
C -0.10021640 7.52865123 11.57614335 -0.00467561 -0.00013344 0.00510117
C -2.65004427 2.79999657 6.53838505 0.00286862 -0.00044850 -0.00686007
C 2.92050632 2.99291282 6.27500102 -0.00457105 0.00194096 -0.00257839
C -5.41144684 7.90764327 11.90288994 0.00772069 -0.00470034 -0.00227648
C 0.97469671 6.69811450 12.04207994 -0.00358700 -0.00426731 0.00747885
C 9.53240544 2.05151615 6.39860312 0.00033351 0.00203999 0.00189477
C -0.94520933 5.10131839 9.48174766 0.00469360 0.00327454 0.00711447
C -1.47644612 0.01721140 8.72895658 -0.00375109 -0.00091232 -0.00202292
C 5.21900599 4.63604540 8.76993724 -0.00055669 -0.00083583 -0.00888909
C 5.60863327 9.64910833 9.48926867 -0.00773665 0.00469249 0.00282104
C -1.64755089 6.29118987 9.12535250 0.00430558 0.00341015 0.00127822
C -0.12424536 0.60533304 8.92889372 0.00406674 0.00239906 0.00514153
C 6.39741657 3.76776189 8.94094743 -0.00031928 0.00845616 0.00450737
C 4.25339122 9.09054194 9.14889672 -0.00340616 -0.00332438 -0.00569366
C -2.83254202 3.67435480 17.47162818 0.00263288 0.00167305 -0.00131667
C -5.65989063 8.64431779 13.10790775 -0.00556129 0.00127951 0.00377936
C 0.89392890 5.92642275 13.18997723 0.00126339 0.00106910 -0.00837329
C 3.80197065 1.09569877 17.42700950 -0.00249774 -0.00090909 0.00317428
C -1.64273594 3.64820611 16.68769189 -0.00433330 0.00237807 -0.00007575
C 6.20015966 8.65712490 13.67228855 0.00518678 0.00230795 -0.00509507
C -0.28482411 5.97451963 13.94321965 0.00141905 0.00124803 0.00858103
C 31.12361882 1.17136624 16.64531789 0.00599174 -0.00282245 0.00085562
C -0.66966642 2.74204313 16.96689945 -0.00397063 -0.00823614 0.00263828
C 5.22149844 7.74989648 13.28995319 0.00715516 -0.00556450 -0.00489423
C -1.36698409 6.71481138 13.45672850 0.00462691 0.00465719 -0.00509435
C -7.21682435 1.99753710 17.08513626 -0.00278846 -0.00243247 0.00242108
C -0.82520651 1.82755012 18.09017790 -0.00271994 -0.00456502 -0.00050601
C 5.32522440 6.78027539 12.28427095 0.00524424 -0.00150269 -0.00415493
C -1.24820368 7.62685735 12.32341490 0.00254146 -0.00153736 -0.00109851
C -7.35334419 2.90770731 18.12741713 0.00170660 -0.00010973 0.00688052
C 0.83847719 2.21970559 12.93446413 -0.00879669 0.00000426 -0.00160376
C 3.60190629 6.78992129 17.79190895 -0.00189393 -0.00078832 -0.00030937
C -2.70064243 7.49338631 17.68394158 -0.00103737 -0.00277929 -0.00494857
C -5.56071268 2.75803887 12.67521697 0.00086910 0.00367962 -0.00001527
C -0.08982907 3.10537820 12.34577576 0.00321703 0.00373298 0.00320298
C -8.31267898 7.56258770 18.18546143 -0.00499875 0.00498247 0.00384090
C -1.76895666 6.66657492 18.26879817 -0.00452187 0.00123137 -0.00005925
C 6.44351921 1.99803596 12.36577560 0.00526860 0.00548565 -0.00264643
C -4.05561043 5.03245303 15.88539634 -0.00061898 -0.00245335 -0.00729412
C -4.43514281 0.31963953 14.64883697 0.00298461 -0.00146274 0.00416499
C 2.30943382 4.65201264 14.73727916 0.00432768 0.00521755 -0.00008073
C 2.53535447 9.30258627 15.46864235 0.00498923 -0.00042139 0.00554106
C -5.32643309 5.76994353 15.66087114 0.00486983 -0.00551258 -0.00212945
C -3.17862454 1.16362948 14.72480557 -0.00220577 -0.00763558 -0.00306073
C 3.63144850 3.94837727 14.80943640 -0.00019136 -0.00176318 -0.00046854
C 1.47238016 8.21032360 15.23510307 0.00846376 0.00191416 -0.00339283
C -5.84700431 3.79756356 23.35151410 0.00315955 0.00347773 0.00117625
C -8.47994713 8.52094319 19.15295145 0.00042884 0.00075571 -0.00192351
C -2.01479159 5.86118234 19.40157604 0.00206846 0.00332870 0.00028724
C 0.74859437 0.83689509 23.38101039 0.00848696 0.00250545 0.01129792
C -4.67334305 3.58961652 22.70576954 -0.00969952 0.00297805 0.00288131
C 3.18022324 8.37058363 19.96832658 -0.00081294 -0.00240479 0.00124191
C -3.25650933 5.96586779 20.00989270 0.00582096 -0.00328475 -0.00314657
C -11.18463848 1.19769537 22.77914603 -0.00125945 -0.00217114 0.00168228
C -3.78636262 2.61496249 23.16238234 -0.00488259 0.00089482 -0.00176731
C 2.25224615 7.35905247 19.59545251 -0.00561279 -0.00117656 0.00287604
C -4.16395203 6.89972172 19.51276131 -0.00510149 0.00358711 -0.00081792
C -10.26416265 2.20390251 23.07782062 0.00782802 0.00354512 -0.00432970
C -4.01299252 1.95532445 24.35796799 0.00339697 -0.00010152 -0.00748444
C 2.34843483 6.69500219 18.38610273 -0.00998675 -0.00468335 -0.00200522
C -3.93521718 7.54838313 18.30906421 0.00302622 -0.00078793 0.00175689
C -10.45579970 3.00744926 24.19698965 0.00129672 0.00338902 0.00139143
C -2.09307181 1.76623829 18.75946865 0.00540555 0.00315500 0.00647475
C 0.56200216 6.78941128 23.79960287 -0.00023090 -0.00203215 -0.00323038
C -5.93205840 7.70981713 23.87237730 0.00227055 -0.00057915 -0.00194897
C -8.58218887 2.83494880 18.75774053 -0.00287207 0.00141947 0.00145100
C -3.03723896 2.77773907 18.55593686 -0.00388634 0.00485939 -0.00974425
C -11.57681144 7.78753413 24.06827078 0.00138393 -0.00090283 -0.00037124
C -4.99342614 6.84340277 24.34294256 0.00515398 0.00291822 0.00308334
C 3.59477448 1.91105974 18.54520309 -0.00559594 -0.00111858 0.00409772
C -6.92112887 5.21186347 21.70804684 0.00117017 0.00356450 -0.00799628
C -7.42420273 0.40260460 21.06115721 0.00136785 -0.00210388 0.00383561
C -1.06569910 4.24603269 20.93664516 0.00184848 -0.00422918 -0.00086409
C -0.42005842 9.26491066 21.65854436 0.00161949 -0.00079955 -0.00358768
C -8.11708804 6.17278699 21.48084074 -0.00587730 -0.00158341 0.00332097
C -6.27123622 1.33525467 21.17748964 0.00866170 0.00498632 0.00554806
C -0.09234265 3.12342265 21.21761265 0.00054334 0.00345212 0.00348329
C -1.63891641 8.36288405 21.48366210 -0.00125579 0.00279164 -0.00136282
C 3.14196282 13.36508582 4.93000569 -0.00320693 -0.00171854 0.00040602
C 0.44487627 18.20598844 0.97545878 -0.00452547 0.00223144 -0.00901129
C 7.02215419 15.56467158 0.83271927 -0.00070795 0.00982463 0.00097957
C 9.69629120 10.69987925 5.07667935 0.00415598 -0.00309224 -0.00510994
C 4.34899163 13.19699958 4.27847652 0.00135909 -0.00608783 0.00916035
C 12.30076357 18.08272123 1.74821760 0.00072817 0.00329932 0.00565669
C 5.73737591 15.63393977 1.42117695 0.00183138 -0.00347430 0.00288349
C 37.11660512 10.83718285 4.34353820 0.00247647 -0.00056850 -0.00355580
C 5.23271074 12.15961942 4.56927230 0.00017632 -0.00093781 -0.00387972
C 11.40394362 17.12078923 1.30675991 0.00225902 0.00777417 -0.00925110
C 4.69239134 16.34534282 0.98588152 -0.01060030 0.00638590 -0.00018536
C -1.32851666 11.74429141 4.78938835 0.00042017 -0.00731431 0.00284135
C 4.94858598 11.31402553 5.67722574 -0.00382381 0.00116537 0.00260967
C 11.61123285 16.37721000 0.10366801 -0.00304578 0.00119324 0.00500816
C -7.12560656 17.25514989 24.33608441 0.00260907 0.00747852 -0.00442977
C -1.48395446 12.36769495 6.07284934 0.00130876 0.00134291 0.00780318
C 7.11470862 11.54262130 0.43529221 0.00306418 0.00289836 0.00367431
C 9.85694401 16.80563163 5.52662638 -0.00027215 0.00070795 0.00532899
C 3.42573068 17.35948374 5.71449853 -0.00158417 -0.00351516 -0.00152872
C 0.44387417 12.36635947 0.47133042 0.00618951 -0.00557895 0.00713404
C -5.91041542 12.38155267 24.40824097 0.00639466 0.00557477 0.00448001
C -2.39437325 17.37547658 6.12181775 -0.00101971 -0.00287601 -0.00309197
C 4.28107203 16.35326364 6.03471683 -0.00668302 0.00020584 -0.00121849
C 0.45131555 11.55902300 24.31961555 -0.00463702 0.00382783 -0.01031434
C 1.74287706 14.70436030 3.50396621 0.00502729 0.00417179 -0.00003121
C 1.36319454 9.98534111 2.46546997 0.00866727 0.00270907 0.00147846
C 8.14395657 14.32064730 2.50798717 0.00177031 0.00088173 -0.00582914
C 8.65239663 19.07737271 3.52373247 -0.00397243 -0.00382356 0.00160166
C 0.37844428 15.19302763 3.59545665 -0.00214993 0.00295739 0.00002906
C 2.64290924 10.66651334 2.84348424 -0.00765435 -0.00136549 0.01434404
C 9.39290500 13.56858995 2.91150460 -0.00395757 -0.00250845 0.00098834
C 7.43768238 18.20458306 3.45259714 -0.00815514 -0.00345189 0.00007042
C 0.24238008 13.31848466 11.16165029 -0.00510973 -0.00408982 0.01323566
C -2.72664987 18.15603991 7.18103113 0.00392613 0.00659671 0.00007770
C 3.91227853 15.51447699 7.06695653 0.00826946 -0.00884447 0.00392270
C 6.86796851 10.73209115 11.18158156 0.00196041 0.00106243 0.00094298
C 1.49469148 13.37277620 10.57669434 0.00509850 0.00205961 0.00197828
C 9.41533205 18.13401718 7.91251140 -0.00118633 -0.00110448 -0.00261633
C 2.73463861 15.70037048 7.79438390 0.00015656 0.00183155 -0.00484108
C 34.13630286 11.02907434 10.50689725 -0.00003798 0.00085166 0.00126780
C 2.50863089 12.52506328 10.99786905 -0.00124811 -0.00088143 -0.00364743
C 8.48719993 17.19942812 7.44973666 -0.00370580 0.00649965 0.00340049
C 1.88496723 16.68706868 7.47469601 0.00026398 -0.00970372 -0.00061935
C -4.34829829 11.96572494 11.04214968 0.00257175 0.00340675 -0.00345887
C 2.20564410 11.54451334 11.99898276 -0.00214235 -0.00560555 0.00095081
C 8.58938372 16.54387270 6.19798164 0.00230244 0.00073322 0.00010487
C 2.11089792 17.49548659 6.32273856 -0.00024576 0.00481670 0.00129806
C -4.74828696 12.78666466 12.12243516 -0.00121507 -0.00827958 -0.00316478
C 3.67427921 11.40337475 6.20373177 -0.00931696 -0.00453855 0.00229976
C 6.69467346 16.50228873 11.77204431 0.00683349 0.00086034 0.00472415
C 0.12852443 17.34965723 11.71871448 0.00715366 -0.00047617 0.00287529
C -2.69728432 12.31147298 6.77584121 0.00127533 0.00248232 -0.00062283
C 2.78545249 12.46405433 5.92031429 0.00590836 0.00056456 -0.00074009
C -5.39063482 17.34284029 12.23447465 -0.00188843 -0.00331849 0.00350841
C 1.13446707 16.50406361 12.11620318 0.00277322 -0.00333074 -0.00120258
C 9.37783162 11.47519913 6.26550794 0.00163839 0.00335978 -0.00009119
C -0.97990560 14.72901660 9.57475569 -0.00516037 0.00643844 -0.00195324
C -1.39845123 9.97353533 8.63401688 0.00086355 -0.00585258 -0.00318576
C 5.27094523 14.18217160 8.63601756 0.00429960 0.00672476 -0.00059854
C 5.53928608 18.76314965 9.56315412 0.00074260 0.00295982 -0.00240552
C -2.14116628 15.61534471 9.53903777 -0.00081539 0.00457303 0.00386409
C -0.19943393 10.84475151 8.79770626 0.00615579 -0.00730861 -0.00484167
C 6.44468253 13.26903517 8.72776771 -0.00119297 -0.00403882 0.00438883
C 4.39010395 17.88623616 9.46828944 -0.00860062 0.00101732 0.00325730
C -2.92695736 13.29202775 17.15310079 0.00717314 -0.00188917 -0.00467408
C -5.62325987 18.15646098 13.39846317 -0.00330129 -0.00339313 -0.00151117
C 0.96595591 15.64086269 13.19245571 0.00707976 -0.00149167 -0.00328062
C 3.51561458 10.68473873 17.15945690 0.00126555 -0.00801337 -0.00483125
C -1.71587125 13.23823368 16.45541590 0.01094795 -0.00104688 -0.00121520
C 6.26368324 18.23204967 13.89002811 0.00963096 -0.00386834 0.00245417
C -0.21662909 15.76244295 13.98693586 0.00292723 0.00493185 0.00179485
C -8.17096587 10.76396281 16.60214600 -0.00773840 0.00037497 -0.00626618
C -0.68128596 12.44526087 16.94403278 0.00126014 -0.01007650 0.00120653
C 5.34614269 17.27585305 13.58705891 -0.00733732 0.00674171 0.00158837
C -1.22744320 16.61333111 13.57305895 -0.00168782 0.00428215 0.00165592
C -7.25406349 11.68493984 16.88307433 -0.00052273 0.00989202 -0.00744378
C -0.87076186 11.58159953 17.99866584 0.00142266 0.00812138 -0.00123435
C 5.44240372 16.52987185 12.43093324 0.00210793 -0.00925137 -0.00086213
C -1.11239513 17.36872083 12.42574052 0.00120305 -0.00000969 -0.00261215
C -7.37947898 12.55495296 18.01928664 -0.00602251 0.00231041 -0.00033594
C 0.91483156 11.51499847 12.55779360 -0.00145626 0.00174036 -0.00530117
C 3.68110693 16.51508013 17.69048109 -0.00560645 -0.00496695 -0.00300498
C -3.08171132 17.20048611 17.63327540 0.00780450 -0.00767206 0.00072560
C -5.96955178 12.63780332 12.75653212 0.00635703 0.00402036 -0.00464629
C -0.03755560 12.40111249 12.16478964 -0.00227047 0.00029197 0.00150024
C -8.33647409 17.23241485 18.21559704 0.00073716 -0.00060173 0.00284839
C -2.02366842 16.40901088 18.10688326 -0.00512400 0.00655523 -0.00448556
C 6.60370725 11.57878887 12.35557915 0.00323691 0.00050805 0.00222475
C -4.03436277 14.67250276 15.56224136 -0.00920452 0.00184522 0.00093710
C -4.35847651 9.99751289 14.67493745 -0.00045111 -0.00097012 -0.00099265
C 2.27261863 14.34105127 14.72666503 0.00319699 0.00181193 -0.00312118
C 2.47386257 19.07387962 15.65503910 0.00202969 -0.00647835 0.00189684
C -5.15690647 15.60353060 15.17778453 0.00370281 0.00496903 -0.00158940
C -3.06145467 10.68462204 14.83451151 -0.01000699 -0.00440349 0.00100680
C 3.53708223 13.50741860 14.87807156 -0.00109393 -0.00138413 0.00010211
C 1.18077922 18.31305623 15.56269741 -0.00435965 -0.00069795 -0.00106934
C -5.70065623 13.31574440 23.36914677 0.00967519 -0.00083475 0.01127397
C -8.57144919 18.16961635 19.26324269 -0.00248503 0.00170673 0.00341784
C -2.16589057 15.53052681 19.20363259 -0.00613643 -0.00219724 -0.00040585
C 0.75863475 10.72608029 23.22773458 0.00716029 0.00078681 0.00080425
C -4.49058089 13.31985083 22.74331533 -0.00240647 0.00066086 -0.00029431
C 3.44438271 18.23110466 19.83093528 -0.00892682 0.00565483 -0.00027952
C -3.48616541 15.44453629 19.78207542 -0.00470696 -0.00096008 -0.00337213
C 28.05681386 10.78457523 22.61745725 -0.00355681 -0.00138412 0.00118066
C -3.46227270 12.42914600 23.11174164 0.00285529 0.00695129 -0.00110276
C 2.38834565 17.39040357 19.51147134 0.00126817 -0.00392331 0.00262555
C -4.46247208 16.34497544 19.46449168 -0.00024905 -0.00108991 -0.00077648
C -10.21411091 11.49638724 23.16071943 0.00648180 0.00573206 -0.00249389
C -3.68509482 11.55073779 24.19743974 -0.00122688 0.00300258 -0.00471290
C 2.47986528 16.54247534 18.43160175 -0.00313445 0.00346163 -0.00731551
C -4.30342816 17.25026710 18.35417496 0.00063520 -0.00460242 -0.01087544
C -10.33914331 12.33732293 24.29885742 -0.00538260 0.00850276 0.00297965
C -2.07064849 11.60242458 18.70383538 0.00414737 0.00009482 -0.00336809
C 0.75299051 16.51873229 23.82627539 -0.00145109 0.00944217 0.00514444
C -5.92601845 17.22554502 23.63699433 -0.00236744 0.00043854 -0.00155439
C -8.51641990 12.39334700 18.75185176 -0.00931576 0.00357620 -0.00375868
C -3.04043107 12.41786906 18.22349864 -0.00021293 0.00494968 0.00007971
C -11.25761210 17.27666805 24.38059368 0.00734160 -0.00023708 -0.00346032
C -4.87041617 16.44417833 24.16928577 -0.00347929 -0.00115826 -0.00086542
C 3.27872177 11.46267292 18.29764071 -0.00111695 0.00684430 0.00123767
C -7.10766709 14.58917073 21.85761983 0.00079125 0.00199546 0.00228626
C -7.29935667 9.88888708 20.66382300 0.00014768 -0.00245980 -0.00091004
C -0.80593794 14.14005690 20.71028739 -0.00383929 -0.00575896 0.00549599
C -0.71902746 18.97499956 21.82801518 -0.00847353 0.00500234 0.00617980
C -8.41014765 15.32008656 21.81094971 0.00234055 -0.00203783 0.00445283
C -6.16555739 10.86715817 20.82588013 -0.00009123 -0.00927738 -0.00502535
C 0.46513699 13.38947524 20.72697910 -0.00086727 -0.00067292 -0.00085989
C -2.01043112 18.28174058 21.65009992 0.00572454 -0.00550662 0.00463337
C 3.24918310 22.95333074 5.33620542 -0.00352134 0.00030231 -0.00045354
C 0.37669079 27.85197792 1.00520667 0.01063073 0.00114090 0.00035104
C 6.92299344 25.31219652 1.06120430 0.00698926 0.00300888 -0.00355612
C 9.80465885 20.51929090 5.09434697 -0.00259925 -0.00151219 0.00558120
C 4.53172203 23.04697473 4.74519491 -0.00209579 -0.00163914 -0.00259590
C 12.24263107 27.52853123 1.68400546 0.00703183 0.00465156 -0.00114818
C 5.62624997 25.18669681 1.63571038 -0.00178553 0.00322484 0.00240561
C 37.18203831 20.54666566 4.34540895 -0.00309872 -0.00394339 0.00305233
C 5.50834026 22.19794927 5.23073343 0.00217053 -0.00032081 0.00184518
C 11.29097277 26.75102025 1.13161990 -0.00739991 -0.00202718 0.00303100
C 4.68447946 26.12151888 1.23086985 0.01081522 0.00128181 0.00543806
C -1.22923279 21.47398788 4.76979241 -0.00378451 0.00904076 0.00784413
C 5.26681397 21.25453134 6.25067406 0.00288689 -0.00130807 0.00630326
C 11.49288503 25.86784991 0.03235495 0.00773627 -0.00990220 -0.00381742
C 4.98085115 27.15377341 0.34121359 0.00214723 -0.00393266 0.00071389
C -1.43042004 22.25127753 5.99789743 0.00227496 0.00283042 0.00129094
C 6.85308088 21.28123535 0.56094782 0.00042033 0.00797157 -0.00232850
C 9.68862961 25.98412456 5.62838773 0.00102384 -0.00038927 0.00423177
C 3.05577358 26.94921517 5.71933721 -0.00612971 0.00381818 -0.00892014
C 0.27595611 22.08592617 0.54967174 0.00108290 0.00072499 -0.00299726
C 5.90191909 22.22786397 0.18639840 0.00170208 0.00533527 0.00907064
C -2.50799701 26.79337910 6.00720301 -0.00441393 -0.00346889 0.00269386
C 4.04013517 26.08228465 6.07064835 0.00534784 0.00428424 0.00224130
C 12.55497756 21.21729185 0.00526784 -0.00420952 0.00441932 -0.00400365
C 2.04621762 24.25660253 3.64274702 -0.00561934 -0.00327910 -0.00479004
C 1.59287774 19.69983584 2.52874437 0.00158106 0.00410337 -0.00262660
C 8.21061579 23.81768646 2.56250127 -0.01696649 -0.00202528 0.00201941
C 8.29878183 28.62883316 3.83237564 0.00225684 0.00408240 -0.00801195
C 0.76627165 25.07976044 3.40118147 -0.00397514 0.00652175 -0.00180365
C 2.80294179 20.44103965 2.74845068 -0.00193403 -0.00159508 0.00236358
C 9.41198520 22.80933051 2.53135103 0.00064008 0.00668450 0.00150792
C 6.92267028 27.99076993 3.79479856 -0.00015730 0.00319806 -0.00576611
C 0.08727580 23.00256992 11.25383151 -0.00081986 0.00400965 -0.00062332
C -2.71374419 27.64945761 7.11656360 0.00000287 -0.00240103 0.00136737
C 3.88815037 25.23770065 7.20916762 0.00869410 0.00589834 0.01035573
C 6.65484938 20.20081480 11.21196991 0.00299396 0.01083881 0.00195767
C 1.29884951 22.86390074 10.49222413 -0.00856322 -0.00139164 0.00202469
C 9.21263661 27.77470472 7.73961339 0.00104528 0.00366816 0.00071927
C 2.66048807 25.26139890 7.91127277 0.00194702 -0.01309774 -0.00499115
C 34.00870477 20.41483602 10.61252826 0.00905916 -0.00353814 0.00519604
C 2.33006451 22.00719138 10.84861882 -0.00245019 0.00231759 0.00143683
C 8.26938311 26.86740537 7.37279797 -0.00077626 0.00732372 0.00586609
C 1.60688086 25.99358668 7.47268302 -0.00722415 0.00637295 -0.00386726
C -4.31764542 21.27872971 10.92553363 -0.00033926 -0.00104479 0.00508770
C 2.16639746 21.23658260 11.98887550 -0.00109507 0.00174590 0.00940434
C 8.38777954 26.02381757 6.29698050 -0.00595407 0.00165162 -0.00463824
C 1.79880768 26.82627393 6.36583848 0.00001924 -0.00227666 0.00077219
C -4.44350223 22.08914740 12.06943185 0.00158771 0.00454463 -0.00326461
C 4.06773459 21.29377604 6.91900911 0.00071585 -0.00206088 -0.00395059
C 6.95241199 25.75604140 11.66023625 0.00299187 -0.00261787 -0.00469980
C 0.41628219 26.87754644 11.66586279 -0.00475659 -0.00094628 -0.00200543
C -2.70604775 22.15923475 6.62924874 0.00722727 -0.00169595 -0.00023298
C 3.08558066 22.17220264 6.53107380 -0.00031459 0.00256709 0.00064082
C -5.48011612 27.02363513 11.86000313 -0.00291469 -0.00119272 -0.00108445
C 1.33221705 25.98858543 12.17823450 -0.00424070 -0.00493754 -0.00410319
C 9.60143471 21.29146804 6.19623602 -0.00206864 0.00667497 0.00444958
C -1.01250520 24.46370698 9.70279328 0.00424798 0.00133949 -0.00131099
C -1.46865089 19.42756780 8.69477211 -0.00226182 -0.00923892 0.00218833
C 5.15649981 23.98390809 8.86717746 0.00235907 -0.00410885 0.00025455
C 5.58002053 28.58180773 9.84112003 0.00596254 0.00416396 0.00326242
C -2.20391036 25.33115657 9.40325304 -0.00392379 -0.00052921 0.00165003
C -0.09908776 20.12655450 8.74463553 0.00125092 0.00336143 -0.00452229
C 6.34749608 23.12536787 9.01045534 -0.00315036 -0.00716939 -0.00750078
C 4.48970986 27.53757365 9.69354681 -0.00053103 0.00127149 -0.00212146
C -2.77502890 22.99416080 17.31259629 -0.00037788 0.00053991 -0.00213658
C -5.67592203 27.80930513 13.02937659 0.00256112 -0.00756912 -0.00118129
C 1.04286682 25.18904919 13.27893005 0.00403469 0.00007026 0.00465183
C 3.75915929 20.40124691 17.19186490 -0.00345957 0.00266823 0.00353412
C -1.58635731 22.86551998 16.58477622 -0.00211438 0.00333476 -0.00180408
C 6.24569069 27.35928216 13.91207240 -0.00219797 0.00136745 0.00282927
C -0.16241148 25.39550047 13.97556508 -0.00486716 -0.00187769 0.00018671
C -8.13216490 20.66058414 16.73042994 -0.00339243 -0.00693788 -0.01595739
C -0.61616212 22.03253220 17.03379792 -0.00225486 -0.00537179 -0.00317803
C 5.47928852 26.32631908 13.57311506 -0.00564200 -0.00395418 0.00225074
C -1.14201491 26.20841240 13.47672545 0.00739283 -0.00395724 0.00112599
C -7.18060463 21.55634801 17.08483269 0.00374633 -0.00333822 -0.00101953
C -0.73951781 21.11071175 18.10901982 -0.00756094 0.00456885 0.00140956
C 5.79596878 25.45830813 12.44626808 0.00022082 -0.00363196 -0.00323508
C -0.82989769 27.02882208 12.30299036 -0.01022825 -0.00128253 0.00857639
C -7.47604430 22.38580236 18.19277246 0.00135538 0.00302274 0.00590560
C 0.90574438 21.22434570 12.66911910 0.00233781 0.00181039 -0.00608664
C 3.73241807 26.01951308 17.78350438 -0.00551649 -0.00427040 0.00200972
C -2.71350660 26.94038045 17.96221032 0.00222100 -0.00560199 0.00806409
C -5.61780819 21.97214626 12.83806169 -0.00161441 0.00245188 0.00797992
C -0.07907166 22.13232717 12.37347754 -0.00047231 0.00340809 -0.00088088
C -8.39228452 27.22981206 18.29816512 -0.00126915 -0.01083218 -0.00305790
C -1.79238246 25.97855747 18.32531925 0.01061396 -0.00050789 0.00022502
C 6.44652569 20.99356576 12.31405057 0.00680487 0.00400515 -0.00967195
C -4.13327063 24.39930748 15.80339925 0.00638084 0.00155353 -0.00371000
C -4.32441399 19.73806219 14.78665194 0.00191337 -0.00049708 0.00293542
C 2.05397400 23.61454063 14.92440513 -0.00537862 -0.00179721 0.00288064
C 2.61316960 28.58072978 15.90256921 0.00757255 -0.00264351 -0.00182965
C -5.48797450 25.08298184 15.79602970 0.00105395 -0.01104081 -0.00628491
C -2.95820044 20.42050402 14.84002573 -0.00392583 0.00217398 -0.00261301
C 3.07606841 22.53603471 14.95531902 0.00507144 0.00764980 -0.00442003
C 1.41307265 27.70741405 15.77919561 -0.00087195 0.00601567 0.00515604
C -5.90151211 23.13648854 23.56691072 0.00051447 -0.00368067 0.00364033
C -8.60029947 28.01319214 19.43034725 0.00434520 -0.00586261 0.00257519
C -2.02481507 25.09846527 19.35161113 0.00214338 0.00397528 -0.00660391
C 0.61820542 20.33513356 23.34769316 -0.00076553 0.00072627 -0.00039233
C -4.65771040 23.07293676 22.90349882 -0.01016719 0.00238382 -0.00520115
C 3.39670036 27.75481557 19.96374611 -0.00266169 0.00052943 -0.00492882
C -3.24374849 25.22033675 20.00911922 -0.01013949 -0.00268391 -0.00392431
C -11.18077249 20.52702167 22.81894528 -0.00796702 -0.00163523 -0.00502136
C -3.75985464 22.11864056 23.27828335 -0.00224328 -0.00157243 0.00138711
C 2.41666858 26.85504102 19.52258302 -0.00224193 -0.00235593 0.00416256
C -4.22827957 26.11776880 19.61198231 -0.00854691 0.00517451 -0.00202052
C -10.16961322 21.37954118 23.29204224 0.00321932 0.00147593 0.00792141
C -3.99979803 21.20231034 24.32093240 -0.00142631 -0.00890262 -0.00002438
C 2.50072112 26.02597571 18.42290037 -0.00154289 -0.00105909 -0.00016082
C -3.93756412 27.06717426 18.56823818 -0.00819994 -0.00456600 -0.00305557
C -10.50767335 22.24778743 24.33431586 -0.00233752 -0.00130627 -0.00140353
C -2.01261588 21.22647856 18.76804868 -0.01264109 0.00280984 0.00559822
C 0.72807216 25.86292494 23.86989568 0.00369514 0.00740980 -0.00072785
C -5.84100566 27.11310814 24.01716228 0.00253035 -0.00433633 -0.00005799
C -8.67102311 22.27354376 18.97349092 0.00186262 -0.00024239 0.00752470
C -3.01142199 22.01621675 18.31247703 0.00002973 0.00404096 0.00214963
C -11.48973985 27.00411010 24.27782154 -0.00479769 0.00069560 0.00351197
C -4.91407454 26.16340066 24.39167667 -0.00404019 -0.00257076 -0.00091034
C 3.51679796 21.14127851 18.34264553 0.00147290 -0.00008419 -0.00288346
C -7.15260728 24.42262370 21.94880883 -0.00195601 -0.00446923 -0.00137107
C -7.52347203 19.79376600 20.74162878 0.00707865 -0.00126449 -0.00020615
C -0.70483441 23.83539002 20.86674301 -0.00568317 0.00442088 -0.00958735
C -0.40097411 28.42926446 21.70169073 -0.00586824 0.00239981 0.01102161
C -8.40994879 25.07705103 21.57517177 0.00642397 -0.00235639 -0.00267976
C -6.33677024 20.70591846 20.78770541 -0.00038725 0.00375894 0.00053931
C 0.60512188 23.10682857 21.05100289 0.00228484 -0.00491576 -0.00618066
C -1.51000767 27.42067087 21.51788728 -0.00187129 -0.00145070 -0.01207073
C 16.30998185 4.07919426 5.28595016 0.00186305 0.00258513 -0.00427471
C 13.45295011 8.48358898 0.92112710 -0.00153877 0.00334287 -0.00151574
C 19.90802993 5.93573892 0.90919105 0.00275705 0.00493961 -0.00082423
C 22.90846623 1.17880138 5.16625236 0.00697526 -0.00941368 -0.00087510
C 17.47117655 3.82070118 4.44730621 -0.00224195 -0.00434362 0.00201728
C 25.50493888 8.30779618 1.84236354 -0.00173046 -0.00282112 -0.00025004
C 18.71326362 5.99600716 1.62926688 -0.00071788 -0.00251849 0.00017624
C 10.74836356 1.40681548 4.41947099 0.00268631 -0.00606363 -0.00066843
C 18.34347913 2.84330084 4.81547757 0.00054900 -0.00180440 0.00347298
C 24.52872869 7.43512280 1.48751608 -0.00408687 0.00339127 -0.00731570
C 17.77961346 6.88321538 1.21334096 0.00518553 -0.00074994 0.00214126
C 11.79212638 2.17256494 4.84029406 0.00092555 0.00284145 0.00347670
C 18.16983655 2.01448272 5.96728154 0.00731595 0.00617948 0.00042077
C 24.72731363 6.48244999 0.45291414 0.00225026 0.00134111 0.00073267
C 17.93127065 7.73423416 0.05453922 -0.00216488 -0.00262374 -0.00632006
C 11.77021199 2.92884086 6.07858781 0.00074324 0.00413366 0.00160672
C 19.89336873 1.98352335 0.39215296 -0.00045719 0.00140530 0.00069417
C 22.88145026 6.60379213 5.64069669 -0.00114745 0.00663965 -0.00563497
C 16.47739005 7.74388358 5.52107645 0.00191671 -0.00194932 -0.00427359
C 13.38503308 2.56584678 0.57009103 -0.00573724 -0.00709147 0.00044837
C 6.87672376 2.89558819 24.41175578 0.00506819 0.00043491 -0.00305412
C 10.86937007 7.71773050 6.01288950 0.00404219 0.00054203 -0.00407959
C 17.39172942 6.77685367 5.91320888 -0.00262712 -0.00028147 0.00971861
C 25.57001069 1.91009352 0.08724443 -0.00793682 0.00619942 -0.00384870
C 15.12052007 5.23139834 3.53330133 0.00327871 -0.00338828 -0.00159850
C 14.63087821 0.30401796 2.56017129 -0.00819355 0.00051289 0.00540955
C 21.12137595 4.50495852 2.47367453 0.00385589 0.00352814 -0.00154211
C 21.46010897 9.25920952 3.40091003 -0.00000596 0.00754157 -0.00304200
C 13.66098612 5.62014628 3.25420306 0.00535501 0.00293827 -0.00748096
C 15.78792684 1.23013606 2.69479038 -0.00417418 0.00088723 0.00172249