2880
Time=58000.00000005 pbc="T T T" Lattice="39.30927033 0.00000000 0.00000000 0.00000000 28.97230294 0.00000000 -12.00740068 0.00000000 24.31819919" energy=-18396.85022950 virial="20.57058672 -12.51280403 -25.67497685 -12.51280403 12.84530254 2.82551026 -25.67497685 2.82551026 -23.31833663" stress="0.00329302 -0.00048008 -0.00093629 -0.00048008 0.00289046 0.00009378 -0.00093629 0.00009378 0.00160173" Properties=species:S:1:pos:R:3:vel:R:3
C 3.14267383 3.67640657 4.98675458 0.00274273 0.00612410 0.00086321
C 0.21477971 8.77889908 0.97881411 -0.00130856 0.00230872 -0.00610493
C 6.75146921 6.02828195 1.01567726 0.01146645 -0.00161732 -0.00314600
C 9.70397786 0.89768152 5.01979105 0.00158147 -0.00428779 -0.00388659
C 4.49592654 3.74752650 4.53088594 0.00770140 0.00797853 0.00115885
C 12.33791380 8.61988311 1.67426131 -0.00530257 0.00785051 -0.00437161
C 5.55683713 6.18056609 1.77819270 -0.00601429 0.00254336 0.00132880
C -2.09762370 1.01873241 4.63189134 0.00137741 0.00433083 0.00169885
C 5.46557157 2.86599132 4.93894184 0.00101696 -0.00326537 0.00397019
C 11.30012712 7.71169117 1.34917974 -0.01277050 -0.00211053 0.00435535
C 4.62882854 7.14036398 1.36996845 -0.00106379 -0.00060718 -0.00179374
C -1.15514904 1.98853703 4.93257705 -0.00092561 0.00443813 -0.00007683
C 5.18249975 2.00850696 6.01117540 -0.00320788 -0.00412011 0.00187436
C 11.47802359 6.74863813 0.32769747 -0.00672815 -0.00092246 -0.00291054
C 4.79651807 7.86402544 0.17062523 0.00278342 -0.00065072 -0.00102197
C -1.31558799 2.83261096 6.07618220 -0.00784550 -0.00065211 0.00517159
C 6.98580253 1.93240611 0.68318846 0.00446908 -0.00377048 0.00357184
C 9.39323485 6.85368768 5.30627417 0.00373418 -0.00182912 -0.00102099
C 3.11660943 7.51509473 5.68225076 0.00022262 -0.00663918 -0.00052357
C 0.47137522 2.91851276 0.81733622 -0.00230949 -0.01145220 0.00928505
C 5.88558880 2.74785685 0.27247818 -0.00206567 0.00328993 0.00578134
C -2.48770901 7.67120186 6.04166735 -0.00191529 0.00326694 -0.00022538
C 4.00587926 6.57303771 6.04885762 -0.00281881 0.00706715 -0.00059110
C 12.43810692 1.83190372 0.23442425 -0.00471006 -0.00371783 0.01120178
C 1.91134897 5.30724482 3.59190023 0.00308269 0.00588951 -0.00980211
C 1.75249310 0.19715100 2.72699982 0.00150973 0.00286678 0.00607372
C 7.90453100 4.50962934 2.55097594 0.00293543 0.00000335 0.00040825
C 8.52134412 9.59260929 3.54420437 -0.00312871 -0.00317814 -0.00146064
C 0.55931006 5.80555234 3.32362798 -0.00034519 0.00996409 -0.00445958
C 2.95028607 1.12359744 2.90146206 0.00214066 -0.00102513 -0.00398620
C 9.10768014 3.66916716 2.65200058 -0.00446143 -0.00440039 0.00156169
C 7.24596641 8.83233055 3.51080249 -0.00126073 0.00201855 0.00394639
C 0.23692414 3.71048330 11.31968822 -0.00107079 -0.00412579 0.00030184
C -2.75479447 8.46724830 7.19128400 -0.00199302 -0.00518676 -0.00415854
C 3.86455094 5.81210005 7.19490342 -0.00531899 0.00756498 0.00229677
C 6.44977374 0.82094205 11.30423895 0.00128133 -0.00303211 -0.00384659
C 1.41761129 3.51050106 10.58465746 0.00222529 0.00188568 0.00392067
C 9.18395366 8.40124283 7.63164392 0.00216432 -0.00120358 -0.00620693
C 2.57471329 5.82496109 7.72379032 0.01000891 0.00080145 -0.00268799
C 34.00198704 1.06236138 10.42040663 -0.00193006 0.00341468 -0.00439245
C 2.36012006 2.73668967 11.11177152 -0.00041028 0.00767781 0.00303413
C 8.25870392 7.41224095 7.40011359 -0.00184970 -0.00368694 0.00182118
C 1.54868993 6.60763342 7.34015476 -0.00623555 -0.00127937 0.00015232
C -4.36971135 2.08046716 10.76307553 -0.00352960 0.00570967 -0.00080654
C 2.15327415 1.98836782 12.32154375 -0.00349810 0.00518571 0.01023184
C 8.23027451 6.76116463 6.13851062 0.00106063 -0.00408461 0.00082945
C 1.77230163 7.50651022 6.26867170 -0.00151363 -0.00149963 0.00226756
C -4.56138681 2.88222502 11.92960644 0.00125762 -0.00481927 0.00058499
C 3.88950939 1.97688717 6.55207622 0.00337374 0.00031701 -0.00583748
C 6.65869717 6.86264785 11.50095492 -0.00736479 0.00138809 -0.00100362
C 0.15646915 7.39342286 11.67722962 0.00262949 0.00226425 0.00641205
C -2.55282922 2.80668736 6.71059032 0.00600906 0.00236399 0.00203958
C 2.90756489 2.74547993 6.04030821 0.00042382 0.00453862 0.00161745
C -5.32214437 7.82764254 12.36367998 -0.00002663 -0.00159836 -0.00283741
C 1.10553542 6.52284910 12.12566073 -0.00140666 -0.00060345 -0.00789051
C 9.48117020 1.70953918 6.14389919 0.00479247 0.00443104 -0.00145798
C -0.92151914 5.03474858 9.72672323 0.00663089 0.00192426 0.00366964
C -1.36183008 0.23386784 8.79110792 0.00097739 -0.00683384 0.00326341
C 5.01755458 4.34440742 8.77027365 0.00555381 -0.00621797 -0.00294052
C 5.42937405 9.30495915 9.58522638 0.00184650 -0.00222786 0.00328330
C -2.08367034 6.04558847 9.61330022 0.00291830 0.00118685 -0.00020057
C -0.20604541 1.16509550 8.98712209 0.00247495 0.00144906 -0.00456910
C 6.11575840 3.33615825 8.80737798 0.00288663 0.00212868 0.00327621
C 4.39098591 8.27092247 9.61661051 0.00302936 0.00153684 0.00283396
C -2.95051134 3.66644788 17.45440414 0.00445648 0.01036453 0.00523589
C -5.61234097 8.70741904 13.42112046 0.00177276 0.01055153 0.00252916
C 0.91164849 5.78622902 13.28718245 0.00336296 0.00494665 0.00137522
C 3.28976880 1.00548022 17.28502098 0.00324039 -0.00129032 -0.00178050
C -1.63841209 3.68152450 16.85198123 -0.00045984 -0.00046258 0.00621073
C 6.28581658 8.59495354 13.61071229 -0.00044805 0.00539690 -0.00146279
C -0.32984731 5.90062348 13.91441875 0.00215933 0.00058105 0.00037473
C -8.27530772 1.05104508 16.76592179 -0.00128217 0.00073353 0.00338513
C -0.74789628 2.71394113 17.16426317 0.00466300 -0.00076728 -0.00247592
C 5.35047818 7.60897279 13.31043508 -0.00026798 -0.00028202 -0.00594621
C -1.28926729 6.79202515 13.49487286 0.00154449 0.00317060 0.00613346
C -7.39282614 1.98500444 17.09447829 0.00070512 -0.00786292 -0.00485498
C -0.98003415 1.75204474 18.19960756 -0.00067176 0.00667686 0.00581511
C 5.49342406 6.69638419 12.25866604 0.00135390 0.00107417 0.01213971
C -1.05760242 7.57551976 12.36789193 0.00013150 -0.00347210 -0.00116545
C -7.51280142 2.79539881 18.30897054 0.00754859 -0.00239843 -0.00161279
C 0.91290451 2.01338853 12.85498451 -0.00142406 -0.00074972 0.00378251
C 3.45520445 6.73777041 17.76998478 0.00290541 0.00504655 0.00171477
C -2.74740480 7.49378557 17.88764890 0.00673042 -0.00184246 -0.00081112
C -5.79063638 2.88146272 12.59121746 0.00149013 -0.00171517 0.00348822
C -0.03920685 2.85781108 12.37356510 -0.00179621 -0.00063479 0.00407747
C -8.30343971 7.72971772 18.16170868 -0.00064025 0.00269358 -0.00457565
C -1.88388148 6.50162190 18.27874535 -0.00541096 -0.00230623 -0.00362142
C 6.29649547 1.72944066 12.39297386 0.00263764 -0.00229186 -0.00586535
C -4.04951589 4.93936714 15.74936914 0.00267978 0.00063922 0.00619277
C -4.30515419 0.39969083 14.52365712 -0.00418679 -0.00457899 -0.00142178
C 2.01478150 4.43978074 14.91106489 -0.00721925 0.00075351 0.00501558
C 2.20230263 9.34413248 15.70137162 -0.00878700 0.00350177 0.00220973
C -5.33604420 5.77223850 15.49310995 0.00218396 0.00393157 -0.00524983
C -3.14738357 1.36617249 14.57701189 0.00056510 -0.00153990 -0.00121456
C 3.00244571 3.32239821 15.16314195 -0.00205261 0.00395512 0.00028469
C 0.91947747 8.52900040 15.55993751 0.00165768 -0.00392740 -0.00193626
C -6.00003085 3.64243832 23.50908934 0.00450290 0.00026435 0.00378641
C -8.49900175 8.61661645 19.19216542 -0.00259429 0.00643306 0.00454730
C -2.16960305 5.70493813 19.41458987 0.00162792 0.00301265 0.00742512
C 0.63928642 0.97536180 23.40444304 -0.00397260 0.00492430 0.00223173
C -4.78789680 3.73858118 22.84885997 -0.00157387 -0.00145453 0.00411820
C 3.12619300 8.46639904 20.01295897 0.00514559 0.00582543 0.00274259
C -3.40065311 5.81962884 20.05288030 0.00276948 -0.00328342 -0.00186881
C -11.19292151 1.56903971 22.82153156 0.01008485 -0.00004690 -0.00499956
C -3.83177731 2.79786602 23.08898109 -0.00426455 -0.00030558 -0.00276062
C 2.17472081 7.47972823 19.76490755 0.00541833 0.00366024 0.00227318
C -4.29361688 6.73433643 19.62187095 0.00079544 0.00030710 -0.00474678
C -10.17889052 2.42195550 23.25690357 0.00566880 -0.00509172 0.00203835
C -3.87026961 1.95876332 24.23691159 0.00139712 0.00437137 0.00277462
C 2.26701503 6.66859211 18.58019509 -0.00330587 -0.00209325 -0.00529511
C -4.01479123 7.55458557 18.52567050 -0.00082343 0.00245624 0.00526882
C 1.63710505 3.14943685 0.11441401 -0.00403580 -0.00195970 -0.00363228
C -2.14266727 1.92838755 18.91853774 -0.00197220 0.00400401 0.00023686
C 0.78373429 6.77972349 23.98566683 -0.00101589 0.00600020 -0.00969261
C -5.96857334 7.72846312 23.84258252 -0.00387084 -0.00321752 -0.00262476
C -8.70893487 2.72423262 19.07783227 -0.00279408 -0.00715032 -0.00362448
C -3.15445778 2.83312128 18.57295401 -0.00422429 0.00213629 -0.00665776
C -11.61202149 7.98074613 24.18491645 0.00737436 0.00348222 0.00411724
C -5.04839166 6.83070651 24.21282336 0.00249225 -0.00165333 -0.00755929
C 3.20899481 1.88923109 18.34099114 0.00025947 0.00360211 0.01095157
C -7.28493163 5.14515534 22.01081832 -0.00792454 -0.00423073 0.00117592
C -7.32881513 0.42759154 20.66576693 0.00254901 -0.00287906 -0.00577696
C -0.99043216 4.36814933 21.13161158 -0.00634344 -0.00322778 0.00638114
C -0.69911853 9.25716748 21.79619982 0.00085214 0.00071211 0.00122693
C -8.26865701 6.26844097 21.95159746 0.00024627 0.00444006 -0.00081161
C -6.18188166 1.43085881 20.75017648 0.00414165 -0.00147148 0.00592541
C 0.09169132 3.34309216 21.26689391 0.00029528 -0.00344702 -0.00727769
C -1.91624848 8.39583060 21.70684666 0.00108543 0.00413445 -0.00297015
C 2.95247119 13.22262309 5.27738260 0.00209152 0.00380246 0.00264938
C 0.42050822 18.08469124 1.14494752 0.00364048 0.00416370 0.00470302
C 7.10626812 15.67118177 0.96674990 -0.00861235 -0.00546393 0.00327938
C 9.89130082 10.93304577 4.92378400 -0.00250392 -0.00050599 -0.00241527
C 4.08151099 13.12148483 4.48418250 -0.00176599 0.00925835 -0.00717344
C 12.41889803 18.22592106 1.58236612 0.00433467 0.00483646 -0.00554860
C 5.93355070 15.68517662 1.71077071 0.00112122 -0.00008266 0.00216099
C 36.98555036 10.74281968 4.50668037 0.00473068 -0.00100815 -0.00048688
C 5.16546930 12.45350107 4.90735888 0.00101508 0.00155317 -0.00200429
C 11.37460766 17.41018481 1.14384445 -0.00080867 -0.00070645 -0.00118360
C 4.92513735 16.46218030 1.22801160 -0.00434369 0.00220329 0.00474478
C -1.28985059 11.53963559 4.98905302 0.00289886 -0.00000065 -0.00426135
C 5.16427003 11.65886320 6.05455311 -0.00302487 0.00303093 -0.00327260
C 11.49956078 16.51593762 0.05512768 0.00367716 0.00039178 -0.00303097
C 5.04802714 17.33168911 0.17908553 -0.00595631 -0.00000722 -0.00091799
C -1.43111069 12.33146671 6.12338356 -0.00102045 0.00491918 -0.00086785
C 6.93472617 11.59377410 0.41067873 0.00177433 -0.00257888 -0.00532857
C 9.96055968 16.67484716 5.46472243 0.00115407 -0.00023845 0.00204601
C 3.30996080 17.20909155 5.56940234 -0.00041209 -0.00014866 0.00361320
C 0.13616707 12.99411927 0.56015433 -0.00447113 -0.00220698 0.00586099
C 6.04406233 12.55678177 0.19744291 -0.00742279 -0.00116449 0.00003407
C -2.42245670 17.39044736 5.67205129 0.00175441 0.00565627 -0.00413961
C 4.26700519 16.35403346 6.07939173 -0.00253074 0.00296241 0.00429564
C 12.42125029 11.49949605 0.10903834 -0.00214908 0.00107351 0.00434171
C 1.71372028 14.77345662 3.89382669 0.00059918 -0.00092417 0.00539341
C 1.56583684 9.88934427 2.64215268 -0.00197368 0.00372188 0.00359527
C 8.32745906 14.28491338 2.53629146 -0.00225440 -0.00186180 -0.00687422
C 8.51253566 18.96746341 3.57305920 0.00820248 -0.00367290 0.00297731
C 0.60375065 15.78175392 3.84513603 -0.00239446 -0.00129504 0.00203400
C 2.51248637 11.07570295 2.76688633 -0.00557859 -0.00360196 -0.00765739
C 9.63293772 13.51626159 2.62121288 0.00086209 0.00416125 -0.00409179
C 7.18508860 18.27868431 3.44442613 -0.00465229 0.00717367 -0.00696277
C -0.00140619 13.22014571 11.21550848 0.01208854 0.00011198 0.00971395
C -2.57495009 18.17253217 6.84430480 -0.00043325 -0.00055778 -0.00017339
C 3.98866210 15.49564724 7.19019049 0.00023926 0.00122113 0.00093268
C 6.62683534 10.85476596 10.98554276 0.00010112 -0.00054368 -0.00518386
C 1.25860729 13.23982243 10.57854736 -0.00313851 -0.00010775 0.00384177
C 9.53803896 18.22438122 7.73098408 0.00195441 0.00780104 0.00802184
C 2.90058964 15.76272096 7.96352877 -0.00119684 0.00019354 -0.00961650
C -5.22384940 10.84463141 10.61816484 -0.00394327 0.00430059 -0.00125756
C 2.19454697 12.26767494 10.76210880 -0.00457132 0.00429694 0.00106821
C 8.50160662 17.49487110 7.22103021 0.00027145 0.00090076 -0.00102772
C 1.94107215 16.63824899 7.53479927 0.00359612 0.00502485 -0.00191091
C -4.19435250 11.61189388 11.19866607 -0.00406506 0.00651919 -0.00870116
C 2.00620810 11.36301004 11.84269555 -0.00070710 0.00138947 -0.00031995
C 8.73994268 16.69765704 6.10522261 0.00520655 0.00298520 -0.00021199
C 2.11100102 17.39410162 6.31232419 -0.00557262 -0.00881757 0.00573969
C -4.34429975 12.43844392 12.31994716 0.00229562 -0.00120827 0.00048343
C 3.88068588 11.44903033 6.66368770 -0.00579905 -0.00019120 -0.00434230
C 6.69847085 16.57039578 11.53784216 0.00082354 -0.00032346 -0.00482012
C 0.23807714 17.20529445 11.61940971 -0.00723248 0.00474633 0.00089135
C -2.69012028 12.28731523 6.72180485 0.00558068 -0.00073738 -0.00581566
C 2.83874527 12.23022455 6.25686211 0.00457444 0.00140556 0.00350394
C -5.48415184 17.24926223 11.90522887 0.00006128 -0.00277255 0.00026215
C 1.25321246 16.31512974 11.98962488 -0.00084650 0.00291559 -0.00227507
C 9.74815204 11.80538870 6.07759466 0.00474733 0.00499313 -0.00240337
C -1.04035458 14.70723384 9.66903093 0.00168677 0.00231305 0.00999870
C -1.59080952 9.90333437 8.85285712 0.00064869 0.00448471 -0.00182560
C 5.14999663 14.18526680 8.73295987 -0.00359016 -0.00275585 0.00060276
C 5.60640403 19.02166459 9.53029007 0.00054164 0.00156909 0.00114146
C -2.32121466 15.48636497 9.56758208 -0.00189401 -0.00311405 0.00128311
C -0.42981980 10.79416731 9.11416528 0.00467786 -0.00902409 0.00102870
C 6.51744670 13.58753993 9.03932682 -0.00151546 0.00377507 -0.00471553
C 4.32450614 18.15597548 9.41090713 -0.00144846 0.00041466 0.00653249
C -2.88670761 13.63642294 17.15608998 0.00000030 -0.00259871 0.00309833
C -5.54715549 18.11483887 13.01318870 -0.00447984 0.00163358 0.00925174
C 0.99289575 15.54924353 13.13750660 -0.00428031 -0.00769652 0.00462350
C 3.55738029 10.62607083 17.17853173 -0.00576630 0.00137347 -0.00383006
C -1.59508406 13.47024330 16.52836280 -0.00128834 0.00793084 -0.00129875
C 6.25701524 18.18232435 13.85348350 -0.00173095 -0.00169703 -0.00516748
C -0.18770704 15.64781445 13.86195858 0.00773529 0.00607525 0.00369634
C 30.91840684 10.80015615 16.44628293 0.00024973 0.00496567 0.00437628
C -0.66853618 12.58247345 17.00063679 -0.00631392 -0.00246831 -0.00094065
C 5.33114613 17.27073691 13.37347754 -0.00065228 -0.00101039 0.00092749
C -1.23111838 16.55479720 13.46521794 0.00200189 0.00153227 0.00397035
C -7.41718757 11.75331152 16.88451829 0.00470164 -0.00123230 -0.00515476
C -0.89050274 11.76304322 18.07970218 -0.00518872 0.00251833 -0.00913038
C 5.47229860 16.47458905 12.22635163 -0.00215722 0.00024830 -0.00017631
C -0.93200905 17.39846684 12.41313799 -0.00057960 0.00117156 -0.00862771
C -7.69436514 12.64329874 17.92893889 -0.00163461 0.00145866 -0.00031987
C 0.78455408 11.37496826 12.54201452 0.00097958 -0.00480294 0.00190584
C 3.90431512 16.62612374 17.70260566 -0.00375304 0.00327766 0.00487090
C -2.69857920 17.32711334 17.80529619 -0.00459284 0.00547138 0.00584372
C -5.60158104 12.39793076 12.90034553 0.00713834 -0.00024171 -0.00467335
C -0.15568422 12.37129125 12.29048278 0.00305916 0.00490377 0.00112437
C -8.17869387 17.32679034 18.30419102 0.00428204 -0.00230099 0.00094544
C -1.69205673 16.51329544 18.20113873 0.00523693 -0.00500002 -0.00345463
C 6.46772465 11.75416434 12.14830546 -0.01014929 0.00647397 -0.00672437
C -3.97246837 15.05677409 15.56399591 0.00162265 0.00422632 0.00923674
C -4.48127842 10.18149331 15.06002321 0.00191934 -0.00334930 0.00138842
C 2.35130522 14.24330638 14.66590084 -0.00541962 0.00667677 -0.00182974
C 2.51284716 18.80767083 15.85228341 -0.00259818 -0.00356265 0.00493362
C -5.21473494 15.92708190 15.37734023 0.00144047 0.00192123 -0.00899302
C -3.23195450 11.02291960 15.27838190 -0.00034534 0.00416091 -0.00110413
C 3.50296884 13.31612620 14.93078695 -0.00130575 -0.00496544 0.00344545
C 1.21338460 18.04383745 15.60864629 -0.00011478 0.00007102 -0.00797281
C -5.81355184 13.41992111 23.38889007 -0.00041909 0.00993207 0.00258144
C -8.36892384 18.17602253 19.37716382 -0.00162299 0.00241735 -0.00163016
C -1.97142823 15.61479577 19.29924119 0.00069386 -0.00680086 -0.00065476
C 0.56810843 10.65501236 23.33483783 0.00757104 0.00155141 -0.00353765
C -4.62788985 13.33924798 22.64781397 0.00020494 0.00040745 0.00338733
C 3.42479025 18.06302545 20.03783228 0.00527886 0.00295082 0.00045504
C -3.20817148 15.65585554 19.93331787 -0.00378204 -0.00165634 -0.00189884
C 27.92516984 11.16354488 22.71609699 -0.00736616 -0.00320064 -0.00745400
C -3.59263933 12.45437738 22.98952454 -0.00258298 0.00563088 0.00099519
C 2.47243183 17.23925152 19.57578561 -0.00211898 -0.00957167 -0.00435073
C -4.17861018 16.52238897 19.58122324 0.00195017 0.00332717 -0.00235238
C -10.41787345 12.08140945 23.12264872 -0.00344088 -0.00577056 0.00095530
C -3.82476254 11.59351422 24.03142133 -0.00263549 0.00043154 -0.00354417
C 2.71795838 16.39411976 18.47437040 0.00045189 0.00611582 -0.00106170
C -4.01011105 17.40531281 18.50420803 -0.00827301 -0.00294401 -0.00251119
C -10.63271438 13.04340024 24.14209698 0.00098748 -0.00594409 -0.00803249
C -2.19715805 11.91019191 18.68907608 0.00358946 0.00634812 -0.00080928
C 0.73899041 16.50304487 23.74213132 0.00172701 -0.00261330 0.00344278
C -5.72129202 17.34593618 23.76242964 0.00326851 -0.00228865 0.00631370
C -8.86045110 12.58180235 18.66168180 0.00802777 -0.00130745 0.00121779
C -3.15926605 12.78085165 18.25117154 -0.00221847 -0.00492491 -0.00713470
C 0.61138502 17.23986085 0.06410208 0.00366820 0.00640418 -0.00489188
C -4.74532218 16.51443905 24.19968466 0.00345772 0.00082410 0.00646386
C 3.41053633 11.53541354 18.27500781 -0.00893060 -0.00158011 0.00159754
C -6.96430710 14.78858823 21.72523245 -0.00346566 0.00254087 0.00357358
C -7.57308989 10.17383527 20.77569389 0.00077596 -0.00213600 0.00167453
C -0.75611329 14.22659527 20.87764779 -0.00155250 0.00343768 -0.00366527
C -0.35470322 19.00950075 21.67036606 -0.00017393 0.00396308 0.00061353
C -8.13323946 15.77710535 21.49847112 -0.00735311 0.00520114 0.01198893
C -6.58034952 11.21564911 20.93997366 -0.00107778 -0.00302864 0.00086339
C 0.28895729 13.21733421 20.97388949 -0.00468388 0.00002038 0.00605017
C -1.48501010 18.09212740 21.38861873 -0.00273987 0.00496209 -0.00026986
C 3.24000957 23.01700091 5.26215043 0.00156076 0.00040075 -0.00094939
C 0.58772796 27.83824498 1.07091270 -0.00021670 -0.00192942 0.00169005
C 6.85702487 25.09320145 0.86643720 -0.00096594 0.00752156 -0.00690284
C 9.87729236 20.36793528 5.09462881 -0.00559710 -0.00054103 -0.00155783
C 4.47232382 23.04157540 4.59075916 -0.00166432 0.00385622 -0.00596879
C 12.30230673 27.71139505 1.62994262 -0.00558421 -0.00146503 -0.00437966
C 5.67197793 25.30968578 1.59367746 -0.00820751 0.00167847 0.00435718
C 36.89792717 20.53782252 4.52719264 -0.00150589 -0.00554667 -0.00414868
C 5.47173468 22.20820511 4.96322610 0.00657077 0.00366486 0.00249510
C 11.34808485 26.76930053 1.31937548 0.00212925 -0.00778289 0.00248095
C 4.77660354 26.32405424 1.21679279 -0.00005752 0.00580023 -0.00007910
C -1.43807199 21.48539015 4.81699766 -0.00827145 0.00216890 -0.00378653
C 5.28643398 21.30910532 5.99013467 -0.00416792 -0.00094335 -0.00303038
C 11.47591819 25.98506285 0.17247263 -0.00692262 -0.00490971 0.00576690
C 4.92831905 27.02377681 0.04760669 -0.00058066 -0.00744437 0.00082779
C -1.64395377 22.44547785 5.80010104 -0.00090674 -0.00568603 -0.00026356
C 6.89808265 21.31163856 0.58400260 -0.00344888 -0.00240457 -0.00647876
C 9.82337830 25.98150061 5.56360784 -0.00949655 0.00444561 -0.00002395
C 3.30484802 26.83416893 5.50699689 -0.00471263 -0.00603232 0.00786585
C 0.27466183 22.12498212 0.56869032 -0.00009879 0.00975023 0.00551333
C 5.87912048 22.08219374 0.12230014 0.00073389 0.00301665 0.00003784
C -2.35309578 27.02000728 6.08786764 -0.00572818 0.00674317 -0.00317323
C 4.30270954 26.02868573 6.02275207 -0.00639390 0.00182179 -0.00168962
C 12.42692351 21.22214266 0.06064798 -0.00172239 0.00241080 -0.00285070
C 2.07476596 24.37291353 3.61992397 0.00666204 -0.00168327 -0.00714693
C 1.58301117 19.52992683 2.65883700 -0.01021993 0.00480727 0.00487499
C 8.19242278 24.00688602 2.56989618 -0.00605575 -0.00037532 0.00201327
C 8.52782257 28.72888090 3.27568204 -0.00140816 0.00521179 -0.00826519
C 0.72301647 24.98831128 3.50554822 0.00157518 -0.00260555 0.00158612
C 2.75411877 20.43314559 2.78528107 -0.00384398 0.00260884 -0.00363303
C 9.45898920 23.20108894 2.89395844 -0.00205456 0.00189458 0.00234496
C 7.22476859 27.99642460 2.99204266 -0.00744067 0.00674001 0.00678733
C 0.30380856 22.93992255 11.16254654 -0.00723779 0.00476092 0.00422328
C -2.60883087 27.73402879 7.24355282 0.00613440 0.00699830 0.00249302
C 4.09240374 25.21653703 7.11198856 -0.00505816 0.00306448 -0.00541982
C 6.85750146 20.36670639 11.17961777 -0.00087369 0.00378783 -0.00342117
C 1.47162098 22.92131991 10.51491695 -0.00597004 0.00017794 -0.00380031
C 9.44596878 27.76140164 7.66140216 -0.00363846 0.00013582 -0.00227790
C 2.86743212 25.23550289 7.80854805 0.00406112 -0.00008971 0.00037970
C 34.12428157 20.35241278 10.40087704 0.00606311 -0.00656009 0.00311073
C 2.43335084 22.05947397 10.95454236 0.00173969 0.00252624 0.00652976
C 8.45448381 26.86794623 7.29821043 -0.00530840 -0.00696617 0.00361715
C 1.86581798 26.07421591 7.38276216 0.00023914 -0.00070398 -0.00412518
C -4.24138717 21.24944964 10.87352562 -0.00575610 0.00107741 0.00676706
C 2.28147723 21.19726368 12.09949725 -0.00201425 -0.00816486 0.00055775
C 8.61191224 25.89504896 6.33134316 -0.00112571 0.00123525 -0.00101102
C 2.11486637 26.93419857 6.25559300 0.00486421 0.00082128 0.00567804
C -4.57758684 22.22693771 11.79581925 -0.00326724 -0.00655853 0.00604753
C 4.02523328 21.32788628 6.68209322 -0.00140225 -0.00301751 0.00464341
C 6.72748448 26.01261318 11.44382110 0.00365782 -0.00011204 0.00154151
C 0.15159892 27.00783066 11.63490262 0.00284906 0.00097197 0.00568774
C -2.72546538 22.17885845 6.68140801 0.00163358 -0.00797038 0.00358639
C 3.01669787 22.20095603 6.33654105 -0.00263106 -0.00318030 0.00140527
C -5.30335291 26.88205819 12.14334709 0.00061516 0.00153400 0.00516862
C 1.17395818 26.11490643 11.99332683 0.00137151 0.00012656 -0.00218400
C 9.62542827 21.23011114 6.15924116 -0.00766989 0.00130010 -0.00284646
C -1.03609856 24.35423253 9.69932511 -0.00090174 -0.00805441 -0.00062547
C -1.40206060 19.48853677 8.58384220 -0.00121647 -0.00339135 0.00087875
C 5.20079262 23.62955317 8.60172609 -0.01431891 0.00853598 0.00258127
C 5.06046063 28.63338687 9.70160501 0.01151658 0.00012125 0.00156549
C -2.31762635 25.16882442 9.65275529 0.01147242 0.00386321 -0.00542504
C -0.27641035 20.45727459 8.79108204 -0.00106105 -0.00131553 0.00455714
C 6.16181427 22.57521423 8.79332083 -0.00549348 -0.00846355 -0.00391720
C 3.78740037 27.80586319 9.54927557 0.00325251 0.00537148 0.00303212
C -2.76759538 23.06597352 17.17695195 -0.00143973 -0.00059107 0.00147837
C -5.54922360 27.82446764 13.14923254 0.00229492 -0.00362185 -0.00075570
C 1.03737342 25.19292140 13.04744140 0.00102391 0.00199323 0.00187258
C 3.64486317 20.22384335 17.31320913 -0.00141592 0.00805604 -0.00168489
C -1.53925779 22.95428740 16.46187212 0.00207929 -0.00083288 0.00275279
C 6.33557737 27.41336237 13.77166156 -0.00004801 0.00617132 -0.00121084
C -0.21714358 25.23632667 13.71180628 -0.00497520 0.00324393 0.00420693
C -7.74110426 20.62757240 16.77683675 0.00384716 0.00142097 -0.00794758
C -0.65154338 22.09799325 17.01625607 0.00211917 0.00230711 -0.00040503
C 5.33599552 26.62883951 13.31815283 0.00201876 -0.00262300 -0.00149328
C -1.23556357 26.02039911 13.17439387 0.00302960 -0.00599959 0.00445962
C -6.85490532 21.62360337 17.18238486 0.00095417 -0.00601953 -0.00079760
C -0.83641422 21.31296177 18.18222234 0.00206581 -0.00674100 0.00106378
C 5.59695933 25.78011586 12.19326726 0.00309552 -0.00768434 0.00048399
C -1.08023262 27.00616993 12.18026164 -0.00663885 0.00227635 -0.00841573
C -7.20028372 22.43385435 18.35101118 0.00341841 0.01015041 -0.00531390
C 1.04570892 21.26353669 12.75617510 0.00257661 0.00301210 -0.00043360
C 3.52338115 26.00446777 17.59668689 -0.00355727 -0.00406753 -0.00089480
C -2.91778824 26.82467442 17.38860938 0.00100117 -0.00767199 0.00229615
C -5.79421050 22.18838556 12.47111358 0.00332845 0.00714878 0.00254833
C 0.08534671 22.09594121 12.26354195 -0.00236238 -0.00054134 0.00186101
C -8.05111548 26.87668027 18.09214580 -0.00408589 -0.00000515 -0.00607911
C -1.93362410 25.97137109 17.94301996 -0.00386549 -0.00779539 0.00605466
C 6.58195157 21.23219031 12.18645891 -0.00270092 -0.00252361 -0.00478572
C -3.93091034 24.33602567 15.36742354 0.00212030 0.00338852 0.00039172
C -4.40447448 19.44186426 14.55757214 0.00729010 0.00007909 -0.00071639
C 2.13094805 23.71547125 14.58154563 0.00161923 0.00369872 0.00109506
C 2.37255219 28.48409507 15.70762758 0.00163341 0.00233559 -0.00134427
C -5.10509703 25.20427762 15.01830195 0.00314137 0.00867927 0.00014508
C -3.28538721 20.40162810 14.70898036 0.00537291 -0.00021362 0.00340998
C 3.13106508 22.56058278 14.88399043 -0.00010915 -0.00892997 -0.00202502
C 1.18468181 27.67573880 15.40029773 0.00719041 -0.00122853 -0.00383604
C -5.94448412 22.87776655 23.32873784 0.00161142 -0.00571708 0.00141596
C -8.30462280 27.70077575 19.22427530 -0.00012036 0.00634195 0.00207954
C -2.13850657 25.22269986 19.08259000 0.00121489 0.00552206 0.00000063
C 0.73984164 20.32957350 23.35586732 0.00224585 -0.00664517 -0.00257571
C -4.65744169 22.77495702 22.68796018 -0.00608018 -0.00517244 0.00257575
C 3.13815365 27.55156727 19.80059177 -0.00162623 -0.00703584 -0.00268737
C -3.36347533 25.43605030 19.80702432 0.00569657 -0.00563919 -0.00422485
C -11.04739702 20.43608423 22.76395333 -0.00429319 -0.00204788 0.00151222
C -3.64021403 22.01972162 23.09695974 0.00400697 0.00000407 -0.00187517
C 2.10486477 26.69809866 19.47838753 -0.00671420 0.00121824 -0.00566390
C -4.29887701 26.30877401 19.34282930 -0.00163388 0.00227546 -0.00220509
C -10.21779085 21.44052820 23.20538254 -0.00269964 -0.00155770 0.00214610
C -3.84991405 21.32504880 24.31497750 0.00069854 -0.00103351 0.00060366
C 2.26642805 25.95954934 18.22885903 -0.00241037 0.00480143 0.00167768
C -4.12512589 26.99713169 18.04014803 -0.01095495 -0.00158486 0.00710291
C -10.54651952 22.39551345 24.22350767 0.00259811 0.00248947 0.00109626
C -2.06101558 21.48213285 18.80980324 -0.00451865 -0.00219016 -0.00450422
C 0.72064699 26.00717998 23.81904743 -0.00216321 0.00457085 -0.00357646
C -5.92341553 26.77535438 23.51196311 -0.00689335 0.00124547 -0.00232218
C -8.47025849 22.25577229 18.92107092 -0.00738440 -0.00988303 -0.00404106
C -3.04177187 22.30199440 18.34248526 -0.00178348 0.00250574 0.00125290
C -11.24063251 27.01920458 24.28066844 0.00351823 -0.00167753 0.00445823
C -5.00381157 25.80958206 23.94866190 0.00471772 0.00498967 0.00120676
C 3.42410738 21.12473769 18.35737822 0.00020223 0.00462353 0.00515210
C -6.94564019 24.41540386 21.72997683 0.00212423 0.00563235 0.00004888
C -7.07789696 19.43428501 20.93439100 0.00394048 -0.00278529 0.01032292
C -1.03613999 23.92669469 20.83347889 0.00132192 0.00158629 0.00340962
C -0.45251576 28.59820985 21.70103607 0.00522320 -0.00667711 -0.00866603
C -8.22818836 25.02179072 21.30583192 0.00040500 0.00169303 0.00134463
C -5.68648387 20.03445815 21.12421471 -0.01174648 0.00038550 -0.00337956
C 0.05682090 22.99873598 21.32842814 -0.00059861 0.00401272 0.00389045
C -1.73354366 27.83214483 21.51458300 0.00659422 0.00734213 0.00130349
C 16.08140253 3.79920918 4.85913882 -0.00408099 0.00032246 0.00301058
C 13.56969762 8.58856427 1.03970620 -0.00186402 0.00229057 -0.00357263
C 20.04645741 6.11269944 0.90532965 0.00513748 -0.00079404 0.00437342
C 22.93000193 1.10498709 4.99621162 0.00596127 -0.00479962 0.00351753
C 17.34734417 3.71774832 4.21228895 0.00259486 0.00600845 -0.00029064
C 25.27362291 8.41195189 1.65082991 -0.00183758 -0.00391374 0.00422936
C 18.83699007 6.17631855 1.73904807 -0.00036096 -0.00026586 0.00910066
C 10.98408948 0.96599916 4.38376552 -0.00617575 -0.00614485 -0.00245019
C 18.24210741 2.78131394 4.65387952 -0.00520577 0.00106538 0.00007069
C 24.26793940 7.48787970 1.28524888 -0.00120823 0.00540705 -0.00333059
C 17.79829605 7.02656091 1.30106655 0.00186651 0.00194171 -0.00403917
C 11.78987403 2.00641390 4.67499185 -0.00173219 -0.01052050 0.00198071
C 18.08118824 2.03725841 5.83529565 -0.00945033 -0.00807254 0.00550296
C 24.38937838 6.76765540 0.07448969 0.00644422 -0.00302929 0.00017380
C 17.87095888 7.73315680 0.07997696 -0.00193740 -0.00008326 0.00718740
C 11.56033564 2.80600028 5.79865204 -0.00941369 0.01003330 -0.00164903
C 20.08305114 1.94610730 0.47486263 -0.00098475 0.00485689 -0.00111579
C 22.73661822 7.08386918 5.25647937 0.00587817 -0.00073684 0.00098508
C 16.22188320 7.68970787 5.41234963 0.00116547 -0.00186065 -0.00036432
C 13.49690001 2.65823504 0.65421994 0.00473216 0.00418252 0.00029814
C 19.09162477 2.88056071 0.16330512 -0.00194857 -0.00266268 -0.00274645
C 10.44447564 7.58059411 5.79559734 -0.00247696 -0.00349667 -0.00375154
C 17.16102442 6.74520240 5.79375415 -0.00166589 -0.00962357 0.00500521
C 13.61854061 1.80971217 24.30691938 0.00391523 -0.00172793 0.00004973
C 14.84810781 5.27541820 3.28085989 0.00148595 -0.00521116 0.00008306
C 14.60639220 0.13489986 2.49972050 -0.00392544 -0.00445572 -0.00038194
C 21.39507695 4.72453580 2.38765440 0.00081622 0.00312818 0.00152175
C 21.47979833 9.48166813 3.63182356 0.00031824 0.00565160 0.00522205
C 13.56339703 6.11176762 3.30878773 0.00571278 -0.00438953 0.00005950
C 15.73541823 1.08926307 2.71682693 0.00480725 0.00200723 -0.00485582
C 22.46940529 3.68483985 2.36406668 0.00139793 0.00442154 -0.00001820