2880
Time=21999.99999999 pbc="T T T" Lattice="39.19018480 0.00000000 0.00000000 0.00000000 29.03611568 0.00000000 -12.00105736 0.00000000 24.29251212" energy=-18397.83019435 virial="3.44572956 22.65966290 -45.77144076 22.65966290 35.78062113 -23.87266790 -45.77144076 -23.87266790 64.04867213" stress="0.00254340 0.00075783 -0.00172597 0.00075783 0.00382923 -0.00084446 -0.00172597 -0.00084446 0.00492453" Properties=species:S:1:pos:R:3:vel:R:3
C 3.19057712 3.76618500 5.15253143 -0.00067416 0.00193226 -0.00326367
C 0.44746729 8.49043255 0.94803972 -0.00525016 0.00342882 0.01080764
C 6.79639336 5.98668703 0.84905322 0.00454631 0.00258347 -0.00575222
C 9.47150660 1.27555949 5.08164816 -0.00220815 -0.00507093 0.00649617
C 4.42455967 3.76646864 4.56299088 0.00414749 -0.00779829 -0.00662711
C 12.02406719 8.58102819 1.50178592 0.00581074 0.00198447 -0.00320121
C 5.53089184 6.02280430 1.52364579 -0.00043417 -0.00464502 0.00048912
C -2.09917490 1.32030637 4.46394559 -0.00443748 0.00303215 0.00033784
C 5.42347891 2.95531235 5.03768105 -0.00135692 0.00611348 -0.00026532
C 11.03615827 7.67603918 1.10946249 0.00486934 -0.00271528 0.00226483
C 4.55994597 6.90368927 1.16392614 0.00145427 0.00097871 0.00191686
C -1.06386826 2.19971435 4.80677206 0.00062824 -0.00743062 0.00044859
C 5.28459661 2.20457096 6.15891356 0.00533977 -0.01224120 0.00306154
C -0.85784853 6.81492671 24.25921727 0.00070706 -0.00371994 -0.00415207
C -7.33206433 7.65165150 24.26653022 0.00493807 -0.00016084 0.00255273
C -1.22264524 3.03504608 5.88674195 -0.00560877 0.00092126 0.00054349
C 6.88570164 2.17966588 0.62549886 -0.00791610 -0.00551922 -0.00070462
C 9.65257527 6.89541196 5.47297511 -0.00017912 0.00621712 0.01225199
C 3.02961190 7.58548511 5.42814910 0.00204925 -0.00183566 -0.00376623
C 0.28086826 2.96981830 0.46295858 -0.01056646 0.00010098 0.00100702
C 5.92267020 2.96056828 0.08646588 -0.00510401 -0.00732258 0.00350180
C -2.08479692 7.73207618 6.13273454 -0.00202335 0.01196920 0.00439358
C 4.05656044 6.75185853 5.76239702 -0.00463535 -0.00534102 0.00634378
C 12.32790946 1.86661366 0.19777162 -0.00692879 0.00305915 -0.00334008
C 2.04263138 5.20734560 3.59349481 0.00027990 0.00481104 -0.00630179
C 1.92755196 0.44329609 2.48665295 -0.00774143 0.00224355 -0.00195083
C 7.99280899 4.65564557 2.51519155 0.00203228 -0.01308775 -0.00456761
C 8.38965497 9.50544959 3.47562388 0.00064266 0.00104440 -0.00392073
C 0.86150826 6.15329804 3.37824677 0.00224822 0.00008843 -0.00558009
C 3.18978984 1.19548043 2.62406503 -0.00500246 0.00031794 -0.00318882
C 9.27746928 3.87821094 2.59635148 -0.00239923 0.00446872 -0.00621897
C 7.12287877 8.73885240 3.24848702 -0.00010391 -0.00403651 0.00007153
C 0.16002640 3.74717626 11.21144925 -0.00419866 0.00930200 0.01076640
C -2.38021128 8.63477437 7.16129259 -0.00604130 0.00320712 0.00320363
C 3.89394946 5.96559631 6.98366794 0.00110251 0.00383976 0.00010689
C 6.69084001 1.01350903 11.15683476 0.00403467 -0.00210604 0.00334942
C 1.40468766 3.72685130 10.54051897 -0.00559190 0.00019283 0.00104535
C 9.45614046 8.40074602 7.76795993 -0.00233700 -0.00607925 0.00044145
C 2.67949735 5.97614114 7.67377752 0.00574123 0.00703228 -0.00139242
C -5.07939126 1.15012914 10.76049931 0.00150368 -0.00047550 0.00249756
C 2.34838383 2.77517887 10.89156594 -0.00466669 0.00568568 0.00393261
C 8.43497051 7.51624674 7.40569607 -0.00207032 0.00274414 0.00198034
C 1.75532166 6.97784759 7.42955466 -0.00250923 -0.00088252 0.00286834
C -4.09444485 2.00195931 11.09980942 0.00020388 -0.00134651 0.00397520
C 2.24748539 2.08930341 12.10714287 -0.00185583 0.00096574 0.01061682
C 8.50277107 6.80040219 6.17912532 -0.00111182 0.00851553 -0.00366433
C 1.92402093 7.77551939 6.26179419 -0.00098624 0.00780002 0.00529982
C -4.11867960 2.87570398 12.19911634 -0.00220869 -0.00413176 0.00466339
C 4.02416016 2.20150915 6.80638010 0.00370991 0.00275679 -0.00349166
C 6.60971920 6.51946364 11.77395336 0.00401250 -0.00175176 -0.00892765
C 0.18838511 7.65211370 11.69713463 -0.00076193 -0.00195434 -0.00436718
C -2.48374248 3.07682218 6.53899824 -0.00214985 0.00309461 0.00494019
C 3.00034052 2.90211912 6.22281141 -0.00410227 -0.00602823 0.00322823
C -5.27859510 7.86853794 12.33644432 0.00451162 0.00468345 -0.00336145
C 1.17297880 6.84106322 12.07631839 0.00843547 -0.00060361 0.00319467
C 9.27493311 2.28053614 6.05380680 -0.00224303 -0.00347516 -0.00867304
C -1.33293502 5.03729153 9.70637549 0.00259313 -0.00720446 -0.00362951
C -1.53235143 0.45617553 8.47535546 -0.00089154 0.00267268 0.00456858
C 5.24959623 4.74456487 8.63148217 0.00343823 -0.00676584 -0.00514356
C 5.51280358 9.25744823 9.70801698 0.00528255 0.00255558 0.00766898
C -2.64676110 5.86006323 9.75078044 0.00358709 0.00554360 0.00210299
C -0.39735507 1.39646494 8.61968768 -0.00550325 0.00135512 0.00063781
C 6.60351827 4.08482381 8.81011976 -0.00184613 0.00333682 -0.00192863
C 4.37093487 8.42336633 9.37778221 0.00484276 -0.00127383 0.00520400
C -2.88308726 3.66960134 17.29718711 -0.00450557 -0.00082486 -0.00158471
C -5.52936239 8.67514636 13.45843513 -0.00154629 0.00843671 0.00456168
C 0.93436669 5.95373932 13.19421392 0.00480398 -0.00527979 -0.00052462
C 3.65973588 1.29949833 17.46797782 -0.00460214 -0.00741172 0.00498612
C -1.73589641 3.42805984 16.51581434 0.00590529 -0.00143996 0.00388053
C 6.30244980 8.22565464 13.85861996 0.00018638 -0.00416036 -0.00949971
C -0.27853563 6.03114880 13.89443298 0.00213479 -0.00260820 0.00709747
C -8.19195965 0.93363488 16.72944762 -0.00033892 -0.00008239 0.00005783
C -0.76101650 2.55755715 16.95870674 -0.00649862 0.00922689 0.00281607
C 5.24088209 7.44535801 13.50651679 0.00581100 -0.00544163 -0.00408586
C -1.22739024 6.93568494 13.54720723 -0.00146027 -0.00279783 -0.00295513
C -7.25204306 1.96512280 16.97390139 -0.00230290 -0.00435424 -0.00136524
C -1.01625247 1.90917191 18.22067584 0.01167653 -0.00037727 0.00790004
C 5.37730821 6.59333589 12.42585231 -0.00009564 -0.00375175 -0.00134184
C -1.02458056 7.74903096 12.45185539 -0.00015424 -0.00319833 0.00276632
C -7.48652209 2.84227189 18.00484548 -0.00074017 -0.00208481 0.00527392
C 0.93686706 2.02999682 12.70868207 -0.00579265 0.00188542 -0.00186178
C 3.69842224 6.84686636 17.65570430 -0.00108940 -0.00012386 0.00272354
C -3.02333174 7.68082850 17.65007798 -0.00495584 -0.00185681 0.00028361
C -5.34735117 2.80818095 12.88042786 0.00043032 0.00813808 -0.00471141
C -0.04102486 2.88697116 12.30978825 -0.00039682 -0.00213689 -0.00202347
C -8.27883143 7.63360899 18.25217286 0.00475037 -0.00415580 -0.00314310
C -2.04227307 6.78105887 17.95783382 -0.00672927 0.00252377 0.00316834
C 6.56723837 1.74499577 12.31814416 -0.00332729 -0.00828842 -0.00018849
C -3.88323299 5.09916751 15.69688727 -0.00647285 -0.00408903 -0.01042605
C -4.35109664 0.26986770 14.72292030 -0.00391291 -0.00380191 -0.00166156
C 2.04363798 4.42491926 14.74493464 0.00289784 -0.00269420 0.00623706
C 2.32878356 9.34672027 15.72061665 0.00537910 0.00770928 -0.00740456
C -5.04554264 5.93544070 15.43135361 0.00751086 -0.00083345 -0.00408609
C -3.17316197 1.02527377 15.19698073 0.00248234 0.00381833 0.00086275
C 3.28114693 3.64984784 15.01638353 -0.00316195 -0.00469210 0.00737963
C 1.08879795 8.57969663 15.58043178 -0.00484662 -0.00058388 0.00475426
C -5.92430625 3.81471347 23.26639742 -0.00395683 0.00650679 -0.00321713
C -8.60921340 8.53404980 19.26723085 -0.00092223 -0.00313413 -0.00010151
C -2.18492110 5.94282131 19.12694114 -0.00365678 0.00160533 0.00560216
C 0.49158935 1.00442389 23.39052708 -0.01003815 -0.00580578 0.00107540
C -4.67758140 3.68269165 22.62059242 -0.00015724 -0.00068161 -0.00884942
C 3.18768620 8.41161192 19.92992436 0.00375611 0.00462536 -0.00328999
C -3.33377091 6.05111957 19.90317858 0.00673226 0.00463298 0.00062349
C 28.01238813 1.32437100 22.62444609 -0.00244225 -0.00116608 -0.00215416
C -3.73975539 2.83636823 23.06686981 -0.00350919 0.00378976 -0.00401541
C 2.17599266 7.62619869 19.35767174 0.00304507 0.00135528 0.00561669
C -4.24048836 7.10558648 19.69572950 0.00385652 -0.00213366 -0.01168230
C -10.27454505 2.30157477 23.03151903 0.00979075 0.00212069 -0.00038900
C -3.88293724 2.14328278 24.23517712 0.00036416 -0.00235233 0.00789769
C 2.40676393 6.83780111 18.17048369 0.00532000 -0.00185208 -0.00066973
C -4.11271266 7.91621603 18.50340808 0.00406525 0.00476133 -0.00023907
C -10.53699380 3.13512774 24.09507795 0.00062819 -0.00248830 -0.00412596
C -2.23788406 2.16376273 18.98291855 -0.00145603 0.00285210 -0.00123344
C 0.36789274 6.84914557 23.64787815 -0.00413813 0.00226500 -0.00061528
C -6.11949855 7.47694237 23.53599453 -0.00583548 0.00210505 0.00405636
C -8.78129038 2.76918962 18.66522758 0.00304669 0.00795164 -0.00700530
C -3.20599665 2.93017930 18.43042202 0.01032826 0.00016577 0.00243111
C -11.48329060 7.76598345 24.09213582 0.00375613 0.00346239 -0.00219356
C -5.06992793 6.70842642 23.98396243 0.00115202 -0.00513795 -0.00233747
C 3.58595789 2.11563817 18.56705642 0.00313998 -0.00277009 0.00556567
C -6.95123819 5.08982621 21.56259477 -0.00635586 -0.00080008 -0.00280663
C -7.51946514 0.10878079 20.80266122 -0.00303910 -0.00137699 -0.00033106
C -0.82556264 4.54795700 20.65774754 0.00678151 -0.00277608 0.00013760
C -0.79279071 9.41370283 21.59609599 -0.00065321 0.00170955 0.00934015
C -8.02371980 6.04059424 21.18060205 -0.00242843 -0.00049583 0.00012521
C -6.16276383 0.83807332 20.91045357 -0.00250433 0.00209867 -0.00453109
C 0.45790259 3.66587740 20.67822453 -0.00093807 0.00480465 -0.00458155
C -2.07746305 8.64559948 21.43485944 0.00159052 0.00237839 0.00065411
C 3.32143766 13.38242337 5.20861631 -0.00096919 -0.00216917 -0.00034444
C 0.57204903 18.42626250 0.95550705 -0.00295727 0.00173876 0.00863476
C 6.98883358 15.57507291 0.91696964 0.00111740 0.00187628 -0.00351667
C 9.68262199 10.72231539 5.09686247 0.00066172 0.00630100 -0.00261892
C 4.55200702 13.34115519 4.62395125 -0.00552566 0.00068179 0.00467795
C 12.25194591 18.08226531 1.71803712 -0.00477732 -0.00491308 0.00496117
C 5.73954453 15.66043008 1.59744779 -0.00193560 0.00176848 0.00077936
C -2.11058925 10.82290514 4.53995039 -0.00105233 0.00836479 -0.00001714
C 5.49346662 12.40610416 5.02991694 -0.00425531 -0.00022539 -0.00755320
C 11.34875848 17.18091505 1.32338917 -0.00837989 0.00530943 0.00410905
C 4.79865283 16.59984076 1.20368202 0.00445029 -0.00666924 -0.00875371
C -1.15415696 11.68422819 4.96684261 -0.00385519 0.00457382 0.00909543
C 5.23570175 11.57456678 6.15151784 -0.00147264 -0.00174261 0.00239036
C 11.50986789 16.35897251 0.20267547 -0.00655574 -0.00011838 0.00673808
C 4.92776616 17.32954210 0.01025205 -0.00522129 0.00246188 -0.00510241
C -1.20990780 12.52077927 6.12238191 0.00060954 0.00444017 -0.00319770
C 6.64032363 11.85492775 0.56052381 -0.00258178 -0.00782525 0.00156561
C 9.60593111 16.75721528 5.44081411 0.00704709 0.00294539 -0.00334144
C 3.12103279 17.25716889 5.48007242 -0.00515317 0.00633366 -0.00029185
C 0.15275877 12.47698381 0.74114820 -0.00028211 -0.00136040 0.00204542
C 5.70153748 12.77665705 0.15039294 0.00675530 -0.00253283 0.00305563
C -2.33025418 17.43733747 5.93116509 0.00363451 0.00080305 0.00415980
C 4.14265808 16.37855249 5.86412636 -0.00362458 -0.00210637 0.00116296
C 12.17136743 11.57558654 0.01833494 -0.00325240 -0.00359849 -0.00180948
C 2.15493149 14.80333308 3.63158841 -0.00168682 0.00840115 -0.00084500
C 1.70550030 9.90404429 2.48547259 -0.00081834 0.00066441 -0.00348072
C 8.11712351 14.17247432 2.48586592 0.00680452 -0.00051291 0.00120149
C 8.58510724 19.22569641 3.39028334 -0.00130787 0.00264331 -0.00249253
C 1.07638701 15.77928976 3.39901156 -0.00419719 0.00319899 -0.00126205
C 2.96185935 10.68165384 2.71152858 -0.00285283 0.00420071 -0.00446036
C 9.28052241 13.36403460 2.70339216 0.00009353 0.00018742 -0.00153557
C 7.35212448 18.42324902 3.03576596 -0.00385664 0.00093735 0.00684648
C 0.11143919 13.43905291 11.14963194 0.00305794 0.00033235 0.00381213
C -2.56690970 18.33485985 6.99653333 -0.00417265 0.00961901 0.00853113
C 4.00994014 15.60546290 7.00604816 0.00357647 -0.00407872 0.00649553
C 6.70343900 10.49168254 11.35794643 0.00080633 -0.00220893 0.00348185
C 1.42440994 13.41575759 10.60189780 0.00089731 -0.00107945 0.00014004
C 9.29113960 18.41944524 7.64770642 0.00364027 0.00363806 -0.00399697
C 2.80797692 15.61675590 7.78885080 0.00003773 -0.00422721 -0.00742234
C -4.94766604 10.97430625 10.61921479 -0.00881152 -0.01478822 0.00014562
C 2.29146101 12.37554066 10.90691529 -0.00244702 0.00165115 -0.00117111
C 8.22124830 17.65134653 7.21704422 0.00138199 0.00282476 0.00503054
C 1.80166300 16.49837336 7.33571512 -0.00155093 0.00216443 0.00211464
C -3.96945230 11.91913685 10.93043468 -0.00603880 0.00229946 0.00158990
C 2.07131441 11.54295012 12.02478381 -0.00558133 -0.00093016 -0.00420063
C 8.34814551 16.80292346 6.06142875 -0.00028909 -0.00242280 0.00079344
C 1.92656267 17.27325156 6.14028387 0.00179858 -0.00191266 0.01020693
C -4.18713646 12.75908298 12.10911932 -0.00354019 -0.00719749 0.00327919
C 3.97863947 11.73121413 6.78365751 -0.00166276 0.00799472 -0.00348723
C 6.34596915 16.33760861 11.51030602 0.00483395 -0.00336733 0.00616197
C 0.33095122 17.33160894 11.61503071 0.00254089 -0.00388649 0.00131393
C -2.48508583 12.41220808 6.72907549 0.00380203 -0.00179614 -0.01075915
C 3.07684311 12.60761871 6.32098343 -0.00184450 0.00220385 -0.00621050
C -5.49382346 17.38442274 12.05811339 0.00234803 0.00600140 -0.00374376
C 1.22442710 16.38470723 12.09292049 0.00045752 0.00573813 0.00677161
C 9.45644058 11.61519183 6.13061018 0.00334954 0.00718120 -0.00011022
C -1.03984043 14.94034058 9.65927484 0.00509484 0.00443216 0.00187248
C -1.21782946 10.00630066 8.77718913 0.00062736 0.00137126 -0.00258615
C 5.33955857 14.15445374 8.54993983 0.00132602 -0.00574758 -0.00598690
C 5.58374834 19.22233729 9.39307054 -0.00146867 -0.00498466 -0.00437505
C -2.26768591 15.69961071 9.40109966 -0.00070987 -0.00136574 0.00217241
C 0.03552337 10.72267465 9.04727833 -0.00233137 -0.00228372 -0.00264638
C 6.42096306 13.14227622 8.55208179 0.00520579 0.00232771 -0.00464251
C 4.38541263 18.34962504 9.15424207 0.00031574 0.00017342 0.00312136
C -2.93837248 13.48653657 17.48495360 0.00388182 0.00354461 -0.00369462
C -5.67360477 18.26496170 13.10306761 -0.00102932 -0.00100515 -0.00143862
C 0.98189533 15.65304582 13.22089625 -0.00596274 -0.00265054 -0.00760178
C 3.57069564 10.74328358 17.30304381 0.00278181 0.00168975 -0.00770884
C -1.74322085 13.37376680 16.74027334 -0.00123944 0.00455993 -0.01004891
C 5.96948669 17.92538585 13.77339891 0.00336561 0.00005771 -0.00220925
C -0.24761793 15.86675564 13.87620969 -0.00345514 -0.00046417 -0.00970508
C -8.13010657 11.13270263 16.72587198 -0.00556131 0.00136822 -0.00451546
C -0.79994748 12.46027835 17.08257203 0.00136401 0.00034268 -0.00343035
C 5.03964828 17.02690639 13.47006647 -0.00214586 0.00042791 -0.00555343
C -1.21100335 16.73194811 13.43457321 0.00532194 0.00524013 0.00097489
C -7.18387665 12.00662743 17.24049174 0.00248910 -0.00054004 -0.00399586
C -0.97463318 11.57006150 18.17895887 0.00362117 0.00876544 0.00310986
C 5.18959896 16.17336895 12.29293859 -0.00435249 0.00153246 -0.00056670
C -0.95960647 17.48444229 12.22699837 0.00311656 0.00815984 -0.00152934
C -7.43435660 12.72314551 18.41561605 0.00372670 -0.00746107 -0.00744290
C 0.72537972 11.54024342 12.55839984 0.00295299 0.00792017 0.00145308
C 3.46630532 16.57418032 17.51446907 0.00050413 -0.00054624 0.00627508
C -2.94047319 17.20175683 17.39421697 -0.01216398 -0.00137133 0.00564445
C -5.39339358 12.66859582 12.83071999 -0.00509220 0.00490253 0.00139955
C -0.17258216 12.54264329 12.15436649 -0.00349420 0.00332899 -0.00529692
C -8.35223479 17.51282650 18.03856286 -0.00355898 0.00154118 -0.00249620
C -1.91704459 16.53995461 18.03193558 -0.00173782 0.00386802 -0.00415677
C 6.55685107 11.21707809 12.53334418 0.00589477 0.00460748 0.00280258
C -4.12940219 14.80509784 15.87146013 -0.00309440 0.00160452 -0.00035621
C -4.54859511 10.22652390 15.00820181 -0.00236977 -0.00236821 -0.00113385
C 2.02082105 14.13642484 14.73156449 0.00434076 0.00485729 -0.00351074
C 2.32662761 19.24716581 15.77023367 -0.00314052 0.00235911 -0.00518554
C -5.40475895 15.65608729 15.63990447 0.00324109 0.00206562 0.00212137
C -3.47014006 11.20241596 15.19289104 -0.00353462 0.00555472 0.00863168
C 3.14562439 13.25903615 14.95827777 0.00149882 0.00202079 -0.00169176
C 1.15473074 18.31097643 15.56035722 0.01058696 -0.00312951 0.00230286
C -6.12527949 13.56964703 23.26959558 -0.00487891 0.00331788 0.00691730
C -8.55317984 18.33271830 19.11769367 -0.00458870 0.01279518 0.00241299
C -2.12291563 15.87617041 19.30272306 -0.00174372 -0.00549181 -0.00508800
C 0.35814426 10.83469998 23.13723353 -0.00041213 -0.00267855 0.00084945
C -4.90982172 13.50736516 22.57377965 0.01025929 0.00051518 0.00863793
C 3.16687169 17.98841875 19.93047655 0.00653847 0.00057344 -0.00214558
C -3.36279738 16.04332515 19.88781520 0.00279280 0.00125727 0.00373152
C 27.82232053 10.85215410 22.79853579 -0.00262126 -0.00038779 -0.00099408
C -3.91608726 12.57803518 22.97504189 0.00014027 0.00186256 0.00176700
C 2.15529533 17.13270629 19.43527562 0.00004848 0.00239887 0.00379837
C -4.36346158 16.77516917 19.27917954 0.00219749 0.00087119 -0.00202698
C -10.37841974 11.79490209 23.23719269 -0.00015823 0.00398974 0.00468860
C -4.20498304 11.69237171 24.02274762 -0.00380129 -0.00063157 0.00073171
C 2.29941943 16.44707603 18.24254069 -0.00275557 0.00658645 -0.00204611
C -4.15236977 17.41862923 18.04740325 -0.00223084 -0.00145949 -0.00196755
C 1.34822411 12.63754578 0.04514623 0.00075255 0.00041980 0.00316871
C -2.10777794 11.81235024 19.05525138 -0.00477086 -0.00320944 -0.00075179
C 0.76074100 16.35727627 23.85343875 0.00706274 0.00403551 0.00134422
C -5.89086469 17.20653499 23.56791692 -0.00385450 -0.00337422 0.00203020
C -8.63757687 12.48568716 19.05646035 0.00104112 0.00384197 0.00201584
C -3.13258781 12.63713276 18.58452261 0.00417546 -0.00125197 -0.00430037
C -11.23248690 17.51782301 24.20587068 0.01004588 0.00415004 0.00917408
C -4.90174384 16.36022846 24.04430388 0.00110542 0.00510609 -0.00614536
C 3.41293806 11.65785060 18.34037917 0.00538330 -0.00240902 -0.00754607
C -7.20287727 15.17757639 21.86396672 0.00062455 -0.00140433 -0.00301181
C -7.78939212 10.14448701 20.77952377 0.00074740 0.00039648 0.00578060
C -1.01113168 14.39278297 20.94864193 -0.00197690 -0.00168345 0.00007100
C -0.45340669 19.11286824 21.60590253 0.00084948 0.00019121 0.00010868
C -8.51143822 15.77323964 21.52159476 -0.00080527 0.00274223 -0.00347553
C -6.62233119 11.02263316 20.94437042 0.00042223 -0.00022115 0.00502616
C 0.11111451 13.36523062 21.07399104 -0.00143440 0.00025411 -0.00878780
C -1.64139326 18.26075761 21.34760695 0.00227381 0.00609367 0.00462162
C 3.10177498 23.35185915 5.03504893 -0.00337177 0.00079573 0.00267773
C 0.57369447 28.18050970 0.88600978 0.00286069 -0.00749104 0.00056203
C 6.95273338 25.32608081 0.85831469 0.00322746 0.00163170 0.00279128
C 9.71516936 20.57733263 4.98540698 -0.00235651 -0.00624318 -0.00620464
C 4.26610650 23.08993285 4.34517675 -0.00592673 0.00003860 0.00117875
C 12.31177430 27.86103133 1.59735262 0.01962828 -0.00805480 0.00222090
C 5.72217062 25.35355318 1.56545248 -0.00322256 -0.00567856 0.00263545
C 36.96557739 20.74097182 4.43740870 -0.00149836 0.00804624 -0.00148210
C 5.26733727 22.19102943 4.74533556 0.00317882 -0.00239527 0.00324621
C 11.38853770 26.91460479 1.29489868 0.00420107 0.00911434 -0.00287392
C 4.61987948 26.00572996 1.01529257 -0.00310820 -0.00375955 -0.00204944
C -1.25272305 21.58014542 4.86909857 0.00321639 -0.00116413 -0.00985426
C 5.09495849 21.34809004 5.82040042 0.00125884 0.00337892 -0.00252499
C 11.60693442 26.09689736 0.13162143 -0.00167407 0.00287717 0.00002600
C -7.24438570 26.91855786 24.26315358 -0.00829699 0.00039744 0.00234351
C -1.53465537 22.36372564 6.00945716 0.00012523 0.00289381 -0.00532800
C 6.75177880 21.39195156 0.50332044 0.00276631 -0.00722858 0.00053132
C 9.51734989 26.52350240 5.18515784 -0.00621221 0.00133795 -0.00435457
C 2.93522924 27.22672799 5.46854659 0.01384039 0.00293192 0.00197653
C 0.37841000 22.34055523 0.38325852 0.00446765 -0.00124058 0.00023016
C 5.83668969 22.28653803 0.07263181 -0.00133946 0.00340696 0.00499099
C -2.30207476 27.12396043 6.01040423 -0.00379700 0.00133447 -0.00064980
C 3.96702705 26.33661963 5.72060616 -0.00008048 -0.00106690 -0.00030508
C 12.59218035 21.21694933 0.12907487 -0.00331419 -0.00008462 0.00729429
C 2.00026349 24.57699902 3.37126172 -0.00368621 0.00259973 0.00283333
C 1.87004998 19.74287694 2.55243809 0.00228073 -0.00383294 0.00082118
C 8.30562378 23.85668828 2.19250651 0.00573016 0.00363985 -0.00389989
C 8.34670881 28.77113633 3.58437596 0.00147639 -0.00097323 0.00166567
C 0.94446317 25.59045873 3.14702549 0.00344227 0.00428407 -0.00172445
C 3.15340581 20.45595719 2.79494116 -0.00277199 0.00040633 -0.00325259
C 9.62998650 23.15050532 2.17515264 -0.00531504 0.00085303 -0.00449932
C 7.10307974 27.98569034 3.31664805 0.00026683 0.00066416 0.00191633
C 0.16656927 23.16224149 11.19347138 0.00215608 -0.00279696 0.00083475
C -2.57308631 28.07101150 6.99138246 0.00505689 0.00661337 -0.00466513
C 3.83740422 25.56381116 6.87053148 -0.00821269 -0.00209128 -0.00063091
C 6.62688896 20.53690980 11.14456976 -0.00756533 0.00729683 -0.00762491
C 1.33577258 23.05988176 10.42907379 -0.00181766 -0.00688102 0.00016029
C 9.24975520 27.71374855 7.61263306 0.00451424 -0.00305017 0.00773700
C 2.69315599 25.61146919 7.65596044 0.00401693 0.00614254 -0.00544556
C 33.91874591 20.79597600 10.49859488 0.00087055 -0.00147508 0.00968879
C 2.40392947 22.32221227 10.89159385 0.00576515 -0.00063953 -0.00237528
C 8.24887096 26.92590941 7.13029678 0.00516753 -0.00381256 0.00021327
C 1.64523239 26.47323103 7.29560835 -0.00840152 0.00164353 -0.00515766
C -4.36790484 21.72246196 10.93165183 -0.00515830 -0.00561325 0.00404488
C 2.23300975 21.49706434 12.02298570 -0.00861466 -0.00063513 -0.00903610
C 8.28973666 26.42569141 5.84397050 0.00068461 -0.00214568 0.00180702
C 1.77388658 27.39170251 6.26240070 -0.00503488 -0.00354408 -0.00186494
C -4.59177372 22.55272604 12.03297332 0.00270600 -0.00569581 -0.00397497
C 3.84055007 21.50922905 6.48996538 0.00141743 -0.00005324 0.00053336
C 6.63215418 26.22442106 11.29398731 0.00232744 -0.00256516 -0.00387506
C 0.22735074 27.22730835 11.39735295 0.00601897 0.00109111 0.01195357
C -2.63093558 22.08057627 6.84469598 -0.00132878 -0.00164922 0.00103209
C 2.93388012 22.56231989 6.21983112 0.00321286 0.00107322 0.00142994
C -5.22266695 27.13739146 11.86744637 0.00301102 -0.00295512 -0.00463876
C 1.16223180 26.35404495 11.89833513 -0.00200064 -0.00366744 0.00833666
C 9.32609295 21.46195370 6.04755846 0.00067546 -0.01025777 0.00060259
C -1.04447356 24.67092404 9.70275391 0.00361077 -0.00117646 0.00320987
C -1.35828416 19.79750691 8.59972822 0.00026362 -0.00066543 0.00222413
C 5.15580391 24.02624982 8.38090079 -0.00002140 0.00151929 0.00102339
C 5.45146791 28.75290207 9.53414474 -0.00416752 0.00039539 -0.00068918
C -2.22061152 25.63186494 9.60181293 -0.00037145 -0.00153064 0.00349808
C -0.08624441 20.61825738 8.74857876 0.00434863 -0.00523046 -0.00740405
C 6.27163031 22.96888286 8.41201536 0.00182157 0.00154559 -0.00017594
C 4.16474302 28.06513184 9.19803566 -0.00268034 0.00449177 0.00327643
C -2.87853822 23.07337503 17.20439271 0.00842759 0.00452206 -0.00791574
C -5.43094321 27.90827671 13.00982018 -0.00104827 0.00227741 0.00275504
C 0.91443352 25.54722408 13.00758988 -0.00499994 -0.00405366 -0.00209850
C 3.62774709 20.51329658 17.28917545 0.00737564 0.00714201 -0.00000848
C -1.66377768 23.05199704 16.54952140 -0.00265594 -0.00028622 0.00502063
C 6.53275855 27.72586609 13.60844551 0.00986204 0.00123087 -0.00271215
C -0.27968362 25.64739607 13.65430994 0.00604534 0.00348120 0.00110822
C 30.89205762 20.65529524 16.46670889 0.00506406 -0.00041366 0.00089995
C -0.74966018 22.02430153 16.85035943 0.00197265 0.00561647 0.00710330
C 5.41672700 26.99959944 13.27118838 -0.00442048 0.00490996 0.00702485
C -1.23555677 26.56566292 13.20505980 -0.00762513 0.00234931 0.00126384
C -7.36843651 21.47683422 16.97483789 -0.00384491 -0.00915712 -0.01238458
C -1.06844725 21.12416638 17.88776062 -0.00380972 -0.00253703 0.00975570
C 5.47003864 26.23193259 12.08499895 0.00637287 -0.00260233 0.00616728
C -0.98792257 27.33797586 12.05795659 0.00308575 0.00334346 -0.00501187
C -7.55696268 22.14450988 18.17905958 0.00412112 -0.00328128 0.00130520
C 1.04595113 21.52696296 12.70334700 0.00977760 0.00384456 -0.00194405
C 3.71198102 26.32566412 17.62444815 -0.00298076 0.00004831 -0.00400316
C -2.85502529 26.94889003 17.60896340 0.00251546 -0.00602497 0.00306411
C -5.80372023 22.34155626 12.70603329 0.00110427 -0.00274632 0.00880238
C 0.00352965 22.32096670 12.29081616 -0.00098724 0.00086064 0.00288161
C -8.51676095 27.07868049 18.02913668 0.00100095 0.00684041 -0.00188946
C -1.93861603 26.08308504 18.02778858 -0.00043473 -0.00090293 -0.00119844
C 6.30012800 21.40333672 12.24117248 0.00460212 0.00166842 0.00250688
C -3.95082412 24.51877523 15.59705544 0.00699020 0.00312365 0.00374594
C -4.56056455 19.71312840 14.68149251 0.00277784 0.00019516 0.00785693
C 2.20482654 24.27564130 14.71593823 -0.00794637 -0.00234701 0.00540814
C 2.23206649 29.02394924 16.00104407 0.00155357 -0.00769176 0.00642204
C -5.07236145 25.49509218 15.35791223 0.00734089 -0.00589725 -0.00130464
C -3.29889900 20.49086764 15.02348767 0.00207141 -0.00218213 0.00468974
C 3.41448648 23.42467030 14.80992578 0.00354030 0.00073545 -0.00224819
C 1.16375680 27.94340060 15.96480821 0.00102472 0.00456872 0.00160580
C -5.99962226 23.09146683 23.24542455 -0.00304924 -0.01057522 -0.00086168
C -8.71756977 27.89293207 19.14437291 -0.00106344 0.00465282 -0.00008285
C -2.17011234 25.28962629 19.17910652 -0.00174371 0.00336577 -0.00775935
C 0.83790159 20.44793136 23.27860231 -0.00087064 0.00319689 -0.00271781
C -4.82101848 22.85810376 22.45881795 0.00912188 -0.00155206 0.00306054
C 3.38590113 27.94602197 19.81261962 0.00650079 0.00185305 0.00143884
C -3.42022505 25.35415578 19.85919598 0.00043139 0.00292552 0.00291198
C -11.08500491 20.50205606 22.66892723 0.00043782 0.00090541 0.00241962
C -3.80623789 22.05386127 22.99288379 -0.00740261 0.00863798 0.00321310
C 2.38546464 27.11736156 19.41750517 -0.00083529 -0.00565204 0.00210474
C -4.32303507 26.27728084 19.37932117 0.00662450 -0.00876271 0.00086699
C -10.15530164 21.45932966 22.97180944 -0.00582504 -0.00102768 0.00150053
C -3.98446999 21.32378801 24.16095623 0.00248237 -0.00518532 0.00429612
C 2.52168084 26.33619134 18.32373880 -0.00407876 -0.00150746 -0.00040096
C -4.07261634 27.12362088 18.28579712 -0.00009443 0.00003644 -0.00384351
C -10.34252869 22.34451602 24.02285705 -0.00278372 -0.00231625 0.00242692
C -2.25734929 21.27265485 18.67159642 -0.00359694 0.00331671 -0.00242791
C 0.77102422 26.20202852 23.72950763 -0.00000345 0.00099157 -0.00170548
C -5.95544756 27.12317759 23.75302152 0.00982887 0.00060286 0.00137136
C -8.80955101 22.12420717 18.76992363 0.00420387 -0.00887221 0.00136188
C -3.08776192 22.23360511 18.27202718 0.00382098 -0.00107299 0.00183556
C -11.22076142 27.23895508 24.17097067 0.00349865 -0.00696266 -0.00106947
C -4.86849197 26.36165679 24.14070235 0.00188931 -0.00310124 -0.00418548
C 3.62078902 21.33137812 18.42598848 0.00490805 0.00082756 -0.00304662
C -7.01101648 24.48533238 21.51422390 -0.00096454 -0.00965824 -0.00534963
C -7.36315282 19.76336872 20.68828373 -0.00133550 0.00166916 0.00260375
C -0.86481281 23.85479559 20.70937385 -0.00326667 0.00421850 0.00444506
C -0.77262276 28.62140665 21.80964388 -0.00090864 0.00088189 -0.00788044
C -8.36523139 25.17326119 21.22105502 -0.00587090 0.00160949 0.00451264
C -6.30061398 20.73640585 20.80489590 0.00235373 0.00040013 0.00204653
C 0.35210872 23.03094899 20.82434940 -0.00527538 -0.00338666 -0.00076158
C -2.03808662 27.92071009 21.57375525 -0.00845362 0.00550459 -0.00299441
C 16.32334813 3.64202498 4.90222008 0.00026472 -0.00746174 0.00150856
C 13.28460229 8.46662497 0.84361093 0.00293857 0.00133019 0.00423845
C 20.08353583 5.90711064 1.02523751 0.00047122 0.00094209 -0.00427115
C 22.65735524 1.09610832 5.07636464 -0.00690514 0.00099078 0.00365459
C 17.61141506 3.51474548 4.28577393 0.00416905 -0.00299807 -0.00031950
C 25.26914082 8.65026489 1.71109651 -0.00407065 -0.00179827 0.00388385
C 18.85993639 6.01225949 1.62592372 -0.00232220 0.00484907 -0.00376677
C 10.71443648 1.32610687 4.42051682 -0.00548330 0.00465966 0.00073059
C 18.43317258 2.47251140 4.76901256 0.00303972 0.00447504 -0.00192609
C 24.31573660 7.67483079 1.37488679 0.00083346 0.00342721 0.00176177
C 17.93013450 6.92830539 1.33924283 -0.00570851 0.00569669 -0.00384069
C 11.73395409 2.19883298 4.79633474 0.00317946 -0.00438342 -0.00043444
C 18.07269375 1.57120431 5.79694858 -0.00538552 0.00868561 0.00015930
C 24.53548805 6.82196952 0.31391344 -0.00046984 0.00152685 -0.00012404
C 18.08954187 7.80101087 0.22387353 0.00215309 -0.00083994 -0.00294027
C 11.59250685 2.96592903 5.92726498 -0.00274172 0.00507910 0.00114357
C 19.95775940 1.98646947 0.40422847 -0.00844951 0.00007222 0.00231550
C 23.34204034 6.63345738 5.43122551 0.00008750 -0.00481022 -0.00259305
C 16.41993575 7.82119885 5.61175312 0.00308113 0.00391719 -0.00165680
C 13.23915315 2.87545821 0.40940570 -0.00666177 0.00448196 -0.00051368
C 18.94983883 2.87094571 0.06462187 0.00093890 0.00101089 0.00689264
C 10.69475501 7.77557368 5.78412834 -0.00052915 -0.00410372 -0.00339456
C 17.36071860 6.82609285 5.92265537 -0.00391447 0.00287668 -0.00217852
C 25.44637789 1.71260442 0.02391915 -0.01017271 -0.00092663 0.00027450
C 14.98083280 5.05318757 3.35926264 -0.00439411 -0.00233928 0.00010960
C 14.61130636 0.47440719 2.47665829 -0.00004427 -0.00159015 -0.00265474
C 21.18523808 4.39592634 2.56860369 -0.00122520 0.00462562 0.00809957
C 21.43295424 9.42233204 3.47952130 -0.00167415 0.00056865 0.00032422
C 13.73867669 5.88970473 3.36836123 0.00309562 0.00359935 -0.00274279
C 15.83426076 1.41412394 2.73403114 -0.00669515 0.00794214 0.00651943
C 22.47593360 3.53914634 2.66119519 0.00017504 -0.00399112 0.00488102