2880
Time=84000.00000008 pbc="T T T" Lattice="39.34211563 0.00000000 0.00000000 0.00000000 28.93625368 0.00000000 -12.02677049 0.00000000 24.39672056" energy=-18398.41190803 virial="-44.81313940 22.03487362 -5.36000974 22.03487362 5.85121335 2.95942100 -5.36000974 2.95942100 19.39962712" stress="0.00084726 0.00077292 -0.00021587 0.00077292 0.00275186 0.00010547 -0.00021587 0.00010547 0.00321621" Properties=species:S:1:pos:R:3:vel:R:3
C 3.05133716 3.77029181 5.04095626 -0.00322901 0.00148886 0.00171517
C 0.42377436 8.63726348 1.21476486 -0.00359727 0.00296187 0.00079986
C 6.90629042 6.12340922 1.09806054 -0.00100116 0.00530821 -0.00497731
C 9.58597405 1.16921634 5.11231903 0.00058106 0.00045458 0.00657837
C 4.31330221 3.63120281 4.42574369 -0.00071822 0.00085622 0.00251690
C 12.49653404 8.23528642 1.66039563 -0.00144809 -0.00314921 -0.00003158
C 5.63584400 6.16080245 1.70999167 0.00299827 0.00589131 -0.00433315
C -2.14273766 1.04561207 4.49267644 -0.00294358 0.00607240 0.00085427
C 5.20587574 2.67647929 4.83110208 0.00026857 0.00431080 -0.00231724
C 11.45447563 7.49008590 1.14543317 0.00492707 -0.00192367 -0.00439869
C 4.62414177 7.08895767 1.46229659 -0.00759935 -0.00174931 0.00056240
C -1.22222025 2.02160023 4.80864568 -0.00122353 0.00649628 0.00165852
C 5.06542533 1.99264457 6.04799122 -0.00816093 -0.00394653 -0.00389111
C -0.40326435 6.68881766 24.39467560 -0.00270658 0.00467876 0.00469606
C 4.84219497 7.93207942 0.34935467 -0.00438221 0.00325919 -0.00118054
C -1.40551887 2.88173399 5.83666180 0.00309996 -0.00119523 -0.00445494
C 6.89960562 2.14596136 0.53922623 0.00265905 0.00305552 -0.00444206
C 9.75689910 7.03211508 5.40552669 0.00359702 -0.00486959 0.00445826
C 2.93285609 7.87467971 5.67994091 0.00245254 0.00129273 0.00103576
C 0.45258412 2.80914900 0.53843005 0.00490098 -0.00972284 0.00330156
C 5.95209308 3.04497832 0.08798464 -0.00206080 0.00245089 0.00057896
C -2.50392526 7.64752522 6.11163078 0.00399978 -0.01183327 -0.00445188
C 3.97822960 7.01006067 5.99797829 -0.00086122 0.00358185 0.00700808
C 12.40447596 1.96567428 0.06309008 0.00092095 0.00474909 -0.00224036
C 1.98279854 5.13816571 3.38399345 0.00403531 -0.00306441 0.00042810
C 1.54468888 0.19446027 2.71284425 -0.00069176 0.00762781 0.00424939
C 8.04570612 4.53824470 2.61790783 0.00486124 -0.01132377 0.00028926
C 8.66859754 9.40867976 3.57199205 0.00505205 -0.00836850 0.00519896
C 0.78998002 5.93350866 2.96859926 -0.00599554 -0.00124672 -0.00150108
C 2.74578571 1.05026440 2.92641468 -0.00383235 -0.00581324 0.00150155
C 9.17663557 3.68591703 2.64960085 0.00138887 0.00119444 -0.00321216
C 7.42108050 8.66365067 3.45312579 0.00499289 -0.01064641 0.00240069
C -0.05492164 3.52357259 11.19956398 -0.00462669 0.00344202 -0.00338797
C -2.71618045 8.43455694 7.25073482 -0.00095718 -0.00891661 -0.00535122
C 3.83625218 6.05717170 6.95753765 -0.01005510 -0.00360753 0.00067169
C 6.56015561 1.06786379 11.37849175 0.00783147 -0.00365108 0.00153101
C 1.16233776 3.53253730 10.51628202 0.00288627 0.00116607 0.00005040
C 9.46679868 8.45748260 7.81188197 0.00390811 -0.00070694 0.00431857
C 2.57719860 6.02965755 7.68040626 -0.00051615 0.00151114 -0.01072400
C 33.93409727 1.08742725 10.53253453 0.00600283 0.00242769 0.00175101
C 2.14081738 2.68191296 10.98346069 0.00121245 -0.00436065 -0.00536635
C 8.43888971 7.64569653 7.33870569 -0.00132425 -0.00083452 0.00151560
C 1.58722087 6.88029378 7.37355994 0.00939775 0.00070171 0.00197011
C -4.41984488 1.99064312 10.94457672 -0.00022235 -0.00357714 0.00445733
C 1.99038526 1.87887754 12.10939235 0.01010297 0.00275216 -0.00792284
C 8.56071523 6.92846140 6.13407094 0.00475486 -0.00847315 -0.00490330
C 1.67680844 7.72445245 6.26252833 -0.00410286 -0.00241881 0.00176668
C -4.61580714 2.83105798 11.98999588 0.00360823 0.00199609 -0.00273293
C 3.77370834 2.12028723 6.64129654 0.00075967 -0.00244909 0.00651660
C 6.35420616 6.63604390 11.52220394 -0.00191350 0.00025611 0.00421105
C 0.22717406 7.62752537 11.80162644 0.00901671 0.00267730 -0.00577556
C -2.58891301 2.70198281 6.65197052 0.00419656 -0.00176376 0.00610717
C 2.82110560 3.03445282 6.20425514 0.00183077 -0.00366134 0.00246856
C -5.50758663 7.67153332 12.17604156 -0.00356999 0.00201254 0.00880628
C 1.07494255 6.63304407 12.26492273 -0.00097609 -0.00185903 0.00009846
C 9.34470197 1.91725608 6.29424125 0.00360723 0.00470552 0.00605769
C -1.23385912 4.88204472 9.64501305 -0.00187678 -0.00122753 -0.00362934
C -1.01870691 0.37928032 8.50430058 -0.00012771 0.00097945 0.00225747
C 4.95092114 4.50019226 8.41245371 -0.00009271 -0.00425211 -0.00006396
C 5.40866918 9.28803715 9.51691089 -0.00239626 0.00180625 0.00751010
C -2.41294202 5.81565191 9.41099100 0.00340549 -0.00250117 0.00521154
C 0.11834327 1.35470725 8.30750056 -0.00091516 0.00417878 -0.00342991
C 6.23814668 3.65021673 8.41276775 0.00041005 0.00420768 0.00851746
C 4.24484163 8.35999166 9.33655413 -0.00858333 -0.00420676 0.00273792
C -3.00899877 3.46743687 17.17576775 0.00432196 0.00439201 0.00061431
C -5.78418505 8.57187367 13.20937109 -0.00137689 0.00096926 -0.00077786
C 0.67896386 5.78902208 13.28102335 0.00512865 -0.00175628 0.00337589
C 3.79476756 1.34993337 17.49390665 -0.00187370 -0.00468238 0.00230512
C -1.78454659 3.43563274 16.53029914 -0.00457984 0.00557845 -0.00289548
C 6.01964882 8.22342890 13.74657049 0.00660947 -0.00307620 -0.00076609
C -0.59775180 5.90220785 13.84414974 -0.00016724 0.00062831 -0.00513660
C 31.14346562 1.13526015 16.53403443 -0.00422848 0.00807239 0.00196588
C -0.76278948 2.51837853 16.82851795 0.00703933 -0.00617625 0.00030541
C 4.97465111 7.41400763 13.30804064 0.00145716 -0.00195016 -0.00096131
C -1.43622657 6.89175973 13.40848411 0.00429600 0.00559828 -0.00531628
C -7.42575758 2.19175805 16.86184154 -0.00240190 0.00226151 -0.00024134
C -0.91319384 1.72865832 18.02977500 -0.00015863 -0.00516541 -0.00030169
C 5.13488745 6.58469079 12.17523161 0.00073654 -0.00020931 -0.00453440
C -1.02607723 7.76537662 12.34376827 0.00270847 -0.00227529 -0.00041107
C -7.62382280 3.04966674 17.95573512 -0.00243496 -0.00057527 -0.00475834
C 0.71690782 1.85764252 12.71981766 0.00370394 0.00100403 0.00104509
C 3.75142387 6.66786793 17.96047045 -0.00085689 0.00505605 -0.00217499
C -2.99056849 7.28408645 17.65777953 -0.00174913 0.00218511 0.01347663
C -5.92562860 2.78797679 12.66610189 -0.00911982 0.00613587 0.00205089
C -0.26411340 2.63997980 12.24768677 0.00122942 -0.00029608 -0.00267145
C -8.51014758 7.92418441 18.26091463 -0.00832388 0.00302077 -0.00148085
C -2.05719227 6.37723188 18.04758451 -0.00697950 0.00529890 0.00004396
C 6.34897254 2.16382550 12.31546252 -0.00076516 -0.00105487 0.00139994
C -4.24572773 4.99009714 15.77863404 -0.00144957 -0.00224608 -0.00157539
C -4.58365717 0.19277459 14.75456648 0.00029940 0.00658385 0.00079926
C 1.65955074 4.28437595 14.93847309 -0.00574098 0.00283481 0.00242325
C 2.51874913 9.17791310 15.76202972 0.00357824 -0.00238947 0.01182771
C -5.44052662 5.95875904 15.86164120 0.00367086 -0.00296372 -0.00131663
C -3.40173154 1.05517204 14.92320729 -0.00702769 -0.00232863 0.00319353
C 2.74809752 3.27894402 15.05519587 0.00008372 0.00452800 -0.00123312
C 1.27842632 8.44771988 15.57911172 -0.00298585 0.00085191 0.00386692
C -5.90075573 3.73863526 23.31527657 -0.00625372 -0.00233430 0.00555853
C -8.59569311 8.76003786 19.43228900 0.00587771 -0.00408198 0.00209905
C -2.13293512 5.54201875 19.14933429 0.00783696 -0.00688131 -0.00071233
C 0.62924230 1.05057796 23.42125032 0.00519710 -0.00509045 0.00138641
C -4.70641651 3.61089894 22.56456794 0.00068509 0.00205299 0.00027502
C 3.21082527 8.43851588 19.96486252 0.00217754 0.00333004 -0.00573640
C -3.30606400 5.77207147 19.93244190 -0.00344998 0.00852591 0.00486767
C 28.14911533 1.16781781 22.69494305 -0.00234378 0.00120136 -0.00711986
C -3.72357894 2.75253700 22.97666916 0.00301551 -0.00371085 -0.00789391
C 2.18648598 7.59356211 19.58080090 -0.00602451 0.00374254 -0.00014604
C -4.22617542 6.78543400 19.62840864 0.00213478 -0.00260412 -0.00281714
C -10.20679469 2.08184968 23.06345759 0.00333597 0.00021435 0.00220021
C -3.96973803 1.94698417 24.15803932 -0.00315651 0.00254751 -0.00099946
C 2.40777138 6.71372268 18.48328081 -0.00008285 0.00812429 -0.00791885
C -4.08780477 7.56265441 18.50387488 0.00018277 -0.00223376 -0.00419427
C -10.32001809 2.89862729 24.21729305 0.00031178 -0.00421459 0.00240501
C -2.19640048 1.84476446 18.72188518 -0.00084626 0.00824683 -0.00178239
C 0.71618690 6.92493793 23.57694617 -0.00453391 -0.00688939 0.00110146
C -5.96764848 7.85928106 24.05191961 0.00135887 0.00577369 -0.00233749
C -8.88461390 2.90985979 18.55658305 0.00015061 0.00554989 0.00827825
C -3.25138113 2.56274887 18.21183049 0.00517904 -0.00515619 0.00454692
C 0.67099169 7.83581902 0.08838105 -0.00089565 -0.00216641 0.00445572
C -4.90575386 7.01211117 24.39311402 -0.00099385 -0.00057501 -0.01235296
C 3.64887885 2.15174610 18.65751758 -0.00467103 -0.00956958 0.00354214
C -7.14908493 5.13282825 21.73963903 0.00046051 -0.00063670 -0.00540044
C -7.45162965 0.25498921 20.85058895 0.00580519 0.00222245 -0.00231043
C -0.88183964 4.37834105 20.76508055 -0.00219899 -0.00709401 0.00456011
C -0.51043709 9.47753284 21.75455421 -0.00296732 -0.00391976 -0.00358801
C -8.32728883 6.02230771 21.53966826 -0.00323656 0.00441385 -0.00236527
C -6.38220927 1.23061383 20.98915240 -0.00622747 -0.00451305 0.00119993
C 0.37189449 3.63473049 21.13175528 0.00297704 -0.00402058 0.00251465
C -1.89739024 8.99145393 21.54393211 -0.00161345 -0.00217555 -0.00047267
C 3.13267803 13.56621710 5.08328618 0.00194925 -0.00263545 0.00236268
C 0.52645146 18.41117141 1.03677723 0.00425574 0.00362232 -0.00577903
C 7.10856070 15.58861222 1.11730418 -0.00069249 -0.00089572 0.00710117
C 9.79590000 10.78874951 5.18128639 0.00540662 0.00127936 -0.00408052
C 4.38908116 13.44618688 4.36325644 0.00036252 0.00272486 0.00870288
C 12.46309235 18.18403469 1.72827073 0.00199632 0.00257594 -0.00341852
C 5.95839510 15.69318195 1.89316182 -0.00052132 -0.00836519 -0.00194591
C -2.07531877 10.85570208 4.78419507 -0.00164068 -0.00139421 -0.00108240
C 5.31044249 12.50750356 4.73260767 0.00086072 0.00661274 -0.00190774
C 11.49501483 17.37741091 1.25165754 0.00149334 0.00211383 0.00008250
C 5.02202782 16.71306229 1.51896550 0.00218133 0.00941493 0.00037162
C -1.12300478 11.71653779 5.24148697 0.00325804 0.00186504 0.01122419
C 5.11670570 11.72440374 5.90807915 0.00208133 0.00397703 -0.00029329
C 11.68552588 16.51756815 0.14241896 0.00096165 -0.00206768 -0.00465925
C 5.13958890 17.50183892 0.37135978 -0.00256032 0.00236092 0.00150980
C -1.35772662 12.50741558 6.36971191 0.00270398 0.00641416 -0.00368559
C 7.07535552 11.89180924 0.62192847 0.00285067 -0.00016174 -0.00321073
C 9.93867383 16.69460373 5.39532138 -0.00439553 0.01503196 -0.00306421
C 3.42084560 17.21377001 5.69671854 -0.00289334 0.00163060 -0.00315173
C 0.43276895 12.78513681 0.58843151 0.00189325 0.00191189 0.00901832
C 5.99971094 12.69375594 0.19872767 0.00321229 0.00793481 -0.00285708
C -2.24371554 17.44169105 6.13902857 0.00574906 0.00852131 0.00161873
C 4.34878843 16.24846950 5.93479654 0.00024013 -0.00506669 0.00336140
C 12.60172450 11.43513646 0.21222038 -0.00313388 -0.00581975 -0.00126133
C 1.90989935 14.92670277 3.57740880 -0.01091709 -0.00898304 0.00661241
C 1.45518445 10.06804042 2.82916871 0.00023317 0.00332189 0.00237710
C 8.53473527 14.15767834 2.60096602 0.00891240 -0.00444785 -0.00320197
C 8.63989477 18.99927562 3.40544268 0.00791116 -0.00701151 0.00461079
C 0.67881450 15.84776454 3.31254271 0.00024650 0.00339758 -0.00356415
C 2.64798677 11.00660870 2.94475601 -0.00230268 -0.00244025 0.00500525
C 9.82011418 13.31486994 2.54858749 -0.00379243 -0.00097876 -0.00255777
C 7.41595422 18.09760679 3.17760055 0.00205144 0.00009938 -0.00192811
C 0.04234884 13.13870477 11.43365215 -0.00206900 0.00668874 -0.00444317
C -2.50892624 18.17506407 7.31898125 0.00593851 -0.00239058 0.00059483
C 4.13667262 15.40839801 7.04596117 -0.00214504 0.00078795 0.00458528
C 6.67253956 10.58061684 11.10580325 -0.00186801 -0.00198706 0.00358570
C 1.25394502 13.22385601 10.70355231 0.00356877 0.00038402 0.00546491
C 9.51742760 18.12944555 7.67977163 -0.00414809 -0.00160268 -0.00345516
C 2.94282027 15.53126651 7.74170826 -0.00280658 -0.00214642 -0.00684404
C 33.96742329 10.91366813 10.78250946 0.00479031 0.00323208 0.00155196
C 2.31018802 12.40430037 11.00257345 -0.00076225 0.00892684 0.00406351
C 8.58715185 17.16501248 7.38114628 0.00218665 0.00009283 -0.00169340
C 1.93596647 16.41040288 7.36509031 -0.00272412 0.00495129 0.00262071
C -4.49842389 11.89407571 11.18233758 -0.00380630 0.00576494 0.00235865
C 2.23563821 11.50318154 12.10110675 -0.00366935 -0.00144446 -0.01063165
C 8.73712108 16.41750570 6.17268056 0.00688142 -0.00477958 0.00014758
C 2.17486289 17.33656830 6.33120610 0.00005562 -0.00393962 0.00240676
C -4.82382443 12.86802234 12.11343867 -0.00340824 -0.00553316 0.00579553
C 3.91878381 11.88729313 6.63916707 0.00681435 0.00082912 -0.00064729
C 6.76079081 16.66209520 11.57534635 -0.00553763 0.00074773 0.00080686
C 0.09812459 16.94567546 11.53127124 0.00025361 0.00055523 -0.00706743
C -2.60920067 12.37467462 7.02828476 -0.00183171 0.00234719 0.00033888
C 2.94291795 12.79196561 6.23753474 -0.00180630 -0.00324120 -0.00011152
C -5.46412059 17.35436840 12.07760854 -0.00078079 0.00266129 0.00173836
C 1.12786963 16.17032459 12.00986011 -0.00158749 0.00239663 -0.00018819
C 9.66146250 11.54439969 6.31708058 0.00275282 0.00164482 0.00783598
C -1.11315407 14.68912331 9.94073659 0.00064464 -0.00280063 0.00241842
C -1.66891899 9.90533583 8.84920514 0.00141005 0.00248497 -0.00335915
C 5.53796821 14.16415087 8.46425510 0.00413743 -0.00367099 -0.00711853
C 5.50665767 18.96363735 9.72131372 -0.00511626 -0.00379570 -0.00739294
C -2.35303304 15.46914228 9.91717893 0.00241609 0.00077279 0.00161891
C -0.41399674 10.67662644 9.13495044 -0.00561383 -0.01011388 0.00147326
C 6.81360924 13.31202017 8.44833555 -0.00850927 0.00733507 -0.00169713
C 4.15687891 18.27879272 9.52623503 0.00551005 0.00047429 -0.00386599
C -2.98230080 13.38462720 17.24943179 0.00108547 0.00148874 -0.00162375
C -5.77626606 18.27936142 13.01297949 0.00472585 -0.00195400 0.00264221
C 0.95160917 15.42171001 13.16227371 0.00423874 0.00294455 -0.00263537
C 3.69617123 10.51224267 17.32123299 -0.00327319 -0.00110009 -0.00406641
C -1.83430775 13.18294968 16.48563572 -0.00288207 0.00689892 -0.00068365
C 6.22887383 18.15804929 13.87336125 0.00256713 -0.00462879 0.00092126
C -0.26677603 15.51290267 13.87971865 -0.00288691 -0.00616604 -0.00419402
C 31.00762802 10.76066380 16.85341396 -0.00242956 -0.00242909 -0.00128722
C -0.87065338 12.35871948 17.00392023 0.00211621 0.00412169 -0.00096339
C 5.32043023 17.21528828 13.39500929 -0.00479046 0.00441579 0.00039523
C -1.20264707 16.39485073 13.46346608 -0.00319121 0.00588729 0.00739269
C -7.41175676 11.71894868 17.09215059 0.00588939 -0.00206496 0.00146393
C -0.99315474 11.67753674 18.17754482 0.00345788 -0.00084970 0.00429081
C 5.65059690 16.35171476 12.32368999 0.00442017 0.00389777 -0.00115235
C -1.03416975 17.26755542 12.29454590 -0.00207344 0.00103910 0.00519097
C -7.57312007 12.58912558 18.18996462 -0.00805238 -0.00171738 0.00272427
C 1.07350558 11.47656793 12.84296384 -0.00218216 0.00999469 -0.00211210
C 3.67759073 16.55842580 17.83733697 -0.01184104 0.00650064 -0.00618561
C -2.99545272 17.22451864 17.60776503 0.00158485 -0.00278379 0.00706530
C -6.05573626 12.76016561 12.75946489 -0.00223593 0.00090213 0.00363024
C -0.00140091 12.33277991 12.59373263 0.00277749 -0.00365225 -0.00489595
C -8.44355066 17.50478705 18.06067124 -0.00262799 -0.00380045 -0.00292330
C -1.98919645 16.39666323 18.02199074 0.00196783 0.00444018 0.00116872
C 6.50716109 11.38005280 12.24952773 0.00181269 0.00339593 0.00420587
C -4.11649689 14.90364936 15.72722062 -0.00155584 0.00605464 -0.00625052
C -4.69138433 9.82763868 14.90898403 -0.00045234 -0.00313194 -0.00476125
C 2.12640464 14.09905048 14.81854735 -0.00371602 -0.00327699 0.00346250
C 2.51461653 18.85817093 15.79912916 -0.00255700 -0.00133791 -0.00553058
C -5.17620037 15.90233690 15.49204187 -0.00543410 -0.00592647 0.00098304
C -3.48317707 10.64116756 15.18531765 0.00345146 -0.00454361 -0.00003712
C 3.12920346 13.04120321 15.09265585 -0.00987260 -0.00651544 -0.00572405
C 1.26597546 18.08530637 15.65572338 -0.00458187 0.00292820 0.00811307
C -5.86024932 13.56326886 23.55073710 -0.00255838 0.00660013 -0.00924134
C -8.55067490 18.14883306 19.31727737 -0.00495946 -0.00142155 -0.00191643
C -2.17610209 15.58618379 19.20320591 -0.00082445 0.00127092 -0.00157161
C 0.71924182 10.81786858 23.33056634 0.00072089 0.00093890 0.00241526
C -4.61456217 13.56198358 22.87691363 -0.00200798 0.00520303 -0.00998613
C 3.25713782 18.27047091 19.89021008 -0.00173288 0.00995270 0.00047815
C -3.42437612 15.67875116 19.84010679 0.00417795 0.00643594 -0.00092111
C -11.08402895 11.08549236 22.86561897 0.00620885 0.00265820 0.00111742
C -3.59571002 12.72625729 23.23878891 0.00498539 -0.00042805 -0.00506701
C 2.24602315 17.40048489 19.56399547 0.00717899 0.00079600 -0.00113778
C -4.30764844 16.74077633 19.56296758 0.01030922 0.00003082 0.00398406
C -10.06074050 11.85304589 23.43737325 0.00268212 0.00479019 0.00393809
C -3.74529449 11.84633063 24.35482313 -0.00487712 -0.00194914 0.00007644
C 2.41998003 16.54747840 18.44425111 -0.00182872 0.00392982 0.00316265
C -4.16367895 17.45578487 18.37480168 -0.00300581 0.00856179 0.00279685
C 1.75381844 12.69846901 0.11052023 -0.00313885 0.00114962 -0.00539330
C -2.17153354 11.85657639 18.94326966 0.00113214 -0.00329233 0.00424479
C 0.91379224 16.65021466 23.88287447 0.00295975 -0.00568444 0.00239213
C -5.69064489 17.39027897 23.98653786 -0.00559324 -0.00244605 -0.00503429
C -8.80384090 12.57722796 18.93943939 -0.00464032 -0.00272965 0.00660625
C -3.22104315 12.57973102 18.40952477 0.00132809 0.00048163 -0.00446174
C -11.28356948 17.61614054 24.26543099 0.00378724 -0.00006503 0.00191656
C -4.78059934 16.45656177 24.39275272 -0.00820514 0.00773662 -0.00369650
C 3.33284915 11.41642248 18.33279494 0.00499746 0.00155892 0.00072816
C -6.99907009 14.85795902 21.80070517 -0.00228071 0.00549285 -0.00014517
C -7.22907132 10.01831282 21.02404473 -0.00758156 0.00060847 -0.00128982
C -0.90188488 14.31887747 20.80207730 0.00000480 0.00635921 -0.00436988
C -0.45944667 18.98539366 21.79876559 0.00531621 0.00233697 -0.00831325
C -8.32969892 15.62963194 21.52775729 -0.00324404 0.00377768 -0.00543146
C -6.11605105 10.96162516 21.17944267 -0.00422235 0.00234266 -0.00014301
C 0.17129140 13.28341064 20.91203588 -0.00153348 -0.00322846 -0.00171191
C -1.61615355 17.99936780 21.54778953 -0.00048399 0.00217198 0.00112874
C 3.26489288 22.99634094 5.25477122 -0.00368486 0.00420886 0.00672546
C 0.35799134 27.80776087 1.06916406 0.00575969 -0.00082526 0.00419750
C 7.00483159 25.00039822 0.97991625 0.00284153 -0.00339551 -0.01183865
C 9.90514857 20.30052353 5.03366232 -0.00852604 0.00506812 0.00584793
C 4.43512569 22.89057556 4.49156031 -0.00159454 -0.00015996 -0.00363453
C 12.20030784 27.98044698 1.74794335 0.00020310 -0.00319715 0.00314931
C 5.77020563 25.19601088 1.65756133 0.00013388 -0.00004622 -0.00292028
C -1.92187618 20.35302492 4.72530316 0.00041488 -0.00253317 0.01069113
C 5.46304482 22.10046313 5.04726238 0.00078067 0.00333193 -0.00513148
C 11.22366050 27.09224812 1.25556356 0.00338097 0.00421848 -0.00581189
C 4.85569130 26.15245064 1.26073969 -0.00774871 -0.00746968 -0.00490254
C -0.92230774 21.24744117 5.13936478 -0.00107570 -0.00275567 0.00124146
C 5.29829974 21.25147704 6.15387015 -0.00270246 0.00247385 -0.01217724
C 11.54232996 26.08986842 0.29484972 0.00687422 -0.00781677 -0.01183105
C 5.04902254 27.02728294 0.20572827 0.00677689 0.00192206 -0.00200819
C -1.18059470 22.09473201 6.26788707 0.00775629 -0.00004649 0.00801673
C 6.77905986 21.36830530 0.60890616 0.00097749 -0.00305346 0.00309703
C 9.67410907 26.24057986 5.47767386 0.00074879 0.00038563 0.00240563
C 3.21342579 26.69842241 5.45406013 0.00116436 -0.00014860 -0.00532793
C 0.35743545 22.13764909 0.75711837 0.00541175 0.00093159 0.00433218
C 5.78234524 22.17782016 0.16918126 -0.00361143 0.00825595 0.00214111
C -2.21672103 26.90226466 5.94771014 0.00096482 -0.00164995 0.00311551
C 4.19863720 25.86216019 5.87560069 -0.00368987 -0.00207772 -0.00194958
C 12.41758531 21.22932358 0.09666140 -0.00396621 -0.00462751 -0.00446976
C 2.02794611 24.38906583 3.70470498 -0.00448991 0.00399407 0.01037479
C 1.69579349 19.55599524 2.72716216 -0.00121719 -0.00386756 0.01410068
C 8.05638399 23.51593269 2.58565696 -0.00409749 -0.00006603 -0.00556028
C 8.49750443 28.66922266 3.45745117 0.00054053 -0.00363349 -0.00074762
C 0.85880892 25.33198265 3.62550376 -0.00811383 0.00063743 -0.00198167
C 2.89227532 20.38926689 3.03339715 -0.00514998 0.00127600 0.00252634
C 9.21376612 22.55928213 2.80858726 -0.00909716 0.00290610 0.00214015
C 7.62578491 27.53560491 3.29896232 0.00272615 -0.00259928 -0.00505351
C 0.07848126 23.06186488 11.39968757 -0.00171381 0.00478628 -0.00868958
C -2.40513169 27.79339048 7.02274905 -0.00416383 -0.00301270 0.00442673
C 4.01056609 25.11310144 7.07264609 -0.00307726 0.00193644 -0.00396239
C 6.74718246 20.40794076 11.25420767 -0.00369222 0.00159114 0.00226905
C 1.25731370 22.85553205 10.66941240 0.00107802 -0.00876553 -0.00097364
C 9.21397565 27.65264726 7.86630735 -0.00125817 -0.00604121 0.00467829
C 2.87936278 25.28555797 7.86873554 0.00131234 -0.00141429 0.00194011
C 34.10773656 20.77305912 10.57788015 0.00301664 0.00633331 0.00482647
C 2.25939928 21.95697208 11.07499690 -0.00093480 0.00072695 -0.00024464
C 8.42283240 26.61018838 7.45056963 0.00189963 0.00088586 -0.00463096
C 1.89630160 26.24508118 7.49707498 0.00546676 -0.00032965 0.00045189
C -4.19372036 21.60811040 10.97034292 0.00367004 -0.00656665 -0.00143876
C 1.96857504 21.05244315 12.11474926 -0.00442350 -0.00041607 -0.00509992
C 8.63261343 25.82151532 6.26578565 0.00297360 -0.00408127 -0.00419457
C 2.03223202 26.92528896 6.28076941 0.00323955 0.01056414 0.00443245
C -4.40534671 22.46127721 12.10821442 -0.00173076 -0.00241402 -0.00276499
C 4.13182581 21.35758536 6.87067000 -0.00637195 -0.00583220 0.00632977
C 6.58615186 26.07026853 11.59304361 0.00413568 -0.00206341 0.00031937
C -0.02896965 26.86097821 11.57341510 -0.00735166 0.00036020 -0.00488365
C -2.50310227 22.13680633 6.78042353 -0.00190095 -0.01134329 0.00220352
C 3.11550366 22.18134559 6.41778138 -0.00372404 -0.00162695 -0.00148309
C -5.55608348 27.11939664 11.92541762 0.00266037 0.00339260 -0.00882970
C 0.99000319 26.05823088 12.03993528 -0.00643979 -0.00389252 0.00061205
C 9.70679531 21.03903247 6.19720484 0.00152878 -0.00142325 -0.00542993
C -1.03622353 24.52505480 9.87471945 0.00185657 0.00322263 -0.00081504
C -1.45750549 19.52644049 8.95515244 0.00464110 -0.00101029 0.00602571
C 5.28468975 23.80234586 8.72526351 0.00083320 0.00880084 0.00620137
C 5.30926773 28.72170348 9.83880375 -0.00047857 -0.00375545 -0.00435834
C -2.31586138 25.28072706 9.68196722 -0.00552982 -0.00880584 0.00797892
C -0.17757387 20.16059817 9.39920078 -0.00337284 -0.00193013 0.00111559
C 6.45166361 22.82037861 8.74972731 0.00565496 -0.00555329 0.01228695
C 4.07405112 27.95408959 9.53360708 -0.00103437 0.00166512 -0.00179070
C -2.86786021 22.99928223 17.42616927 0.00359106 0.00069453 0.00333339
C -5.84638428 27.86708841 13.04058742 -0.00602352 0.00025312 0.00254830
C 0.79874846 25.19575762 13.13963743 -0.00578777 -0.00442519 -0.00421078
C 3.61616670 20.43897294 17.28643252 0.00659955 -0.00425261 0.00406742
C -1.67856234 22.86571322 16.67184705 0.00114244 0.00709543 0.00396732
C 6.23048200 27.68245789 13.80396000 0.00628476 0.00215767 -0.00336298
C -0.37440699 25.41710090 13.89289254 0.00837324 -0.00475525 -0.00044302
C 31.12202575 20.53569153 16.62964472 -0.00989178 -0.00310743 -0.00305639
C -0.66654650 21.97511992 17.07470481 0.00436986 0.00314857 0.00423210
C 5.28498236 26.77037724 13.43629615 0.00029160 -0.00052813 -0.00269940
C -1.39884832 26.19792907 13.42638414 -0.00361263 -0.00580359 0.00402944
C -7.24028827 21.36983076 17.06771489 -0.00114042 0.00087137 -0.00167594
C -0.76197317 21.35286854 18.34694077 -0.00443205 -0.00324209 0.00135673
C 5.36446618 25.95093259 12.32048753 0.00240548 -0.00420628 0.00511742
C -1.21494632 26.93999404 12.23574044 0.00115701 0.00761278 0.00616565
C -7.31631919 22.10236448 18.24713031 -0.00312134 0.00056603 -0.00095177
C 0.78804869 21.23602571 12.80477830 -0.00143123 -0.00088655 0.00163737
C 3.97422529 26.20653630 17.92303850 0.01081148 -0.00151480 -0.00908322
C -2.79439098 26.87968202 17.85998895 -0.00631785 0.00588988 0.00253869
C -5.63526212 22.48507805 12.77289153 -0.00615812 -0.00508731 -0.00819168
C -0.07771629 22.22857123 12.54294094 0.00605345 0.00283775 0.00197302
C -8.33156224 26.86067141 18.38764730 -0.00091186 0.00353357 0.00023110
C -1.77130157 26.01000646 18.20995185 0.00106725 -0.00267521 -0.00555405
C 6.55895262 21.22887437 12.40790956 -0.00138662 0.01404989 -0.00326572
C -4.14026087 24.34964842 15.79586709 0.00184732 -0.00063858 -0.00165604
C -4.45742650 19.56158747 14.57414704 0.00286304 0.00592250 0.00669812
C 2.19965375 23.89074276 14.76460368 0.00096608 -0.00383647 -0.00509212
C 2.63200903 28.81033197 15.92827680 0.00015885 -0.00324123 0.00118032
C -5.41469763 25.14070988 15.56608183 -0.00315655 -0.00899717 0.00609116
C -3.30603630 20.50312863 14.68060196 -0.00648757 0.00203444 -0.00147172
C 3.48099249 23.21699279 14.94497705 0.00216834 -0.00633080 -0.00799643
C 1.38574818 27.99995021 15.85956621 -0.00180492 0.00364750 -0.00296942
C -6.12256167 23.00329573 23.44498532 0.00106795 -0.00625971 0.00321836
C -8.63931570 27.79878275 19.32221885 0.00787398 0.00303753 -0.00060031
C -1.93045864 25.23956900 19.34642150 -0.00148501 -0.00129746 -0.00454425
C 0.62148099 20.47817138 23.34550038 -0.00201354 -0.00154212 0.00024957
C -4.89625522 22.90479530 22.76672442 0.00108532 -0.00386688 -0.01140823
C 3.26952203 27.82183510 20.04358059 0.00503630 0.00079221 -0.00364785
C -3.16249291 25.24928175 20.04454364 0.00254359 -0.00400889 -0.00318847
C -11.10819837 20.62294949 22.82467092 -0.00355555 -0.00335577 0.00688323
C -3.86191033 22.12467968 23.17507246 -0.00940204 -0.00245397 -0.00572227
C 2.35825627 26.93853099 19.58106355 0.00175517 -0.00079666 -0.00399072
C -4.23725853 25.87210247 19.52358554 -0.00145339 0.00091296 0.00203760
C -10.18631780 21.53531481 23.29949932 -0.01190453 0.00023956 -0.00180527
C -4.00649727 21.29127550 24.31259779 0.00510226 0.00854456 0.00655531
C 2.74185685 26.07172808 18.52337875 -0.00095507 0.00119790 0.00269121
C -4.05355168 26.77818299 18.43500454 0.00479205 0.00636570 -0.00237932
C 1.60105687 22.22447858 0.10037955 0.00566986 0.00494666 -0.00348042
C -2.03531441 21.42959441 19.06656616 0.00455773 -0.00302087 -0.00198981
C 0.79521635 26.13019116 24.08718538 -0.00485125 -0.00090855 0.00230750
C -5.67379060 26.95241311 23.98166524 -0.00059756 0.00654748 0.00155834
C -8.54319122 22.03438741 18.95550324 0.00947706 -0.01139017 -0.00006598
C -2.95652575 22.27564528 18.64709887 0.00045929 0.00156266 -0.00560965
C -11.40708808 26.94419067 24.36213944 0.00199282 0.00303821 -0.00368328
C -4.75964475 25.99313916 24.33684903 -0.00501146 -0.00098108 -0.00501889
C 3.40516840 21.31472093 18.25613836 0.00585804 -0.00232049 -0.00224917
C -7.33827930 24.38573256 21.92064655 0.00585036 -0.00198882 -0.00149816
C -7.40493456 19.57013578 20.98574721 -0.00127300 -0.00260677 -0.00392391
C -0.68156357 24.01310047 20.99302231 0.00017221 -0.00180027 -0.00385870
C -0.44045408 28.69751643 21.78202163 0.00443036 0.00076521 0.00714009
C -8.54241310 25.22778582 21.83829354 -0.00438727 -0.00091667 0.00197941
C -6.40513234 20.75921390 21.24536525 -0.00360017 -0.00017867 0.00255582
C 0.72772339 23.45596598 21.07858148 0.00264162 0.00675681 -0.00235768
C -1.63651831 27.75353050 21.53344277 0.00069389 -0.00136038 -0.00122317
C 16.39093106 3.69449347 5.29172250 0.00294073 0.00193850 0.00539624
C 13.63958104 8.43573678 0.84305054 0.00358408 -0.00360862 -0.00094246
C 20.15052774 5.89885387 1.06315881 0.00501965 0.00440738 0.00036413
C 22.80143181 0.88397338 5.10800463 0.00659973 0.00372703 0.00344183
C 17.55544971 3.54366216 4.53592785 0.00223542 0.00440253 0.00609331
C 25.51675835 8.51698856 1.60543474 -0.00142892 0.00174387 -0.00126067
C 18.89074346 6.05574089 1.61937539 0.00103488 0.00290462 -0.00232636
C 10.78733743 1.39712220 4.43675080 0.00597803 0.00204415 0.00192506
C 18.58834015 2.76881854 4.98134775 -0.00007597 -0.00371823 -0.00585001
C 24.60044185 7.60980272 1.12742577 -0.00228350 -0.00025646 0.01006883
C 17.89040612 6.86764180 1.15497504 -0.00323836 0.01141186 0.00615537
C 11.56313344 2.44930610 4.77206587 0.00194729 -0.00139378 0.00447145
C 18.44104586 1.97516265 6.10128893 0.00307145 0.00885962 -0.00940182
C 12.60404408 7.00167686 24.21387974 -0.00036610 -0.00973284 -0.00497294
C 18.09853093 7.65786613 0.04029434 -0.00579035 0.00143223 0.00154281
C 11.41597957 3.18064313 5.92502033 0.00445991 -0.00267283 0.00381143
C 20.28691142 1.95044885 0.48500875 0.00418730 0.00392947 -0.00137208
C 23.10049223 6.80734457 5.34506634 -0.00094994 -0.00266987 -0.00262961
C 16.45947238 7.60616726 5.69134967 -0.00599126 -0.00217325 -0.00256922
C 13.36715575 2.81632521 0.46432491 0.00076598 -0.00603071 0.00090931
C 19.25437459 2.72878335 0.07697273 -0.00427267 -0.00515605 0.00259500
C 10.75100241 7.75647196 5.90374008 0.00077761 0.00410891 0.01322641
C 17.36115373 6.68326302 6.10479807 -0.00212424 -0.00169374 0.00122637
C 25.77858816 1.83952068 0.16910624 -0.00640790 -0.00853924 0.00161464
C 15.16489896 4.88580979 3.58397609 0.00082481 -0.00076291 0.00766498
C 14.70283065 0.51632502 2.64320398 -0.00109148 -0.00533256 -0.00003977
C 21.39659557 4.62409417 2.73288315 -0.00263971 0.00619310 -0.00149385
C 21.81745370 9.32526861 3.18255865 -0.00643265 -0.00871903 -0.00666205
C 14.19474665 5.97450678 3.29510575 -0.00323605 -0.00165816 -0.00048593
C 16.04071879 1.19378206 2.96929279 0.00203133 0.00673209 -0.00596027
C 22.68557976 3.93480400 2.91185809 -0.00212008 0.00003608 -0.01110684