2880
Time=88000.00000005 pbc="T T T" Lattice="39.41735550 0.00000000 0.00000000 0.00000000 28.82241195 0.00000000 -12.04098841 0.00000000 24.45443772" energy=-18399.51523805 virial="-1.56219819 17.07375258 -49.02101750 17.07375258 -9.66139636 16.64142498 -49.02101750 16.64142498 -27.93213740" stress="0.00242165 0.00059383 -0.00178644 0.00059383 0.00211712 0.00068566 -0.00178644 0.00068566 0.00151436" Properties=species:S:1:pos:R:3:vel:R:3
C 3.30384051 3.84125523 5.16510766 0.00584828 -0.00074807 -0.00154688
C 0.31819652 8.55301058 1.03577637 0.00664233 0.01112534 -0.00026264
C 6.92855308 6.02322307 0.88651633 0.00110996 -0.00255619 0.00290618
C 9.60253559 1.16914863 5.00185038 0.00924596 0.00589570 0.00382216
C 4.54204696 3.71495557 4.49638526 0.00171250 0.00290109 -0.00227360
C 12.39369743 8.51066571 1.33387067 -0.00194389 -0.00684544 -0.00160933
C 5.71075427 6.04196158 1.57608166 -0.00735000 -0.00663660 0.00618457
C -2.14374787 1.34858109 4.50069987 -0.00605902 0.00168455 0.00100449
C 5.40260566 2.70804187 4.86774260 0.00076318 -0.00314091 0.00116142
C 11.42596772 7.56539031 1.01893866 0.00310493 0.00303307 -0.00471090
C 4.78382591 6.91214466 1.25885321 -0.00797022 0.00589547 -0.00180915
C -1.03703261 2.08667501 5.00647331 -0.00308810 -0.00113580 -0.00273897
C 5.22351798 1.92826733 6.03044487 0.00468713 0.00314419 -0.00038259
C -0.39094692 6.73518140 24.37897610 0.00272047 0.00055334 -0.00355967
C 4.87080549 7.77453528 0.07509178 0.00318191 0.00247017 -0.00332764
C -1.24596663 3.08867607 5.92015111 -0.00504186 0.00069535 -0.00385180
C 7.14626571 2.21081344 0.53602191 0.00486847 -0.00420976 -0.00082100
C 9.59143515 6.84378840 5.37536626 0.00290895 -0.00534143 -0.00137650
C 3.07052585 7.67008070 5.51034636 -0.00700919 0.00029787 0.00924413
C 0.55214775 2.94306427 0.45513528 0.00526701 -0.00553426 -0.00806557
C 6.18009278 3.10778609 0.07093094 0.00200444 -0.00678550 -0.00232180
C -2.31315109 7.91951982 5.89618999 -0.00535241 -0.00311637 0.00470278
C 4.15800519 6.94578977 6.01103184 0.00011895 -0.00105256 0.00012867
C 12.49193650 1.87302064 0.01859733 -0.00411096 0.00221050 -0.00395527
C 2.11013345 5.13177388 3.41816895 -0.00403590 0.00926236 0.00165999
C 1.80981111 0.53283047 2.54328337 -0.00446064 0.00195312 0.00474391
C 8.20352269 4.70174066 2.47740818 0.00125969 -0.00230187 -0.00551541
C 8.74984471 9.38720374 3.29987244 -0.00365706 0.00876095 -0.00540891
C 0.84176429 5.93143369 3.26435022 -0.00280388 -0.00060989 -0.00000283
C 2.86175589 1.61477436 2.68202358 0.00035391 -0.00179061 -0.00408208
C 9.52201404 3.98769206 2.64225736 -0.00366262 0.00110065 0.00304363
C 7.61194657 8.34188009 2.99773782 -0.00327013 -0.00183332 -0.00159511
C 0.06607804 3.72880746 11.09705253 -0.00424244 0.00338809 0.00125007
C -2.48706990 8.70847063 7.03225230 -0.00418209 0.00378191 -0.00137203
C 3.99722258 6.06854398 7.06184893 0.00054678 0.00482667 0.00140001
C 6.72672455 1.00549542 11.31243773 0.00467699 -0.00277375 -0.00145739
C 1.32694523 3.60250696 10.49914171 -0.00359363 0.00540353 -0.00049896
C 9.25564654 8.43851995 7.63249906 0.00896914 0.00888989 0.00674741
C 2.77394537 6.13288065 7.81836511 -0.00623736 -0.00673973 -0.00542754
C -5.13488474 1.10607162 10.59418320 0.00511157 0.00073770 0.00232387
C 2.30259410 2.78731044 11.03476320 -0.00160159 0.00298522 0.00424633
C 8.34393591 7.41822538 7.41845094 -0.00369922 -0.00162282 -0.00126829
C 1.75123681 6.99790758 7.46705978 -0.00075292 -0.00746299 0.00375425
C -4.17779256 2.02220151 10.96334411 0.00052637 0.00326555 0.00436877
C 2.01414928 1.96040894 12.12554956 0.00609340 -0.00228957 -0.00194881
C 8.50040861 6.64100091 6.21469398 0.00054765 -0.00173470 -0.00302217
C 1.87910720 7.74807006 6.26809386 -0.00461483 -0.00249132 -0.00523566
C -4.38923593 2.83829263 12.11409455 0.00105618 0.00363825 0.00026683
C 4.02053958 2.17760470 6.77494043 -0.00524244 0.00393891 -0.00068080
C 6.91563510 6.57907517 11.83702749 -0.00345900 0.00015904 -0.00403368
C 0.10113967 7.62790700 11.57502565 0.00023448 -0.00463867 0.00025268
C -2.52090911 3.12524931 6.57454923 -0.00165135 -0.00868810 0.00431807
C 3.11600487 3.12609463 6.32917442 0.00307451 -0.00037381 -0.00542875
C -5.47520241 7.67767058 12.14460959 -0.00273117 0.00354422 0.00549372
C 1.10031984 6.74091918 11.89946315 0.00091665 0.00013767 -0.00179097
C 9.37308800 1.97371506 6.11591283 0.00172201 0.00128016 -0.00366514
C -1.15674528 5.18199075 9.47105288 0.00077819 -0.00370994 0.00021512
C -1.30645419 0.28300180 8.66804418 0.00513449 0.00494428 0.00159586
C 5.31260016 4.70958066 8.77132053 0.00107918 -0.00120709 0.00688929
C 5.76249281 9.43613785 9.47989579 0.00056921 -0.01209644 0.00135436
C -2.36500918 6.07700748 9.28180901 -0.00377600 -0.00635756 0.00855901
C -0.08909961 1.14448335 8.75472548 -0.00575639 -0.00811179 -0.00602574
C 6.59385130 3.92030280 9.01912969 0.00594286 -0.00060393 -0.00415884
C 4.55988548 8.58853497 9.21631632 0.00687049 0.00305668 0.00543990
C -2.92728391 3.56672812 17.52314914 -0.00368832 -0.00238212 -0.00396005
C -5.67562083 8.49830874 13.23350873 -0.00628764 -0.00243118 -0.00040736
C 0.94151108 5.93812142 13.03134764 0.00636896 0.00435398 -0.00984363
C 3.60233663 1.07826024 17.45944909 -0.00037595 0.00307469 -0.00528830
C -1.69807883 3.56240268 16.83269586 -0.00807119 0.00054548 0.00583124
C 6.14828663 8.53443382 13.77578774 -0.00026733 0.00292256 -0.00133594
C -0.27225617 6.04485057 13.75758371 0.00329469 -0.00172024 0.00007664
C 30.97862430 1.14665266 16.55264601 0.00294672 -0.00118913 0.01220707
C -0.66208883 2.69001474 17.26575566 -0.00326486 0.00826386 0.00607748
C 5.32106233 7.53759137 13.36912079 -0.00385010 -0.00127192 0.00209257
C -1.25426942 6.88315849 13.31607572 0.00590481 0.00254646 -0.00489310
C -7.41901550 1.90534594 17.08785588 0.00108823 -0.00257790 -0.00346219
C -0.69444365 1.76111312 18.32951648 0.00406952 0.01175366 -0.00089182
C 5.61075957 6.56312253 12.39341065 0.00215222 -0.00117807 0.00045144
C -1.13869885 7.70905184 12.18208672 -0.00221108 0.00106875 0.00113683
C -7.61453983 2.67214303 18.24311441 -0.00099590 0.00461873 0.00449410
C 0.74298582 2.09731438 12.74781681 -0.00494933 0.00542619 -0.00427408
C 3.62019252 6.74741821 17.63843965 -0.01327006 -0.00410235 -0.00313759
C -2.98600353 7.62527393 17.64935726 0.00320358 -0.00474317 0.00144815
C -5.66662687 2.76503460 12.72723568 -0.00256086 0.00307504 -0.00035737
C -0.20195999 2.94534266 12.25171174 -0.00256037 0.00436957 0.00125950
C -8.55454382 7.79910860 17.98329536 -0.00240729 0.00188349 -0.00194979
C -1.97675249 6.84678398 18.09815932 0.00157962 0.00601715 -0.00118705
C 6.61997092 1.83802419 12.43645692 0.00090828 -0.00737018 0.00453187
C -4.14559898 4.71314915 15.87132439 -0.00251773 -0.00471573 -0.00098421
C -4.48166779 0.20102230 14.85056949 0.00545398 -0.00147010 -0.00042697
C 2.21030511 4.60336208 14.57335440 -0.00383415 0.00078468 -0.00589117
C 2.54499170 9.46723678 15.45647499 -0.00579974 -0.00425111 -0.00339698
C -5.37642176 5.52412351 15.76319203 -0.00216041 -0.00292547 0.00022309
C -3.23887538 0.95316520 15.28998573 0.00468599 -0.00125808 0.00087624
C 3.37511750 3.69778763 14.64602248 0.00278669 -0.00135370 -0.00059164
C 1.46033889 8.48948448 15.18132299 -0.00019634 0.00724422 -0.00703748
C -5.75167242 3.82898829 23.37293337 -0.00225700 -0.00244442 -0.00217534
C -8.56235645 8.55604238 19.15690299 -0.00675763 0.00297847 -0.00283177
C -2.09209048 6.09041596 19.27005548 0.00634091 0.00180716 -0.00300805
C 0.72406979 1.02258169 23.37522231 0.00035647 -0.00575759 0.00219772
C -4.48203456 3.74739901 22.68823733 -0.00190966 -0.00013069 -0.00019057
C 3.29514684 8.41111593 19.87036777 -0.00281859 -0.00452524 -0.00110793
C -3.32464425 6.07311044 19.88743936 -0.00101824 0.00374407 -0.00450924
C -10.98178264 1.23125141 22.75502343 0.00062420 0.00291300 0.00206065
C -3.46227969 2.99344375 23.20725812 0.00021653 0.00838796 -0.00872106
C 2.41134695 7.39449306 19.60429911 -0.00065121 -0.00073604 -0.00364658
C -4.31301116 6.98705844 19.54540267 0.00910884 -0.00777684 -0.01329072
C -10.11305039 2.22141178 23.01132219 -0.00383068 0.00257593 -0.00677989
C -3.72628096 2.09082155 24.25574798 -0.00870777 0.00338753 0.00130064
C 2.57381979 6.52793536 18.52170968 -0.00534792 0.00239712 -0.01053903
C -4.20077709 7.63933148 18.35362311 -0.00442660 0.00303807 -0.00036065
C -10.30191564 3.08626776 24.13315806 0.00003398 0.00211708 -0.00364816
C -2.02854496 1.83582639 19.02499037 -0.00035985 -0.00321812 -0.00214047
C 0.81176586 6.85702915 23.59799373 -0.00065920 0.00366475 -0.00263412
C -5.96651251 7.63911532 23.80530267 0.00377894 0.00295636 0.00544463
C -8.88575616 2.59946095 18.95837029 -0.00285329 -0.00391916 -0.00313416
C -3.03328007 2.73505046 18.67300310 0.00033032 0.00383784 0.00314464
C -11.46923132 7.72588425 24.39772009 0.00288177 -0.00298121 -0.00148226
C -4.96171378 6.75352395 24.17093286 -0.00032466 0.00293697 -0.00147953
C 3.42312224 1.89049639 18.60162488 -0.00242591 -0.00257111 -0.00712826
C -6.85881700 5.08214885 21.66482323 -0.00580790 -0.00114789 0.00126649
C -7.63001512 0.26039389 20.90047778 0.00340728 -0.00924961 0.00164999
C -0.93185794 4.82731797 20.92862803 0.00011068 0.00461266 0.00467973
C -0.51738288 9.27455562 22.03555421 0.00833498 -0.00605294 -0.00567844
C -7.95810110 6.07932590 21.40540180 -0.00124455 0.00344128 0.00388242
C -6.46919308 1.25958455 21.11055605 0.00343951 -0.00086892 0.00029685
C 0.40390721 4.20294307 21.22544391 -0.00175873 -0.00692365 -0.00064276
C -1.74709189 8.50090333 21.92102346 -0.00232194 -0.00300975 0.00034918
C 3.21156499 13.23192287 5.02044879 0.00407094 0.00213551 0.00232534
C 0.50999845 18.18822804 0.98037324 -0.00532928 0.00197200 -0.00500188
C 6.83915010 15.57935373 0.88752531 0.00230155 0.00067053 -0.00733232
C 9.82322864 10.66883477 5.04195087 -0.00211270 -0.00425893 -0.00145050
C 4.38826974 13.33308355 4.32674758 0.00058614 0.00198534 0.00298851
C 12.50799682 18.02093733 1.81646713 -0.00234763 -0.00305970 0.00103818
C 5.52743574 15.66346531 1.49930233 -0.00089447 0.00573546 0.00278555
C -2.21226117 10.86236616 4.51270821 -0.00522481 -0.00683872 -0.00303945
C 5.49946294 12.62795363 4.76462182 0.00220276 0.00597390 -0.00264585
C 11.50300859 17.15392378 1.42420345 -0.00222077 0.00416921 -0.00095727
C 4.64968705 16.61909813 1.01794663 0.00238574 -0.00443304 -0.00918127
C -1.21713141 11.79902602 4.86401301 0.00052099 -0.00356007 -0.00101585
C 5.32101538 11.67809815 5.83295048 0.00032688 -0.00097375 0.00463214
C 11.64425859 16.28274988 0.26903521 0.00031735 0.00109789 -0.00130466
C -7.06927664 17.36817744 24.33933958 0.00176036 0.00561541 -0.00073203
C -1.34922028 12.55675928 6.02145588 0.00032386 0.00009768 -0.00295582
C 6.96052471 11.75396950 0.36395632 0.00369429 0.00578785 0.00188933
C 9.84598157 16.39484424 5.75546194 0.00863192 0.00264089 -0.00357392
C 2.87133309 16.95152479 5.34668533 0.00260698 -0.00116531 0.00241199
C 0.08082339 12.58278260 0.73189677 0.00255670 -0.00124551 0.00497040
C -6.16158361 12.50004811 24.35014311 0.00117599 -0.00052593 -0.00265240
C -2.54543041 17.21334827 5.90233118 -0.00399446 -0.00468559 -0.00201511
C 3.95914786 16.24534731 5.76173015 0.00168334 0.00948951 -0.00116619
C 12.62642088 11.54322853 0.21759407 -0.00245200 -0.00045175 -0.00073990
C 1.80493184 14.50878501 3.50226321 0.00388857 -0.00296537 -0.00274913
C 1.43499269 9.95203946 2.60533105 -0.00117281 0.00202879 0.00019578
C 8.11117736 14.31828952 2.51974009 -0.00533435 -0.00204793 -0.00177860
C 8.54605663 18.80576143 3.34012084 0.00039727 -0.00181873 -0.00050476
C 0.45267680 15.10952172 3.28303133 0.00112626 0.00297121 -0.00610752
C 2.61807687 10.93114436 2.84453312 0.00430892 -0.00177645 0.00080271
C 9.29226095 13.39309317 2.69762874 -0.00261341 0.00675321 0.00527008
C 7.48715648 17.76506317 3.15596881 -0.00097475 -0.00479544 -0.00092955
C 0.13540630 13.22058123 11.15284374 0.00354926 0.00300198 -0.00290556
C -2.72084655 18.06034780 7.04463564 0.00128189 0.00117666 -0.00190622
C 3.87257845 15.48337660 6.96599796 0.00840520 -0.00558628 0.00304379
C 6.87556788 10.62265204 11.37445351 -0.00273850 0.00158946 0.00044812
C 1.38948567 13.18615911 10.46863818 -0.00681673 -0.00476019 0.00154546
C 9.24625803 18.17954652 7.71189082 -0.00156006 0.00652371 0.01034267
C 2.69231464 15.66039940 7.72563766 -0.00267624 -0.00034389 -0.00385787
C 33.99955939 10.76304375 10.46452475 0.00866111 0.00067326 0.00388485
C 2.31609550 12.25465384 10.72489681 0.00601721 -0.00381025 -0.00427558
C 8.20852862 17.46875448 7.24123161 -0.00111982 0.00449049 -0.00823620
C 1.61794080 16.33242587 7.26732528 0.00432161 -0.00219262 0.00232477
C -4.31052823 11.52712847 10.97712597 0.00143784 0.01049955 0.00954073
C 2.24092786 11.31235259 11.77785379 0.00800887 0.00271556 0.00421246
C 8.56190628 16.44409509 6.24610212 0.00272927 0.00347007 0.00447311
C 1.63045273 16.93672503 5.98699190 -0.00193942 0.00500860 -0.00006350
C -4.49592353 12.43181790 12.01540058 0.00209786 -0.00516333 0.00625824
C 4.12019285 11.51549371 6.49692448 -0.00136373 0.00451735 0.00399248
C 6.80080061 16.44828855 11.73713603 -0.00278118 0.00153775 0.00315486
C -0.00543032 17.07001929 11.43279880 0.00294127 0.00889451 -0.00419058
C -2.62319564 12.48269659 6.75590387 -0.00294359 0.00290216 0.00632713
C 3.04560655 12.26946151 6.06865228 0.00256914 -0.00465211 0.00303053
C -5.50872198 17.42827074 12.11103436 -0.00287697 0.00099730 0.00094850
C 1.10606613 16.35686365 11.95061039 0.00658657 -0.00041025 0.00306936
C 9.46921927 11.57464790 6.00225166 0.00320121 -0.00167936 -0.00236615
C -1.21261608 14.67346915 9.87384800 -0.00128243 0.00328262 0.00050897
C -1.23756200 9.92048966 8.70713646 -0.00026152 0.00318101 0.01319926
C 5.21711742 14.22612047 8.50298785 0.00578197 -0.00022849 0.00008760
C 5.56594317 19.18955291 9.53737095 -0.00326671 -0.00318371 0.00150293
C -2.48938441 15.35168024 9.65207545 0.00924842 0.00207143 0.01150667
C 0.05474305 10.71607519 8.95215263 0.00175200 -0.00160338 0.00383046
C 6.59640089 13.56519906 8.65859150 -0.00263909 -0.00221171 0.00548659
C 4.53949657 18.12697772 9.22897482 0.00219747 0.00205018 0.00809826
C -2.59861096 13.44927437 17.38874107 0.00077274 0.00105456 -0.00167189
C -5.61500493 18.19470845 13.27071291 -0.00005817 0.00067801 -0.00530994
C 1.00066643 15.52455581 13.13118635 0.00832049 0.00127803 -0.00634283
C 3.60368488 10.82091677 17.23857599 0.00090782 -0.00321229 0.00245236
C -1.41609451 13.27947908 16.63649248 0.00481153 -0.00566687 0.00185038
C 6.40097238 18.05031048 13.93814584 0.00470378 -0.00551199 0.00088934
C -0.26457007 15.68538416 13.77722816 0.00304689 0.00112272 -0.00256404
C 31.14311675 10.77818961 16.70716333 -0.00184302 0.00556098 0.00370965
C -0.45814703 12.45125864 17.18940855 0.00638695 -0.00318118 0.00269969
C 5.32342231 17.19083638 13.50851733 -0.00170060 0.00542670 0.00536057
C -1.31679237 16.33019639 13.29269914 0.00516440 0.00300838 0.00609315
C -7.28438633 11.66821526 16.99883805 0.00183433 0.00547078 0.00014315
C -0.70420342 11.63715799 18.30005304 0.00013336 0.00036536 -0.00167814
C 5.52242492 16.32008420 12.37473019 0.00199413 0.00409696 0.00042345
C -1.22278118 17.07055037 12.09585587 0.00245997 0.00422575 0.00935960
C -7.36957155 12.53752569 18.09009878 0.00204967 -0.00344550 -0.00356082
C 1.11697965 11.45713838 12.55099111 -0.00230809 -0.00501836 -0.00354726
C 4.02465211 16.29132237 17.84662072 -0.00612775 0.00793610 0.00708093
C -2.54329379 17.39860206 18.07932868 0.00357708 0.00750976 0.00281576
C -5.72337034 12.49225858 12.67400009 -0.00608761 0.00248618 -0.00479634
C 0.10476532 12.31346648 12.27759090 -0.00139957 0.00130026 -0.00457705
C -8.39629187 17.38205552 17.96539323 -0.00296303 0.00843872 -0.00235995
C -1.57522628 16.52441903 18.51712125 -0.00073813 -0.00224509 -0.00252334
C 6.54175619 11.52550097 12.41796036 -0.00837421 -0.00010697 0.00159279
C -4.00717544 14.55964803 15.73287877 0.00339253 0.00095195 0.00329362
C -4.49415311 9.83303448 14.77412820 0.00001341 0.00112702 0.00711152
C 2.19462654 14.08076746 14.71650074 0.00594648 -0.00229101 0.00037728
C 2.49741643 18.80322776 15.89831488 0.00396623 0.00120241 -0.00176851
C -5.24717120 15.34108971 15.40053317 0.00524653 -0.00702342 -0.00495292
C -3.29324196 10.75055411 14.92813043 0.00472219 -0.00248441 0.00252878
C 3.37008282 13.21601215 14.86259801 0.00265982 -0.00221583 -0.00420393
C 1.21337095 17.99180276 15.62632324 -0.00199944 -0.00177239 0.00370468
C -5.92655102 13.41983788 23.36904907 0.00889948 -0.00305431 0.00143783
C -8.51807741 18.16738481 19.15224315 -0.00335244 0.00286507 0.00623873
C -1.81394709 15.55996091 19.51618306 -0.00243432 0.00522966 0.00024476
C 0.75235539 10.71615065 23.54349318 -0.00286669 0.00112217 0.00215050
C -4.65189172 13.40549651 22.76694608 -0.00299855 0.00352753 0.00480675
C 3.43120996 17.88948021 20.05212173 0.00761857 0.00296736 -0.00039635
C -3.05431202 15.48181943 20.10197933 0.00238288 0.00084571 -0.00701085
C 28.02373416 11.03618017 22.93305597 -0.00304215 -0.00085231 0.00326579
C -3.64830238 12.58381148 23.12669021 0.00343538 -0.00967803 0.00296397
C 2.53993886 16.93983534 19.66874964 -0.00710970 -0.00015902 -0.00421901
C -3.98140756 16.46271900 19.75646379 0.00310036 0.00299427 0.00485622
C -10.51819372 11.97499557 23.36760902 -0.00499498 0.00004385 -0.00251100
C -3.90611927 11.63950239 24.12756132 -0.00266251 -0.00006498 0.00117906
C 2.76700877 16.13994518 18.51240619 -0.00294804 -0.00307071 0.00120927
C -3.77969675 17.34509780 18.68137413 -0.00223102 0.00024766 -0.00557656
C -10.75027943 12.79814161 24.44313456 -0.00202147 0.00347012 -0.00096204
C -1.91151410 11.85527339 19.00906276 0.00381097 -0.00830642 -0.00158609
C 0.85679067 16.30587120 24.05203103 -0.00077098 -0.00385133 0.00147975
C -5.83120464 17.32771951 23.76070845 0.00297996 -0.00285913 0.00249777
C -8.51769415 12.50681272 18.92792063 0.00156394 0.00073092 -0.00285784
C -2.81690946 12.77118729 18.56873713 0.00494581 0.00414814 -0.00044119
C -11.35488518 17.35666512 24.31165511 0.00554764 -0.00135711 0.00075240
C -4.90100206 16.40743354 24.27616590 0.00933457 -0.00239609 -0.00948894
C 3.38693212 11.42366773 18.47115301 -0.00120878 0.00701311 0.00555342
C -7.03337374 14.78569945 21.69853935 0.00362858 0.00058214 0.00220958
C -7.28410329 9.83102237 20.83288284 -0.00256697 -0.00477470 -0.00273594
C -0.67623238 14.03473307 21.06414207 -0.00535040 -0.00466782 0.00126969
C -0.45143055 18.83468074 22.00905769 -0.00526678 -0.00004243 -0.00755833
C -8.28275904 15.62110272 21.57798730 -0.00068199 -0.00124811 -0.00198656
C -6.20678599 10.80900179 20.95243661 0.00034637 -0.00447117 -0.00270918
C 0.43287963 13.09917814 21.15305182 -0.00246340 -0.00202501 -0.00246772
C -1.71518186 18.19450939 21.85252322 0.01037460 0.00165165 0.00382834
C 3.22749895 23.03912730 4.89864578 0.00331305 0.00391756 -0.00213308
C 0.59693790 28.00508417 1.01217888 0.00092326 -0.00124021 0.00232686
C 6.84395837 25.13904339 0.96797292 -0.00014700 0.00791106 0.00312877
C 9.71703990 20.25331829 4.95608586 -0.00495587 0.00180823 0.00019338
C 4.42614837 22.79743573 4.25866625 0.00815931 0.00777325 -0.00669458
C 12.24635306 27.69902521 1.59610909 -0.00560520 -0.00018263 0.00224143
C 5.64020143 25.20212640 1.66162898 -0.00154164 -0.00724800 -0.00289526
C -1.96232419 20.68665109 4.29563229 -0.00192940 0.00398463 -0.01179249
C 5.29749944 21.67483727 4.44263837 -0.00002176 0.00966493 0.00420160
C 11.24285439 26.90521247 1.12654036 -0.00323096 -0.00467879 -0.00511055
C 4.74955146 26.26622423 1.36128061 0.00110133 0.00648261 -0.00422625
C -1.03469270 21.59486503 4.77726880 -0.00473429 0.00370145 -0.00163554
C 5.01757824 21.00929438 5.67798386 -0.00476652 -0.00268360 0.00170434
C 11.44505499 25.94992071 0.08656189 0.00012388 -0.00164666 0.00306342
C 4.96108224 27.10875539 0.28143841 0.00054835 -0.00036429 -0.00211483
C -1.26837594 22.40424099 5.96468665 0.01032826 -0.00054903 -0.00406266
C 7.01870342 21.27824275 0.40727365 -0.00065295 0.00163729 0.00265410
C 9.83447421 26.13324509 5.50743584 0.00091025 -0.00154783 -0.00251162
C 3.35133930 26.82502035 5.62769025 -0.00059048 -0.00206175 0.00205993
C 0.52159838 21.96911928 0.51703471 0.00305868 -0.00056947 -0.00391665
C -6.02317281 22.14234965 24.43558393 0.00273184 0.00463438 -0.00985582
C -2.30506607 27.00623013 5.91770707 0.00242256 -0.00435733 0.00091010
C 4.30082364 25.89367294 5.89013410 0.00200959 -0.00900462 0.00716586
C 12.68382545 21.24088140 0.06795491 -0.00105909 0.00570904 0.00228816
C 2.14243161 24.44135910 3.27369391 0.00337592 -0.00305699 -0.00919277
C 1.73201390 19.63959519 2.56016857 -0.00048311 -0.00210127 -0.00083448
C 8.25595397 23.62130296 2.42075585 -0.00219249 -0.00331444 -0.00106573
C 8.54574404 28.64118875 3.40140915 -0.00271278 -0.00019929 0.00114939
C 0.88184430 25.17810716 3.02701282 -0.00278223 -0.00299738 0.00391748
C 2.91458115 20.58966015 2.74561754 0.00092943 0.00173963 -0.00856578
C 9.62384423 22.94435285 2.42826299 0.00612321 0.00019670 -0.00167562
C 7.38682045 27.67328854 3.17159129 -0.00704362 0.00968397 -0.00707633
C 0.08169559 22.79724433 11.00636653 0.00192450 0.00130144 -0.00177212
C -2.58215661 27.83036612 7.06170760 0.00732721 0.00259548 -0.00228302
C 4.05384803 25.10677315 7.01068573 0.00116211 0.00457797 0.00660079
C 6.77336406 20.24811482 11.30691867 -0.00688152 0.00340436 0.00080352
C 1.33664469 22.77142871 10.37074034 0.00258355 -0.00747115 0.00064564
C 9.42210758 27.91805757 7.54614331 -0.00287997 0.00117331 0.00389905
C 2.85847198 25.19548314 7.77966896 -0.00270187 0.00187218 -0.00085001
C 34.02882173 20.46718997 10.32787652 -0.00200980 0.00570632 0.00049637
C 2.25650816 21.75786924 10.73357568 -0.00264135 0.00336698 -0.00040877
C 8.48425613 27.05323645 7.14862122 -0.01077856 0.00442526 -0.00273625
C 1.84564282 26.02016557 7.38453312 0.00341397 0.00099464 0.00344849
C -4.45223020 21.41714648 10.73216610 -0.00071737 0.00486051 0.00070878
C 2.15165211 20.97948424 11.91336965 0.00554660 0.00450872 -0.00111943
C 8.61505374 26.16285957 6.06758314 0.00222234 0.00502048 -0.00443310
C 2.16037879 26.88911061 6.35454424 -0.00024573 0.00040727 0.00160132
C -4.50840611 22.21148061 11.90305840 0.00229323 -0.00639545 -0.00673376
C 3.75446245 21.18671616 6.31613252 0.00088913 -0.00548506 -0.00475765
C 6.73726575 25.84925917 11.93553468 0.00619234 -0.00065903 0.00327395
C 0.01277818 26.80333864 11.86359362 0.00746836 -0.00192727 0.00540334
C -2.40935443 22.09115961 6.66744805 0.00229994 0.00504749 0.00134192
C 2.88090616 22.18997045 6.04050621 -0.00499241 -0.00409510 0.01203208
C -5.51693835 26.95385773 12.06429691 0.00209329 0.00280625 0.00599043
C 0.98909187 25.87225638 12.20493415 0.00114445 0.00603034 0.00380296
C 9.36265310 21.15611589 5.99601353 0.00321985 -0.00161830 -0.00082450
C -1.12569188 24.31987257 9.59136451 -0.00546696 -0.00126153 0.00164938
C -1.55954835 19.55125957 8.55816812 0.00120611 0.00126413 0.00520736
C 5.42442102 23.83790101 8.57821961 0.01123437 -0.00524039 0.00413217
C 5.45635370 28.44348768 9.75231065 0.00007413 -0.00087288 0.00209756
C -2.29731579 25.20128488 9.56583516 -0.00166300 -0.00443999 0.00022665
C -0.31975855 20.36656082 8.82634409 0.00788868 -0.00545846 0.00181485
C 6.66377404 22.92787794 8.59385762 0.00113699 0.00256645 0.00206210
C 4.37962391 27.45160246 9.64822902 0.00275789 -0.00467111 0.00163838
C -2.64401095 22.77003243 17.20517965 0.00600749 0.00395846 -0.00045919
C -5.71655533 27.74238405 13.15210329 -0.00217961 0.00415963 0.00391879
C 0.82219375 24.96107531 13.30568899 -0.00246316 0.00885444 0.00171966
C 3.66630904 20.24070028 17.31541736 0.00012535 0.00449755 0.00604777
C -1.43200611 22.56082175 16.46449664 0.00072576 0.00467222 0.00145428
C 6.21211729 27.67406134 13.87329818 -0.00560795 -0.00131537 -0.00511450
C -0.28903408 25.22150605 14.02635748 -0.00403897 -0.00395518 -0.00381521
C 31.26521989 20.44185432 16.46543739 0.00114144 0.00055725 -0.00267387
C -0.44375066 21.74191858 17.03116910 0.00464385 0.00713156 0.00004114
C 5.21192168 26.87181202 13.43449690 -0.00078413 -0.00089137 0.00232464
C -1.32384560 26.10343480 13.69153636 -0.00042475 -0.00010396 -0.00131227
C -7.20383960 21.29453138 16.86889278 0.00359039 0.01274217 0.00286186
C -0.63697727 21.07304753 18.23903039 0.00222922 -0.00487401 -0.00016962
C 5.46242609 25.86459751 12.47949063 0.00431744 0.00410930 -0.00249834
C -1.20962426 26.98043331 12.61388004 0.00352849 -0.00114590 -0.00348265
C -7.31029452 22.14004379 18.04244308 -0.00579441 0.00429847 -0.00183735
C 0.87038925 20.96711844 12.48703849 0.00697353 -0.00226841 -0.00247836
C 3.43322668 26.16048492 17.59557785 -0.00109375 -0.00022137 0.00414273
C -2.86546149 26.69692867 17.85231534 -0.00542758 0.00919471 0.00806000
C -5.69183734 22.04948193 12.71819703 -0.00202053 -0.00062144 -0.00094602
C -0.10606280 21.84167552 12.09962891 0.00022829 -0.00427348 -0.00254692
C -8.34430633 26.73977597 18.24626598 0.00378797 -0.00027591 -0.00232855
C -1.82564200 25.90717457 18.27720255 -0.00360294 0.00630318 -0.00153647
C 6.57092156 20.92566286 12.49612600 -0.00164391 0.00045256 0.00265154
C -3.77776072 24.20199006 15.55433953 -0.00717701 -0.00139584 0.00176164
C -4.12958265 19.41720626 14.80139723 -0.00119562 -0.00546846 -0.00455917
C 2.16576089 23.58808946 14.80451186 0.00025022 0.00248402 0.00133436
C 2.31255465 28.57180235 15.86833323 0.00198564 -0.00477952 -0.00665702
C -4.72556925 25.35396172 15.36976340 0.00158155 -0.00034887 0.00126129
C -2.81725730 20.19020188 14.71513325 0.00048720 0.00006349 -0.00812926
C 3.38286036 22.62858956 14.89671065 -0.00522892 0.00368178 0.00289394
C 1.06475780 27.77215152 15.65036734 0.00279592 0.00723117 -0.00348998
C -5.75029850 22.95580394 23.34027852 0.00500464 0.00586419 0.00338705
C -8.65714690 27.64952668 19.29246779 0.00184916 0.00021595 -0.00490572
C -2.01395338 24.96639731 19.31516809 0.00240022 0.00177957 -0.00302001
C 0.84585844 20.24773602 23.54884651 0.00365343 0.00129867 0.00101517
C -4.55201229 22.81834564 22.59304513 0.00439686 -0.00384002 -0.00123184
C 3.33912445 27.49675407 20.07040300 0.00023988 0.00339546 -0.00139445
C -3.26715193 24.92107062 19.95061053 -0.00157896 0.00080756 0.00259027
C 28.04415193 20.49927657 22.61678965 -0.00038199 0.00143461 -0.00593619
C -3.63612346 21.87667394 22.93679996 -0.00140309 0.00357357 0.00416562
C 2.33752903 26.65939529 19.67723532 0.00395787 0.00815433 -0.00564203
C -4.23881564 25.80591718 19.53988614 -0.00386488 -0.00292289 -0.00533252
C -10.33188966 21.25206570 23.02441460 0.00645541 -0.00276421 0.00053033
C -3.88292301 21.02739463 24.04803231 -0.00359557 -0.00677165 -0.00170000
C 2.33893096 26.02226059 18.46200621 0.00252485 0.00396479 0.00087351
C -4.13050099 26.69308922 18.48863845 0.00228012 -0.00732072 -0.00200445
C -10.39142920 21.95366945 24.23086086 0.00652995 -0.00326874 -0.00541532
C -1.87447230 21.21105968 18.84669185 -0.00002959 0.00018769 0.00888753
C 0.68958715 25.96176030 23.85019076 0.00142254 0.00057579 0.00167811
C -5.93678128 26.89579384 23.93946617 -0.00480992 -0.00387002 -0.00051318
C -8.53739690 22.08762381 18.73877943 -0.00733696 -0.00141794 0.00357448
C -2.86782123 21.89989803 18.30360769 -0.00571008 0.00263124 -0.00010856
C -11.23586575 27.07337977 24.36958080 0.00345712 0.00112638 -0.00429770
C -4.96678444 26.03603033 24.35636796 -0.00298388 0.00688645 -0.00671652
C 3.44792589 21.15840736 18.31001007 -0.00172220 0.00223053 -0.00816250
C -6.90752123 24.36924011 21.68001974 0.00287447 0.00085686 -0.00896253
C -7.22767563 19.60655243 20.64733772 -0.00067927 0.00074182 -0.00551370
C -0.73362316 23.66336972 20.94038433 0.00426238 -0.00260023 0.00047913
C -0.47196765 28.37625571 21.86732620 -0.00013199 -0.00332770 0.00355196
C -7.92602830 25.51229375 21.42416616 -0.00074713 -0.00245415 -0.00185294
C -5.92690515 20.41865101 20.75506763 -0.00401843 0.00369375 -0.00104298
C 0.49016108 22.80629213 20.97235071 0.00378062 -0.00630213 0.00013520
C -1.58945917 27.40398546 21.66972759 0.00321242 -0.00066261 0.00444637
C 16.36422786 4.00495175 5.32068497 0.00457804 0.00486481 -0.00439014
C 13.69004542 8.44534934 0.82984808 -0.00435250 0.00013158 0.00756118
C 20.09333974 6.15420433 1.07693960 0.00056830 0.00009606 0.00401969
C 22.79498434 1.08651038 5.37651576 0.00324127 -0.00252851 -0.00328297
C 17.56618538 3.81450708 4.61061572 0.00174279 -0.00248053 -0.00254218
C 25.41183260 8.35249943 1.76121114 0.00180610 0.00585284 0.00176170
C 18.84496980 6.22253220 1.67651829 0.00231839 -0.00572623 0.00014014
C 10.76031175 1.32157805 4.27984293 0.00103712 -0.00132093 0.00028783
C 18.53537678 2.97549089 5.10117213 -0.00257944 0.00043477 0.00687564
C 24.39627878 7.62403165 1.17420319 -0.00468859 -0.00230359 0.00500941
C 17.88394246 7.09123971 1.23115741 -0.00399221 0.00060289 0.00006734
C 11.79464949 2.11268012 4.81532910 0.00609448 -0.00188287 -0.00181104
C 18.31380557 2.16682689 6.30699909 0.00499075 0.00137493 0.00089094
C 24.52989887 6.80855461 0.06447745 0.00158746 0.00419025 0.00007100
C 18.19461679 7.88412093 0.13095245 0.00572182 -0.00932872 -0.00467170
C 11.59035699 2.93054491 5.95939771 0.00158463 0.00476159 0.00174218
C 20.08808425 2.28375604 0.75052317 0.00151400 0.00179986 -0.00175724
C 23.08882656 6.96363880 5.59401111 -0.00360972 -0.00189213 0.00054940
C 16.24325352 7.81266866 5.54484693 -0.00424029 -0.00298922 -0.00446967
C 13.50029788 2.69020850 0.46323840 -0.00673596 0.00313695 0.00048686
C 19.13108857 3.17278993 0.35623976 0.00194023 0.00063038 0.00344043
C 10.64323524 7.64954924 5.80182227 0.00123540 0.00009766 -0.00065132
C 17.23337507 7.00740555 5.94493998 0.00198792 0.00097668 0.00858210
C 25.78368671 2.23769266 0.29015359 0.00123507 0.00599879 -0.00234871
C 14.97200683 5.07739101 3.68654021 -0.00519353 -0.00370280 -0.00401041
C 14.64121290 0.23659661 2.53656733 0.00570929 -0.00274655 0.00046533
C 21.26405969 4.63937297 2.62810929 -0.00638166 0.00462297 0.00037276
C 21.60479269 9.40893975 3.63039326 0.00113887 0.00039824 0.00232173
C 13.57209768 5.67964260 3.63018356 0.00543189 -0.00009797 0.00568741
C 15.91328060 1.16944244 2.73933437 -0.00747255 -0.00223713 -0.00145136
C 22.49759638 3.83881761 2.79408623 -0.00232460 0.00439381 0.00714917