2880
Time=24000.00000000 pbc="T T T" Lattice="39.39907164 0.00000000 0.00000000 0.00000000 28.81265786 0.00000000 -12.02731775 0.00000000 24.39894086" energy=-18396.14432204 virial="-22.35810392 24.99415363 -49.33181324 24.99415363 -25.55601080 5.52772806 -49.33181324 5.52772806 2.51073633" stress="0.00171305 0.00090264 -0.00184442 0.00090264 0.00154819 0.00018660 -0.00184442 0.00018660 0.00244695" Properties=species:S:1:pos:R:3:vel:R:3
C 3.34403847 3.48403796 5.20813518 -0.00580761 0.00742460 -0.00056849
C 0.41804187 8.45965019 1.08049966 0.00166632 -0.00130764 -0.00704312
C 6.86597684 6.15515092 1.07296622 0.00220783 -0.00166862 0.00337657
C 9.76485961 1.03252118 5.01556056 -0.00210699 -0.00151152 -0.00569201
C 4.60798275 3.42082581 4.53383339 0.00747224 -0.00203854 0.00177456
C 12.45526793 8.59903168 1.70341802 0.00199312 -0.00176531 0.00249268
C 5.71543806 6.32750526 1.77993439 0.00259754 0.00496837 -0.00369340
C -2.18839159 1.08481497 4.49966007 0.00091117 0.00618609 0.00093396
C 5.67662266 2.82283399 5.11098185 0.00273415 -0.00210235 0.00501545
C 11.43619104 7.70603792 1.34121316 0.00313600 -0.00133945 0.00162942
C 4.76857602 7.19641849 1.27427085 -0.00070678 -0.00903349 -0.00022440
C -1.21249807 1.96619841 4.94920322 0.00021373 -0.00846961 -0.00415600
C 5.45284773 1.83400845 6.09789093 0.00422847 0.00334374 0.00910215
C 11.65051404 6.81477467 0.23587437 0.00347436 -0.00998338 0.00519439
C 4.89949966 7.83453063 0.07448845 -0.00823012 0.00361274 0.00472263
C -1.42009563 2.78564727 6.06832798 0.00572209 -0.00379463 0.00369970
C 7.12731446 2.24582978 0.85540365 -0.00127263 0.00398244 0.00880320
C 9.65530779 6.78079981 5.62603629 0.00323139 -0.00715803 -0.00205121
C 3.12327100 7.81513022 5.47937045 0.00297790 -0.00353035 -0.00285522
C 0.57866296 2.85661175 0.65969419 -0.00719351 0.00623944 0.00431653
C 6.08237754 3.10019422 0.39394833 0.00192325 -0.00012035 -0.00555440
C -2.32517568 7.75723544 5.94680320 -0.00314422 0.00104139 -0.00128935
C 4.05674868 6.94232528 5.94040666 -0.00255026 -0.00250436 -0.00285236
C 12.49943585 2.02609076 0.16417538 0.01005952 -0.00285728 0.00081084
C 2.10330263 4.99800937 3.75056327 0.00584347 0.00392331 0.00130910
C 1.71245277 0.30162339 2.61601719 -0.00264245 -0.00315412 -0.00222200
C 8.08421008 4.69046671 2.66452623 -0.00505020 -0.00400709 -0.00265631
C 8.54425471 9.19889669 3.56573865 -0.00408344 0.00371829 0.00479005
C 0.87003796 5.78118471 3.66150902 -0.00274851 0.00261023 -0.00143717
C 2.78917076 1.30962844 2.75213740 -0.00452358 -0.00654050 0.01035020
C 9.36387283 3.93184165 2.83533558 0.00022107 -0.00683722 0.00343510
C 7.26449723 8.38203026 3.29982686 -0.00337563 0.00341839 -0.00444347
C 0.01124547 3.74508275 11.29686595 -0.01164445 -0.00323938 -0.00221075
C -2.55184735 8.49188566 7.12541378 -0.00303370 -0.00358142 -0.00322268
C 3.82991479 6.09993625 7.03949916 -0.00052243 -0.00299578 -0.00596752
C 6.72575721 1.02469739 11.04428183 -0.00519253 -0.00171684 0.00324964
C 1.22192149 3.72547462 10.64032970 0.00034530 -0.00236126 -0.00525664
C 9.22693736 8.46368193 7.86866822 -0.00309241 0.00229899 0.00443715
C 2.55683603 6.16603692 7.68774092 -0.00198280 -0.00588376 0.00229586
C -5.03184401 1.09351764 10.66088991 0.00275006 0.00769173 0.00389179
C 2.19264615 2.81277454 10.98599798 -0.00016135 -0.00610879 0.00473358
C 8.25042268 7.60747975 7.43282349 0.00327491 -0.00049075 0.00064570
C 1.69763870 7.14419469 7.28075494 0.00430635 -0.00316077 0.00071966
C -4.11728145 2.02394862 11.07750422 -0.00691798 0.00919411 0.01084414
C 2.06250063 2.06375052 12.14113051 0.00751544 -0.00065746 -0.00437507
C 8.42979304 6.71624203 6.33429172 0.00168082 -0.00011555 0.00053292
C 1.91999425 7.90767162 6.14062678 -0.00631708 0.00676409 0.00042177
C -4.36928156 2.94084463 12.10177972 0.00100393 -0.00096534 -0.00198350
C 4.20173589 1.88874228 6.75114980 -0.00048497 -0.00443524 -0.00038061
C 6.42686093 6.82264995 11.82701627 -0.00878414 -0.00741054 0.00761172
C 0.02783458 7.63532533 11.65909504 0.00337422 0.00564077 -0.00432662
C -2.63247419 2.66999082 6.69312144 -0.00051021 -0.00043353 0.00186351
C 3.16679772 2.64190485 6.27809499 0.00025606 0.00537521 0.00583713
C -5.50725795 7.61972774 11.90721502 -0.00252311 0.00341869 -0.00502157
C 1.00925349 6.70508812 12.06947791 0.00283859 0.00244293 0.00075689
C 9.59602658 1.91355739 6.11104464 -0.00262634 -0.00100323 0.00250408
C -1.20740295 5.22069994 9.67458095 -0.00210699 -0.00207739 0.00163648
C -1.25558625 0.16609642 8.74748633 -0.00347222 -0.00785641 -0.00568262
C 5.21076502 4.65069371 8.63280931 -0.00419487 0.00369222 -0.00250680
C 5.49993199 9.27849127 9.70628741 -0.00861248 -0.00010856 0.00532377
C -2.42832239 6.06073299 9.53520389 -0.00021356 0.00825557 0.00351504
C -0.05185052 1.01196895 8.99615123 -0.00593444 -0.00357784 -0.00868865
C 6.51733383 3.83815306 8.70307126 0.00315700 -0.00244900 -0.00138755
C 4.42905153 8.33088484 9.49509962 0.00434901 -0.00487913 -0.00042799
C -2.97110025 3.57556405 17.42580838 0.00412101 0.00491474 -0.01030614
C -5.67347456 8.35493725 13.07321168 -0.00653736 -0.00081499 0.00600810
C 0.75057622 5.94884385 13.18447659 0.00565257 0.00219357 -0.00250877
C 3.57616398 1.29639898 17.08031955 -0.00075881 0.00094565 -0.00175603
C -1.67822029 3.49897477 16.73034128 -0.00791679 -0.00350971 -0.00363489
C 6.05866138 8.45957435 13.98719623 -0.00049803 0.00713017 0.00256960
C -0.47533947 6.15712175 13.92681272 0.00401910 0.00669567 -0.00369617
C 31.12453436 1.35195094 16.55881057 0.00426353 -0.00261835 -0.00183182
C -0.70115418 2.57656921 17.15306056 -0.00454194 -0.00467155 0.00416971
C 5.09757239 7.54605243 13.64546152 0.00081368 0.00117840 -0.00361773
C -1.37076643 7.05753086 13.52598259 -0.00155930 0.00447924 0.00431397
C -7.36487234 2.26461671 16.94566808 -0.00379993 -0.00377752 0.00593039
C -0.86960769 1.81482475 18.31531528 0.00155129 0.00194171 -0.00441774
C 5.21915268 6.73147172 12.47873313 -0.00299894 -0.00749277 -0.00499667
C -1.24806932 7.73947468 12.28989999 0.00015359 0.00261808 0.00035103
C -7.58145478 2.93244614 18.18997486 -0.00052798 -0.00680024 -0.00033056
C 0.85267495 2.18140055 12.87103788 -0.00398065 0.00257343 0.00179547
C 3.68626153 6.75706381 17.77416949 -0.00367389 0.00206974 -0.00490962
C -2.96141130 7.51269757 17.65473663 0.00253889 -0.00156125 0.00025034
C -5.62070038 2.85257446 12.65980748 0.00205394 0.00323239 -0.00295517
C -0.17002167 2.96491905 12.39477863 0.00185252 -0.00403559 -0.00321827
C -8.48493691 7.79928315 17.99398603 0.00002706 0.00605724 -0.00380712
C -1.95086525 6.77494416 18.18900492 -0.00294301 0.00625219 0.00221903
C 6.55260171 1.78804695 12.20845545 -0.00130657 0.00392101 -0.00120933
C -3.95714038 5.19125765 16.01908634 -0.00270872 0.00206319 -0.00017492
C -4.38612193 0.04316087 14.72019242 0.00106891 0.00418498 -0.00442419
C 1.77524070 4.27190992 14.67592473 0.00044463 0.00614179 0.00293208
C 2.42663243 9.38063752 15.81524111 -0.00206815 0.00229682 -0.00304576
C -5.20821751 5.91675889 15.74702407 -0.00331562 -0.00470098 0.00351682
C -3.05661480 0.78622981 14.86132553 -0.00108035 -0.00444576 0.00607557
C 3.09291432 3.58609271 14.96775145 -0.00782577 0.00847041 0.00086953
C 1.18141485 8.51754163 15.89296512 0.00764326 -0.00286294 0.00164486
C -5.77408694 3.77131203 23.56753130 0.00081860 -0.00192483 0.00081927
C -8.63091826 8.73417058 19.12779651 0.00383141 -0.01069763 -0.00314534
C -2.01955366 5.85383622 19.25620560 0.00394810 0.00084809 -0.00347649
C 0.64840074 1.20520701 23.40013262 -0.00487001 -0.00596271 0.00403371
C -4.63622134 3.58425957 22.79573028 -0.00084203 -0.00386862 0.00101081
C 3.24042588 8.37587211 20.06498558 -0.00049478 -0.00356928 -0.00427056
C -3.29995159 5.87173481 19.86939895 0.00787630 0.00205033 -0.00240789
C -11.05062577 1.04407098 22.88003396 -0.00395247 -0.00205306 -0.00511515
C -3.66035966 2.73549627 23.24519940 0.00057101 -0.00314312 -0.00352897
C 2.29586862 7.52162929 19.63550290 0.00671928 -0.00020807 -0.00322236
C -4.33278729 6.71920616 19.44908316 0.00140118 0.00652948 -0.00193036
C -10.02254782 1.79405504 23.35000403 0.00401264 -0.00143626 -0.00185794
C 8.23360294 1.93901923 0.02104270 -0.00198371 0.00159864 0.00174962
C 2.50467263 6.66764671 18.47398944 -0.00161414 0.00380571 -0.00146365
C -4.20788706 7.49413476 18.23461573 -0.00118894 0.00406857 0.00247445
C -10.20543265 2.77130012 24.39253421 0.00443743 -0.00302403 -0.00267655
C -2.04568028 2.01314194 19.03067510 0.00136929 -0.00055981 -0.00114973
C 0.89398080 6.87628580 24.01888013 -0.00138427 -0.00052215 0.00267697
C -5.90779022 7.69343238 23.74387871 -0.00655217 0.00443052 -0.00222414
C -8.80078010 2.72916911 18.83139056 -0.00242884 0.00720120 -0.00009640
C -3.09150360 2.76048059 18.53095823 -0.00059140 0.00067884 0.00172566
C -11.31380508 7.64167939 24.34588608 -0.00028649 0.00006499 -0.00074625
C -4.92285643 6.84747369 24.27481734 0.00173831 0.00270316 -0.00094803
C 3.40895652 2.07716337 18.24459102 -0.00050624 0.00815190 0.00175767
C -6.96819087 5.11663061 21.79952125 0.00578620 -0.00215229 0.00179573
C -7.52962344 28.64798687 20.67693924 -0.00285096 0.00429081 -0.00265932
C -0.89328175 4.59240879 20.97576802 0.00328961 0.00170360 0.00039466
C -0.42383515 9.41626642 21.86366729 0.00596801 -0.00277271 -0.00191131
C -8.45735788 5.67047961 21.61744869 0.00932767 0.00008277 0.00057534
C -6.36014132 0.72827513 20.81566345 0.00302253 0.00009190 0.00721491
C 0.35581606 3.93772172 21.42899105 -0.00381785 -0.00179732 -0.00604628
C -1.57485224 8.43999756 21.59855630 -0.00219406 0.00163866 0.00220839
C 3.18877833 13.33679221 5.34719015 0.00462775 0.00440527 -0.00003275
C 0.44175998 18.04012502 1.14820990 0.00690088 -0.00309099 -0.00122808
C 6.92968410 15.41764812 1.17255248 0.00341681 -0.00435326 0.00485103
C 9.66044552 10.61960708 5.14539303 -0.00101283 -0.00204055 -0.00751097
C 4.40740768 13.26376897 4.66069423 0.00308097 -0.00316633 -0.00071861
C 12.59931911 17.68748070 1.83000635 0.00127410 0.00112588 -0.00119778
C 5.71937966 15.49919397 1.81656232 0.00145374 0.00493224 0.00220031
C -2.12912147 10.76110691 4.45777079 0.00592225 0.01588256 0.00027489
C 5.27558059 12.22473225 4.90425104 -0.00441578 -0.00186554 0.00244844
C 11.57448496 16.87373291 1.40238131 0.00084402 -0.00323704 -0.00443546
C 4.83614148 16.46844889 1.47631329 -0.00111663 0.00341075 0.00307148
C -1.13011284 11.66546935 4.88906829 0.00418177 0.00072743 0.00649823
C 5.09673524 11.48864695 6.10373125 0.00509937 0.00293106 -0.00287907
C 11.72452698 16.18351477 0.18864209 0.00145941 0.00263037 0.00284742
C 5.00596423 17.24166275 0.26846082 0.00133165 0.00678340 0.00278572
C -1.33711955 12.49601963 6.00044524 0.00203010 0.00533227 0.00216346
C 6.83599092 11.53567580 0.49755590 -0.00223013 -0.00867426 -0.00507950
C 9.33951996 16.39272890 5.50322791 -0.00075270 -0.00483455 0.00104199
C 3.24429168 17.29946722 5.69723068 -0.00138680 0.00192774 0.00543477
C 0.27679424 12.55427195 0.45086238 -0.00359931 0.00811605 -0.00921349
C 5.84623845 12.43787283 0.24641000 -0.00172814 -0.00076537 -0.00411757
C -2.43032223 17.12609087 5.93664245 -0.00497225 -0.00285636 -0.00520530
C 4.17901134 16.36742907 6.15141572 0.00262816 0.00478587 -0.00120800
C 12.52531491 11.57912972 0.15561239 -0.00598710 -0.00172142 -0.00462860
C 1.88102523 14.65050118 3.80290827 0.00139966 0.00045193 0.00466172
C 1.49230886 10.04533246 2.53762245 -0.00312455 -0.00508712 0.00354805
C 8.03794602 13.91777042 2.73331936 -0.00326427 -0.00015587 0.00015798
C 8.27641504 18.92376814 3.52682125 0.00377327 0.00141489 0.00082876
C 0.71511449 15.51282240 3.65731210 0.00209007 -0.00200516 0.00301192
C 2.73709959 10.86806954 2.85303975 0.00415646 0.00510134 0.00080839
C 9.33198897 13.15212584 3.04178307 -0.00416389 -0.00101609 0.00063279
C 7.01736163 18.18044975 3.18610143 0.00261971 -0.00373649 -0.00641567
C 0.07620156 13.22729060 11.13316100 -0.00001906 0.00087659 -0.00587385
C -2.58863317 18.01935042 7.05159376 0.00632882 0.00455008 -0.00389490
C 3.91865466 15.51983299 7.18790938 -0.00238987 0.00325832 0.00377595
C 6.61383270 10.85082567 11.21930804 0.00943690 -0.00688882 0.00264253
C 1.33819273 13.20684259 10.51649318 -0.00735382 0.00034043 -0.00306164
C 9.09551603 18.00491700 7.68589390 0.00094633 0.00316769 0.00399473
C 2.71548346 15.70551954 7.93820627 -0.00532230 -0.00027730 0.00338091
C 34.17519712 10.85373250 10.43544347 0.00653677 -0.00008275 0.00094622
C 2.31078221 12.25023341 10.87577716 0.00151397 -0.00212327 0.00553682
C 8.03384768 17.22644837 7.36636753 0.00531088 0.00216465 -0.00832340
C 1.81452527 16.63889703 7.53999116 0.00196189 -0.00934928 -0.00390603
C -4.18834449 11.70849307 10.82810762 0.00441339 -0.00651455 -0.00187603
C 2.00835718 11.44163866 11.94742231 -0.00077534 -0.00118059 0.00122021
C 8.14674192 16.37727425 6.29520037 0.00162829 -0.00372345 0.00695456
C 2.00306412 17.39750964 6.34072210 -0.00065240 -0.00549312 -0.00042209
C -4.33572519 12.51830664 11.96809934 -0.00453365 -0.00136166 0.00388624
C 3.93759309 11.62761867 6.90060277 -0.00240628 0.00264650 -0.00238419
C 6.78525494 16.31868779 11.68372180 -0.00059629 0.00135933 -0.00070773
C 0.12160821 17.01679032 11.55704969 0.00324927 -0.00048655 0.01037081
C -2.50344980 12.30213472 6.79815776 -0.00283691 0.00034404 0.00143299
C 2.91847282 12.45409179 6.42633982 -0.00360584 0.01011990 0.00229160
C -5.34916871 17.20039808 12.15560725 0.00059237 -0.00681875 0.00024012
C 1.11909237 16.27518604 12.05522209 -0.00420089 -0.00289555 0.00023639
C 9.43613880 11.50464383 6.18987511 -0.00134425 0.00298922 0.00234761
C -1.01123634 14.66576866 9.55694752 0.00099908 -0.00534077 0.00036590
C -1.54770396 10.03797845 8.64885164 0.00258529 0.00130078 0.00468315
C 5.13604256 14.11396205 8.79768694 0.00034922 0.00238331 0.00310294
C 5.44062551 18.90228795 9.61205733 0.00175194 -0.00596434 0.00741107
C -2.28691219 15.40375989 9.33258214 -0.00185644 0.00834359 -0.00442795
C -0.43766457 10.93443112 8.87361245 -0.00284502 -0.00547687 -0.00447663
C 6.38878151 13.36954860 9.10175582 -0.00132499 -0.00030094 -0.00773528
C 4.51331948 17.77635423 9.37672084 0.00267160 -0.00027089 -0.00119445
C -2.82476264 13.32045627 17.28345370 -0.00265348 0.00989410 -0.00336087
C -5.58772092 18.12626964 13.17755435 -0.00515970 -0.00140558 -0.00226745
C 0.89175133 15.48969951 13.19028948 -0.00404504 -0.00215254 -0.00145967
C 3.84788544 10.71189358 17.44475905 0.00536509 -0.00185755 -0.00614086
C -1.64755049 13.02105710 16.50226599 -0.00019194 -0.00693761 -0.00992895
C 6.33501254 18.08398799 13.92299360 -0.00058603 0.00438646 -0.00255137
C -0.33439692 15.55080954 13.85936994 0.00376518 -0.00115352 0.00409946
C 31.06884969 10.83675193 16.60513722 0.00489932 -0.00249816 0.00218387
C -0.75123897 12.06583293 16.89975586 -0.00123296 0.00310638 0.00437380
C 5.35311942 17.11430402 13.50194157 0.00009515 0.00298976 -0.00447998
C -1.32951628 16.41259565 13.44544382 -0.00407254 0.00076144 -0.00292791
C -7.33569723 11.72233165 16.99732680 -0.00467471 -0.00490576 0.00098834
C -0.87169591 11.52888178 18.17961522 0.00092751 0.00311455 -0.00358438
C 5.49293146 16.31437748 12.31716491 -0.00077212 -0.00413002 -0.00264335
C -1.06863542 17.26294127 12.34272084 0.00349144 -0.00016729 -0.00205968
C -7.45885103 12.51304628 18.11400185 0.00559602 0.00079261 -0.00768437
C 0.74593097 11.49563942 12.62595695 -0.00107018 0.00036816 -0.00056682
C 3.93132151 16.35154102 17.88039642 -0.00452416 0.00640604 0.00105664
C -3.03173800 17.22224306 17.74610442 -0.00236414 -0.00063723 -0.00141629
C -5.58748698 12.55406733 12.62527507 -0.00091213 -0.00334261 0.00323435
C -0.17414018 12.38367398 12.19919017 0.00171033 0.00405133 -0.00887108
C -8.41704556 17.22420869 18.07735843 -0.00273575 -0.00067586 -0.00777105
C -1.98304156 16.46953466 18.22050680 0.00262464 0.00423631 0.00498554
C 6.49528882 11.63352868 12.41419139 -0.00464012 -0.00103454 0.00013230
C -4.10696893 14.66589578 15.65069865 -0.00601667 -0.00148802 0.00020189
C -4.63863706 9.91678008 14.58670851 0.00004819 0.00837889 0.00608756
C 2.01986232 14.03608726 14.79214336 0.00524456 -0.00192989 -0.00041892
C 2.60939332 18.78753148 15.78358060 -0.00186699 -0.00176648 0.00206863
C -5.16105478 15.78709765 15.59501683 -0.00119663 0.00250522 0.00318030
C -3.39433844 10.76058231 14.89564167 -0.00654508 0.00215457 0.00081221
C 3.26699954 13.13941051 14.97004265 -0.00304386 -0.00183238 -0.00433452
C 1.32645368 18.02505746 15.38663135 0.00211775 -0.00241473 -0.00291317
C -5.92445562 13.34588039 23.60992085 0.00568649 0.00384615 0.00469101
C -8.68133723 17.95009400 19.23877142 -0.00292745 0.00049625 -0.00686115
C -2.18420728 15.56130802 19.27213924 -0.00061046 -0.00350308 0.00657600
C 0.77158126 10.74464383 23.48592511 -0.00157005 -0.00642338 0.00140258
C -4.68312431 13.37089611 22.91455973 -0.00257333 0.00664635 -0.00228699
C 3.44531999 17.86826422 20.07507682 0.00214610 -0.00279989 -0.00168620
C -3.34052751 15.60247026 20.00514087 0.00133874 -0.00430928 0.00921897
C -11.16636603 10.78090116 22.82727501 0.00679443 0.00114469 0.00423938
C -3.75701918 12.43823368 23.26654857 -0.00592642 -0.00244464 0.00826107
C 2.45989962 17.07872512 19.64468775 0.00300362 0.00121749 0.00230106
C -4.40900359 16.50131502 19.66133116 0.00514631 -0.00712565 -0.00024198
C -10.20771216 11.69493955 23.23678353 0.00032209 0.00599645 -0.00574806
C -3.92810907 11.53984764 24.33538569 0.00940876 -0.00128454 -0.00427311
C 2.70230908 16.22011846 18.51281290 0.00497287 -0.00073538 -0.00147181
C -4.28672989 17.29964110 18.50109529 -0.00574573 -0.00633359 0.00173363
C -10.47046170 12.49947870 24.34315464 0.00454166 0.00660146 0.00779248
C -2.08445302 11.74172198 18.91941992 0.00420036 -0.00716625 0.00257305
C 0.99522154 16.08385905 23.99761090 -0.00121018 -0.00055479 0.00635314
C -5.73783656 17.20130456 24.05901527 -0.00208857 0.00838400 0.00416952
C -8.68444634 12.47311328 18.82668823 -0.00087026 -0.00353927 -0.00176583
C -3.04354336 12.58555854 18.40443474 -0.00217645 -0.00466985 0.00203663
C 0.67102604 17.10306874 0.11477572 0.00372991 -0.00110096 0.00088354
C 7.22442994 16.22684103 0.03306917 -0.00227887 -0.00196176 0.00416787
C 3.67031333 11.38270690 18.63795640 0.00044259 0.00539139 -0.00303057
C -7.33553392 14.45561368 22.02588111 0.00850283 0.00112943 0.00028829
C -7.33466464 9.98052301 20.77210630 -0.00016402 0.00667141 0.00012481
C -0.87432134 14.12659593 20.83270543 0.00033267 -0.00317666 -0.00176620
C -0.21168784 18.93126917 22.01802729 0.00399499 0.00497691 0.00204082
C -8.66133252 15.18852640 21.97050139 0.00148788 -0.00928790 0.00799598
C -6.04471505 10.65579390 21.05298562 0.00297730 -0.00538437 -0.00100458
C 0.28105629 13.11875924 20.97569633 -0.00017463 -0.00399916 0.00072587
C -1.58477839 18.30057839 21.75241644 0.00327583 0.00238764 -0.00797113
C 3.14466202 23.12563531 4.98278058 0.00406848 0.00492304 -0.00371783
C 0.52780108 27.70100011 1.07867315 -0.00264214 0.00307734 -0.00430456
C 7.07119471 25.16986633 1.03177391 0.00219649 0.00304277 -0.00152775
C 9.29908448 20.32451662 5.15212591 0.00037225 0.00124543 -0.00017196
C 4.39724554 22.96815799 4.31127815 -0.00235932 0.00005853 0.00140095
C 12.19902607 27.76590247 1.67226865 -0.00028337 0.00497105 -0.00506406
C 5.93338348 25.31736451 1.77574780 0.00444068 -0.00105106 0.00043882
C 37.11168574 20.31972370 4.25724825 0.00505467 0.00268208 0.00284484
C 5.34408325 22.10245317 4.81723063 -0.00018301 0.00114836 0.00144378
C 11.19547577 26.93229204 1.14743369 0.00221099 -0.00177989 0.00188362
C 4.96974832 26.15224622 1.24224073 0.00237506 0.00144036 0.00325868
C -1.22179313 21.06154150 4.69180740 -0.00426920 -0.00052274 -0.00037259
C 5.11266901 21.30285820 5.90521998 0.00693451 -0.00912244 -0.00091435
C -0.57793380 26.13767153 24.34945205 0.00834029 -0.00932869 0.00104556
C 5.20814333 26.98644237 0.16099665 -0.00424239 -0.00467159 0.00695195
C -1.38667526 21.98699413 5.76332088 -0.00428201 0.00540974 0.00311085
C 7.03832386 21.41741122 0.79998373 -0.00796235 -0.00027796 0.00786566
C 9.73663328 25.73492166 5.42217913 0.00188781 -0.00467935 0.00396149
C 3.20578260 26.83513195 5.65794130 0.00902961 -0.00659766 0.00175489
C 0.62067059 22.16403456 0.57476200 0.00070321 0.00590213 -0.00751854
C 6.03925667 22.29921232 0.35232424 -0.00058735 0.00213421 -0.00355583
C -2.18682874 26.82361755 6.05447773 0.00609390 0.00153942 -0.00746110
C 4.10342727 25.84522603 6.10056908 -0.00032574 -0.00599807 0.00208443
C 12.73785056 21.17557624 0.23522220 0.01158532 -0.00058361 -0.00341398
C 1.83965945 24.31806346 3.39893704 0.01024315 -0.00676593 -0.00144984
C 1.67044290 19.40691842 2.68028739 0.00521766 -0.00396809 0.00097858
C 8.20668133 23.63171467 2.46233504 0.00015024 0.01112468 0.00160151
C 8.34934877 28.51014870 3.54550835 0.00395428 -0.00053394 0.00657687
C 0.60684518 25.13759888 3.11704964 0.00441063 -0.00159723 -0.00842271
C 2.82644527 20.30124074 2.86040225 -0.00526384 -0.00063319 0.00248663
C 9.37324560 22.72854202 2.64045306 0.00456382 0.00210383 0.00192323
C 7.07702049 27.72579198 3.55416663 0.00101415 -0.00088540 -0.00502777
C 0.21121798 22.66574581 11.16438611 0.00444178 0.01048162 0.00487870
C -2.49031128 27.69260097 7.10848446 -0.00495101 0.00099472 -0.00205861
C 3.86272467 25.08620231 7.19596352 -0.00252087 0.00352221 0.00375677
C 6.64242883 20.21359339 11.26169284 -0.00369508 0.01028925 -0.00093352
C 1.47615111 22.73022120 10.62122115 -0.00092740 0.00307029 0.00204352
C 9.33407489 27.38174786 7.64767500 0.00773774 0.00827621 -0.00291557
C 2.68528622 25.29159605 7.85370988 -0.00085078 0.00677973 -0.00048888
C 34.12138025 20.41864199 10.32771553 -0.00198888 -0.00508033 0.00529723
C 2.45494652 21.82928965 11.11581913 -0.00357370 0.00814972 0.00727311
C 8.35514772 26.52567160 7.21034917 -0.00266334 -0.00411567 -0.00183169
C 1.74956267 26.19158168 7.47372431 -0.00186353 -0.00975510 -0.00372168
C -4.27946999 21.22103267 10.77385061 0.00575928 0.00040848 -0.00285456
C 2.26099501 20.95059399 12.18838452 -0.00166398 -0.00149404 -0.00496179
C 8.52985161 25.62852687 6.11796855 0.00017615 0.00315168 -0.00171528
C 1.92943401 26.84650463 6.27030415 -0.00004619 -0.00220371 0.00008636
C -4.40507248 22.02693810 11.91718422 0.00186782 -0.00276829 -0.00445755
C 3.84198590 21.38155373 6.47279948 -0.00848851 0.00131514 -0.00166360
C 6.61368341 26.14386998 11.53265844 -0.00292899 -0.00244470 -0.00210727
C 0.19806184 26.70471947 11.77080415 -0.00832494 0.00792205 0.00335567
C -2.56045349 21.89669321 6.46239756 0.00437181 0.00265509 -0.00412577
C 2.91987683 22.36168920 6.12834424 0.00111068 -0.00714029 -0.00100877
C -5.35009368 26.73377053 12.00515447 -0.01173650 0.00495181 0.00353633
C 1.15639903 25.83666571 12.21323143 0.00267925 0.00526024 0.00560832
C 9.02084754 21.17355589 6.20379950 -0.00040665 -0.00784650 -0.00034655
C -0.98716571 24.13520698 9.60384656 0.00648799 0.00075329 -0.00141682
C -1.20485946 19.26926346 8.56937935 -0.00421531 -0.00103421 0.00328670
C 5.03352938 23.65137331 8.82459827 0.00076611 0.00680774 -0.00402780
C 5.58317055 28.43958817 9.47368190 0.00271932 -0.00021566 -0.00274565
C -1.99080327 25.16539074 9.31496114 -0.00257660 0.00153612 -0.00397976
C -0.15566133 20.27902382 8.86799984 -0.00415115 -0.00578612 -0.00353194
C 6.41041699 23.17542484 9.06674635 0.00058133 -0.00314390 -0.00388704
C 4.23147252 27.80078554 9.19387729 -0.00109117 0.00017549 0.00533564
C -2.94093322 22.83764660 17.39471081 0.00307841 -0.00426975 -0.00060784
C -5.59843802 27.55080876 13.07626419 0.00804637 0.00604170 -0.00256482
C 0.87675405 24.85726373 13.18659769 0.00369388 -0.00197601 -0.00341541
C 3.63423628 20.18192181 17.42861833 -0.00664853 -0.00364735 0.00226158
C -1.69580697 22.82842898 16.81795371 -0.00083968 0.00219319 0.00628403
C 6.33827192 27.62918112 13.92241137 0.00040154 -0.00188663 0.00663605
C -0.44550226 24.88592856 13.78965267 0.00172004 0.00337951 0.00058897
C 31.02358144 20.57081452 16.49577518 -0.00227387 0.00402639 0.00363919
C -0.76354026 21.77935250 17.20541689 -0.00694634 0.00049934 0.00222548
C 5.37218092 26.78687817 13.49539014 0.00262473 0.00068977 -0.00291917
C -1.36482556 25.82682638 13.37849761 -0.00360040 -0.00160271 0.00454221
C -7.33614213 21.35645647 17.09717263 -0.00842930 0.00090669 0.00225917
C -1.02384024 20.97817674 18.31192064 -0.00140697 -0.00333530 0.00659297
C 5.46423592 25.98362379 12.32557534 0.00461809 0.00970443 -0.00282991
C -1.11591225 26.65344625 12.28505716 -0.00506411 -0.00139454 0.00058146
C -7.53097117 22.03726317 18.28608640 -0.00007433 0.00020215 -0.01094290
C 1.01317058 21.01998251 12.76957304 -0.00111303 -0.00005142 0.00082833
C 3.63494683 25.93665143 17.64587026 -0.00737915 0.00190387 -0.00874018
C -2.82210230 26.75759323 17.79632874 -0.00674370 0.00422269 -0.00340542
C -5.62017302 21.98946713 12.56134044 0.00055412 -0.00745523 -0.00244894
C -0.01301476 21.81573224 12.25302481 0.00097440 0.00594730 -0.00641123
C -8.58773301 26.54678694 17.97888760 0.00126825 -0.00120963 -0.00380476
C -1.84472245 25.89711735 18.21291009 0.00141169 -0.00543687 0.00064437
C 6.45366137 21.00272163 12.38695579 0.00259719 0.00607949 0.00441605
C -4.03151132 24.25095271 15.80274851 0.00101924 -0.00102533 -0.00446157
C -4.37808784 19.47472873 14.69313340 -0.00182667 -0.00072264 0.00324451
C 1.96684934 23.36705803 14.82114844 0.00696198 0.00166872 -0.00213683
C 2.40699044 28.67506636 15.55298763 -0.00229466 0.00093088 0.00370973
C -5.11271079 25.26320833 15.60162472 -0.00647326 0.00256051 -0.00227081
C -3.21220993 20.41643792 14.86616674 -0.00058140 0.00247831 0.01280219
C 3.11154032 22.45645261 15.02136592 -0.00235131 0.00312487 0.00320387
C 1.29509521 27.68270399 15.28378816 -0.00839922 -0.00117180 0.00317598
C -5.88111329 23.00480582 23.52707022 0.00478601 -0.00248345 -0.00149819
C -8.81973177 27.43355754 19.08291976 0.00046618 0.00441837 0.00213855
C -2.08049315 25.00332122 19.28564628 0.00429364 -0.00311003 0.00298812
C 1.05000351 20.23808276 23.65993305 0.00229127 0.00154918 0.00420302
C -4.63087240 23.04162053 22.86859258 0.00583678 -0.00441543 -0.00789876
C 3.17622893 27.46318214 19.91963298 -0.00179993 -0.00096865 0.00059927
C -3.25705372 25.17439001 20.03267839 -0.00013184 0.00370412 0.00477290
C -10.97792783 20.25853305 22.94537637 -0.00409044 0.00078032 0.00019971
C -3.65051124 22.13117728 23.26335180 0.00175505 0.00438952 -0.00430684
C 2.18602454 26.62226404 19.42595003 -0.00465252 0.00158341 -0.00124758
C -4.25911583 25.97257153 19.59239967 -0.00023869 -0.00124946 -0.00720136
C -9.97158604 21.15671874 23.26315096 0.00576985 -0.00264366 -0.00374515
C 8.25101801 21.27439138 0.05233437 -0.00173294 0.00411748 -0.00655578
C 2.37177301 25.85901870 18.30739089 -0.00281523 0.00157491 -0.00494115
C -4.10016443 26.78075368 18.48156865 0.00138094 0.00123056 -0.00159522
C -10.13373051 22.06520665 24.35073201 -0.00940279 -0.00436651 -0.00384673
C -2.29432267 21.06096499 18.93965696 0.00168679 0.00900183 0.00050483
C 0.70800643 26.17371541 23.76132085 0.00726160 -0.00103076 0.00838970
C -5.67858693 26.76834593 23.76052663 -0.00134766 0.00419109 -0.00973764
C -8.76285381 21.87509893 18.97962095 0.00256438 -0.00318744 0.00480247
C -3.18864585 21.94104593 18.50194047 -0.00427107 -0.00084419 -0.00125803
C -11.34216239 26.89816864 24.34057521 0.00222891 -0.00534577 0.00047327
C -4.71686806 25.93636713 24.23488632 -0.00300237 0.00175236 0.00215743
C 3.37922212 20.97765634 18.51685020 -0.00345868 0.00566253 -0.00001095
C -7.17518242 24.19679798 21.93156282 -0.01026941 -0.00484860 0.00029392
C -7.61665827 19.34088273 20.83132034 0.00800016 0.00033449 -0.00075387
C -0.61819756 23.67057463 20.75737804 0.00346348 0.00086940 0.00398453
C -0.41187570 28.49241459 21.81090632 -0.00147195 0.00110562 -0.00022472
C -8.57430833 24.81378024 21.72405414 -0.00149244 -0.00662936 0.00574804
C -6.36116761 20.15829603 21.06206914 0.00126106 0.00536246 0.00250712
C 0.54159938 22.79670954 20.69830397 0.00375293 -0.00235010 -0.00167551
C -1.67178038 27.74504161 21.41818251 0.00481086 -0.00043148 0.00040195
C 16.27608849 3.95321499 5.06079532 0.00382152 0.00648055 0.00462531
C 13.66448119 8.64614234 1.01837382 0.00354793 -0.00666112 -0.00098543
C 20.34706405 5.89305778 0.97737915 -0.00161188 -0.00141717 0.00257445
C 22.77867010 1.18036030 5.14487758 -0.00109170 0.00731770 0.00244280
C 17.52269944 3.86651064 4.48009321 0.00118854 0.00106954 -0.00351439
C 25.51315489 8.18654156 1.47352989 -0.00396247 0.00448261 -0.00767814
C 19.08753383 5.94168410 1.62203555 0.00298113 0.00165373 0.00362852
C 10.86137285 1.29918266 4.18663749 0.00308480 0.00182753 0.00061961
C 18.45988630 3.03395287 4.99573490 0.00260631 0.00541986 -0.00317753
C 24.54727567 7.24451946 1.04416393 -0.00434818 -0.00013546 0.00068312
C 18.11289806 6.83597677 1.22932704 -0.00778982 -0.00228533 -0.00081677
C 11.66599568 2.38714676 4.50760731 0.00771582 0.00434873 0.00037948
C 18.16229821 2.10171134 6.00066125 0.00003253 0.00381657 -0.00285561
C 12.79417963 6.32844577 24.36997390 -0.00180200 0.00059312 0.00105758
C 18.24566489 7.66552306 0.08544090 0.00507922 0.00021145 -0.00356822
C 11.65217645 3.07351325 5.71096543 -0.00156459 -0.00572911 -0.00229885
C 20.23943081 2.07730073 0.69526820 0.00046837 -0.00034380 0.00289604
C 23.05320102 6.82755409 5.49365771 0.00257037 0.00554351 0.00884569
C 16.19001900 7.89314510 5.51259368 -0.00614035 0.00168391 0.00211796
C 13.44157493 3.00478835 0.37663977 -0.00141459 -0.00175108 0.00046294
C 19.24882111 2.90875640 0.25023646 0.00319803 0.00091306 0.00068641
C 10.58176809 7.70963138 6.07464346 -0.00578657 -0.00019260 -0.00104847
C 17.20638763 7.09682996 5.97904090 0.00615420 0.00351785 -0.00411560
C 25.75426922 1.97653446 0.12298482 -0.00958920 0.00004884 0.00064480
C 15.31322643 5.44550804 3.42376182 0.00907447 -0.00168127 -0.00482278
C 14.49753807 0.53201931 2.49420338 -0.00346763 0.00632397 0.00396093
C 21.53816720 4.62841979 2.56967665 0.00169171 0.00064880 -0.00852730
C 21.67920211 9.20203112 3.48816900 -0.00309052 0.00694637 0.00423639
C 14.29203438 6.58612650 3.19342074 0.00737605 -0.00160329 0.00031282
C 15.41534936 1.67332993 2.71378469 0.00433816 -0.00402895 -0.00389263
C 22.91800875 4.03269802 2.74543444 -0.00373507 -0.00402884 -0.00121725