2880
Time=8000.00000000 pbc="T T T" Lattice="39.26937047 0.00000000 0.00000000 0.00000000 29.01706113 0.00000000 -11.99117947 0.00000000 24.25253896" energy=-18399.17164868 virial="-58.75468577 -11.92720886 0.12204344 -11.92720886 21.23858139 -4.93908503 0.12204344 -4.93908503 -1.80524191" stress="0.00029124 -0.00044195 -0.00011921 -0.00044195 0.00332842 -0.00008590 -0.00011921 -0.00008590 0.00263077" Properties=species:S:1:pos:R:3:vel:R:3
C 3.05495887 3.84577636 5.19307561 0.00079783 0.00389219 0.00070909
C 0.41104348 8.39088926 0.89197276 0.00278470 0.00086501 0.00258002
C 6.90166065 5.96520240 1.09030965 -0.00065827 -0.00022330 0.00261354
C 9.68931608 1.17250054 5.27495573 -0.00000230 -0.00562447 -0.00272508
C 4.26257078 3.78901977 4.55905243 -0.00088411 -0.00014805 -0.00864015
C 12.23630625 8.38073575 1.64476064 0.00098683 -0.00671326 0.00349888
C 5.65574246 6.12296296 1.75591560 0.00317336 0.00392448 0.00174179
C -1.99341237 1.24517205 4.30339622 0.00025487 -0.00718590 0.00309157
C 5.29528229 2.99025389 4.96428049 0.00198495 0.00007329 -0.01014092
C 11.27263189 7.48342969 1.30807938 -0.00664443 0.01003705 -0.00369620
C 4.70443263 6.99982888 1.19391174 0.00271765 -0.00182453 -0.00536583
C -1.12120918 2.22702255 4.76418822 0.00143021 -0.00123296 0.00196082
C 5.10082776 2.11886170 6.04489089 0.00050056 0.00263238 -0.00085904
C 11.38713223 6.59558590 0.20924587 0.00489392 -0.00607123 -0.00259270
C 4.89526152 7.74055261 0.06251552 -0.00912008 -0.00265677 0.00092276
C -1.43122727 3.02520337 5.88326464 0.00114532 0.00015264 0.00061437
C 6.72590392 2.05399744 0.70799192 -0.00421494 -0.00512804 0.00094521
C 9.74873800 6.91932187 5.60097675 -0.00595307 0.00054196 -0.00241828
C 3.26768603 7.56728490 5.40054100 -0.00275234 -0.00246105 0.00377282
C -0.02571591 2.93393014 0.30365056 0.00233548 -0.00111466 0.00408942
C 5.82197901 2.95025831 0.24530000 0.00803642 -0.00793087 0.00025688
C -2.42304975 7.79496080 5.82283056 -0.00247003 -0.00571551 0.00014429
C 4.25366096 6.73733688 5.90584757 -0.00303354 0.00125260 0.00136322
C 12.28981832 2.03446920 0.27205454 -0.00349459 -0.00732225 -0.00190371
C 1.83043929 5.03193628 3.54283823 0.00133937 0.00023638 0.00617797
C 1.70455834 0.32934575 2.47086433 -0.00451850 -0.00140684 0.00047838
C 7.92700756 4.48737225 2.75608695 0.00566300 -0.00173137 0.00217259
C 8.31312265 9.43022661 3.45310212 -0.00395134 0.00351007 0.00243617
C 0.66647650 5.91652800 3.25662368 -0.00254073 -0.00023980 -0.00252429
C 2.97370581 1.07940149 2.57732439 0.00588889 0.00155773 -0.00373028
C 9.08181050 3.56268394 2.94375988 -0.00031045 0.00186484 -0.00286688
C 6.99371321 8.68497533 3.33136030 -0.00954421 0.00030807 -0.00245150
C 0.16362990 3.67375004 11.12923862 0.00220438 -0.00100323 -0.00130799
C -2.65404808 8.60046666 6.95846034 -0.00048921 -0.00492464 -0.01005648
C 4.03249732 5.97733179 7.07871132 -0.00314452 -0.00587778 0.00060712
C 6.64619714 1.10172159 11.35781383 0.00089947 0.00641511 0.00462564
C 1.46680564 3.57153623 10.50612014 0.00041969 0.00200251 -0.00212133
C 9.36118145 8.56225857 7.79750131 -0.00334595 -0.00570305 0.00003602
C 2.78008207 5.98152619 7.67103277 -0.00310301 0.00615027 -0.00134880
C -5.06814124 1.36306656 10.35859899 -0.00320038 -0.00470309 -0.00246869
C 2.33147812 2.67828411 11.04053585 0.00429118 -0.00199734 -0.00472513
C 8.39717545 7.63736195 7.46241984 0.00510102 -0.00291763 0.00479010
C 1.79205125 6.77175642 7.17406602 -0.00404522 -0.00430383 -0.00096856
C -4.12341895 2.26412886 10.79512806 -0.00057650 0.00580138 -0.00398869
C 2.10324174 1.95918878 12.19517118 0.00533710 -0.00654738 0.00298619
C 8.58260408 6.79380407 6.36149405 0.00026518 0.00134460 0.00369593
C 2.02292081 7.66006336 6.09237137 0.00615496 0.00292660 0.00097309
C -4.27495607 2.90642485 12.05153483 0.00123757 -0.00099634 -0.00431887
C 3.87349402 2.19302643 6.82492742 -0.00328231 -0.00069412 0.00146164
C 6.84689852 6.64740360 11.87460077 0.00156621 0.00231462 0.00533926
C 0.04787572 7.53750223 11.61172673 -0.00300283 0.00261479 0.00009178
C -2.71457331 2.94512871 6.44569007 0.00862722 0.00159957 -0.00091511
C 2.84291258 3.00695677 6.34812633 -0.00035266 -0.00211157 0.00046234
C -5.24443583 7.68759510 12.13264359 -0.00539453 -0.00333234 -0.00198606
C 1.06118005 6.67024664 12.00839841 -0.00081544 0.01030223 0.00379826
C 9.50961086 2.01642679 6.34937750 -0.00614953 0.00963161 -0.00200756
C -0.83603613 5.12219303 9.55351345 0.00078952 0.00150453 -0.00322117
C -1.25982158 0.39152701 8.81163852 0.00136126 -0.00527825 0.00742365
C 5.10842743 4.52808918 8.69618181 0.00005602 0.00479521 0.00313181
C 5.36052472 9.53982571 9.76791546 -0.00092926 -0.01226810 0.00097538
C -1.98369116 6.05173757 9.27759098 0.00092755 -0.00126439 -0.00850122
C 0.04691427 1.02505294 9.14625400 0.00081830 -0.00429153 0.00204477
C 6.33119132 3.72095334 8.99460908 0.00155366 -0.00188637 -0.00079161
C 4.13683446 8.66912362 9.49615669 -0.00291222 0.00425557 0.00056963
C -2.76597896 3.61988490 17.48449315 0.00403050 0.00513566 0.00375627
C -5.47195766 8.53461084 13.24529112 -0.00308587 0.00482350 -0.00163778
C 0.92547076 5.84009389 13.14841334 0.00339165 0.00335012 -0.00266799
C 3.52057116 1.26029598 17.38648598 0.00477408 -0.00711566 -0.00517996
C -1.56554161 3.53930358 16.76434835 0.00582357 0.00237219 0.00313544
C 6.38175326 8.57945302 13.80413455 -0.00149885 -0.00446471 0.00750453
C -0.22608045 6.05281099 13.92685378 -0.00176843 0.00472562 0.00065214
C -8.01031758 1.20949773 16.56028074 -0.00220970 0.00193984 -0.00111313
C -0.51659375 2.68636840 17.20138217 0.01030976 0.00536064 0.00786247
C 5.41023477 7.66381260 13.52691545 0.00505772 0.00434576 0.00315365
C -1.19102809 6.94120569 13.52563325 0.00043275 0.00705794 0.00274113
C -7.14735764 2.25840921 16.87991164 -0.00493515 -0.00532280 0.00418475
C -0.70711171 1.86901620 18.33967891 0.00032244 0.00105524 0.00501465
C 5.55149261 6.72095392 12.41546232 -0.00233844 0.00377803 -0.00126917
C -1.09698719 7.69053583 12.34159062 0.00312527 0.00718555 -0.00395582
C -7.41655499 3.17789220 17.96320591 -0.00279375 -0.00041179 -0.00471297
C 0.88639944 2.09775909 12.86770637 -0.00184013 -0.00247268 -0.00941620
C 3.55412857 7.05845860 17.66349671 0.00207177 0.00502066 0.00427009
C -2.84260927 7.69957087 17.71064196 0.00685397 -0.00488524 -0.00353501
C -5.50082717 2.68535025 12.75342573 0.00181603 0.00337423 0.00260884
C -0.09393576 2.91934658 12.36255766 -0.00091607 0.00648718 0.00550440
C 30.44573234 7.91350699 17.66364589 -0.00729033 0.00100920 -0.00400225
C -1.88238507 6.78751854 18.11377455 -0.00137201 -0.00579560 0.00292079
C 6.43425343 1.73308061 12.61557772 0.00679800 0.00158394 -0.00261831
C -4.08600974 4.85647887 15.87200529 -0.00123820 0.00156984 0.00521200
C -4.12197999 0.24697229 14.78192819 -0.00286308 0.00502879 -0.00014005
C 2.24045793 4.54217474 14.71159483 -0.00661780 -0.00050472 0.00009403
C 2.54791923 9.41064955 15.72917895 0.00218608 -0.00480356 -0.00142794
C -5.33585750 5.73428537 15.77165755 -0.00030511 -0.00725544 0.00188872
C -2.86849031 1.09630205 14.88965087 0.00790685 -0.00230458 0.00085218
C 3.41688575 3.60695975 14.85894132 -0.00232019 -0.00430515 -0.00151448
C 1.35267140 8.53882479 15.54228480 0.00346553 0.00314248 0.00338638
C -5.84220468 3.84061415 23.44017591 -0.00008528 -0.00028807 -0.00242613
C -8.85151128 8.51947963 18.92051006 0.00481284 -0.00526202 0.00148802
C -2.04237884 6.03438384 19.26302718 -0.00202295 -0.00315418 -0.00245569
C 0.47539522 1.19692396 23.45652280 0.00437818 0.00482545 0.01019784
C -4.60548949 3.73036723 22.79413042 -0.00126338 0.00185489 0.00229130
C 3.25563685 8.48908306 19.90702621 0.00757839 -0.00820119 -0.00394729
C -3.25116226 6.07385934 19.93662200 0.00081992 0.00056693 -0.00074594
C 27.86726977 1.28902602 22.46337145 -0.00097408 0.00751800 0.00288064
C -3.72442568 2.74684905 23.20482589 0.00398116 0.00067195 0.00871296
C 2.24346762 7.70956229 19.49080913 -0.00443894 -0.00227871 0.00307702
C -4.22220820 6.97993436 19.60285990 -0.00121089 -0.00768766 -0.00436195
C -10.48612829 2.31506464 22.81052721 -0.00364245 0.00545068 0.00123363
C 8.02802495 1.85988561 0.00393093 0.00003120 0.00425955 -0.00252955
C 2.38738857 6.92606295 18.37018118 0.00344622 -0.00587343 -0.00275517
C -4.04809219 7.82484821 18.50310064 -0.00099772 -0.00106108 -0.00068469
C -10.81798731 3.13525603 23.85868600 -0.00694446 0.00004619 -0.00144485
C -1.98130263 1.90504824 18.99903113 -0.00665892 0.00534605 -0.00068342
C 0.58075633 6.69161889 23.74335450 0.00033470 -0.00126201 0.00476527
C -5.77455347 7.67609624 23.78075278 0.00705895 -0.00059616 -0.00487247
C -8.53006528 2.92396453 18.76159860 0.00887276 -0.00427493 -0.00165954
C -2.94691588 2.78717183 18.56415843 0.00464441 0.00644914 0.00048506
C -11.49999289 7.66307573 23.98062249 0.00018539 0.00506036 0.00591067
C 7.17816740 6.85764237 0.02237177 0.01194342 -0.00243152 -0.00847132
C 3.31129234 2.00544204 18.48819293 0.00231406 -0.00548169 -0.00548876
C -6.98733484 5.09373017 21.74736743 -0.00499215 -0.00632773 -0.00857026
C -7.31029442 0.28744247 20.75895135 0.00027101 0.00393234 -0.00218608
C -0.94662021 4.77133192 20.88296101 0.00855955 0.00281634 0.00038157
C -0.60292022 9.37154918 21.71377965 -0.00080350 -0.00559103 0.00677586
C -8.06894308 6.05823102 21.51846773 -0.00586722 0.00020223 0.00175212
C -6.01788248 1.02051499 21.11236110 0.00334374 0.00113035 -0.00165413
C 0.25827964 3.93621745 21.21434967 0.00354204 -0.00737819 0.00405789
C -1.66805996 8.33297516 21.56426793 -0.00121936 0.00207713 -0.00062175
C 3.00534544 13.22383118 4.98209279 -0.00611729 0.00089141 0.00059769
C 0.48966627 18.09549063 0.93599341 -0.00341546 -0.00150508 0.00418583
C 6.89322236 15.49097433 1.13429456 -0.00253055 -0.00511217 0.00417269
C 9.68975645 10.69534349 5.08828559 0.00124009 -0.00320112 -0.00269729
C 4.20474399 13.14622878 4.25300267 -0.00467967 -0.00133378 0.00142676
C 12.18799893 17.86046674 1.64384757 0.00128674 -0.00545975 -0.00295182
C 5.65204545 15.52565253 1.77839889 -0.00226116 -0.00562475 -0.00281179
C 36.98023610 11.22625797 4.48575730 0.00704664 0.00665048 0.00341691
C 5.14321603 12.35348977 4.76049315 0.00278355 0.00034471 -0.00245809
C 11.17577985 17.17965633 1.05077679 0.00087015 0.00449320 0.00375163
C 4.66013164 16.35517057 1.26238165 0.00028620 0.00073064 0.00290971
C -1.15721563 11.88796922 4.93106547 0.00039366 -0.00284912 0.00803776
C 5.05813921 11.59286674 5.94521617 -0.00144478 -0.00755318 -0.00005888
C -0.64551215 16.50834175 24.06393807 -0.00021086 0.00584092 -0.00323195
C 4.86508028 17.18247095 0.17449000 -0.00231807 -0.00030442 -0.00482877
C -1.35803549 12.71343984 6.04835942 0.00447965 0.00159420 0.00616296
C 7.04993414 11.72570243 0.55062243 -0.00142156 -0.00210481 -0.00416082
C 9.63884482 16.46029827 5.53827321 0.00376812 0.00043237 0.00590715
C 3.17911884 17.22724061 5.50467937 -0.00248818 0.00415068 -0.00571463
C 0.71842405 12.32440209 0.63011518 -0.00216425 -0.01002855 -0.00032564
C 6.05144754 12.44588239 0.01875443 0.00478456 0.01044203 0.00430562
C -2.21915898 17.62310257 5.99727177 -0.00442028 -0.00344000 0.00036326
C 4.07897829 16.29681490 5.89688349 0.00619572 0.00002988 -0.00105374
C 12.48586260 11.50583948 0.15307847 0.00424344 0.00822687 -0.00154186
C 1.81690574 14.56455978 3.37056658 -0.00426637 -0.00273427 0.00702908
C 1.70076580 9.62864787 2.48749114 0.00115071 0.00324278 0.00916823
C 8.03157633 14.00943146 2.66062075 -0.00091639 0.00378840 -0.00360659
C 8.52403857 18.94682799 3.53885064 -0.00001393 0.00096598 0.00379521
C 0.65272982 15.48469936 3.18150100 -0.00175349 -0.00394840 0.00127433
C 2.90472957 10.44102413 2.63761256 -0.00216325 -0.00099527 -0.00279447
C 9.20118900 13.13594398 2.79219768 -0.00004980 -0.00221043 -0.00052852
C 7.22087391 18.15823029 3.38944091 0.00666986 0.01187129 0.00750028
C -0.09162557 13.31879691 11.13770834 -0.00186224 -0.00828091 0.00201256
C -2.53787624 18.42682729 7.10379636 0.00443954 0.00017419 0.00291766
C 3.78427553 15.51715869 7.04736368 -0.00119458 0.00133398 -0.00019462
C 6.65328223 10.81345930 11.28951398 -0.00012153 0.00131206 -0.00073641
C 1.06687702 13.18207191 10.40912352 0.00346574 -0.00438576 0.00277931
C 9.19017456 18.08696788 7.68364977 -0.00419579 -0.00483129 0.00053094
C 2.54439859 15.63656477 7.73115515 0.00144036 -0.00314242 -0.00171073
C -5.06782176 10.79187495 10.64324489 0.00745909 0.00399925 -0.00068139
C 2.09624468 12.30335759 10.76355070 -0.00735059 -0.00026428 0.00000241
C 8.18517372 17.26255381 7.22890335 -0.00744203 0.00159877 -0.00138817
C 1.68659016 16.61309199 7.28965175 0.00310562 -0.00492180 -0.00413223
C -4.11140204 11.77681125 10.98230993 0.00380749 -0.00609666 -0.00452149
C 1.89302113 11.53540617 11.90971596 -0.00025556 0.00495145 0.00320983
C 8.39044498 16.40443775 6.15376563 0.00096535 0.00211540 0.00604877
C 2.01328471 17.47837594 6.24444310 0.00797095 0.00264069 -0.00037088
C -4.38830323 12.60659535 12.04508105 0.00075608 0.00548878 -0.00242236
C 3.80840456 11.62865829 6.61269707 0.00174350 -0.00305111 -0.00219216
C 6.75968575 16.35877311 11.72891177 0.00258524 -0.00302096 -0.00450775
C -0.01017313 17.17386012 11.28486459 -0.00698696 0.00186376 0.00822001
C -2.60866313 12.60087576 6.76754098 -0.00349024 -0.00134595 -0.00062172
C 2.82521464 12.45511666 6.12417396 -0.00390602 0.00089247 -0.00491582
C -5.36073484 17.55758690 12.07928721 0.00052777 0.00201262 -0.00576193
C 0.99299314 16.39059536 11.77111478 -0.00116385 0.00193952 -0.00475851
C 9.49805097 11.55143574 6.13228077 -0.00028910 0.00295052 -0.00255051
C -1.14228355 14.87790553 9.59998868 -0.00201064 -0.00416182 0.00127620
C -1.35675062 9.83002701 8.55230692 -0.00488666 0.00691705 0.00001487
C 5.16778192 14.10224364 8.62537533 0.00460024 0.00059553 -0.01013487
C 5.37726915 19.01029037 9.40583434 -0.00704494 0.00426169 -0.00193993
C -2.34155825 15.84650424 9.29675963 0.00422408 0.00622775 -0.00445851
C -0.27888014 10.84853230 8.78764692 -0.00120554 -0.00846351 -0.00219638
C 6.42362345 13.28365945 8.66788052 -0.00667211 0.00149949 -0.00708550
C 4.23536053 18.12102230 9.11842842 -0.00486586 0.00010553 -0.00045879
C -3.20461171 13.64143984 17.29711869 -0.00304779 -0.00215920 -0.00204117
C -5.67949818 18.33222925 13.19638465 -0.00556177 0.00192519 -0.00246034
C 0.79242911 15.60984516 12.95952505 -0.00600542 -0.00252966 -0.00041361
C 3.67577231 10.90778897 17.22183836 -0.00311249 -0.00069707 -0.00119207
C -2.11973585 13.46232333 16.45134776 -0.00436313 0.00812733 0.00296769
C 6.19059879 18.07170943 13.81619502 -0.00066421 -0.00535359 0.00202098
C -0.51596679 15.71143777 13.64018057 -0.01016674 -0.01100025 0.00277845
C 31.09211211 11.01761822 16.40690093 0.00766732 -0.00355152 -0.00402245
C -1.07569499 12.55269195 16.75881317 -0.00733177 -0.00918039 -0.00735646
C 5.21467838 17.20964553 13.37159162 -0.00115367 0.00202391 0.00201100
C -1.42593237 16.62989545 13.18193511 0.00310467 0.00391314 0.00131338
C -7.07462722 11.65622307 16.97883086 0.00504622 -0.00506620 -0.00841969
C -1.13412917 11.80544886 17.91734530 0.00299006 0.00582423 -0.00263374
C 5.51566620 16.39960453 12.29159735 -0.00165475 -0.00672753 0.00159361
C -1.18032202 17.45480240 12.07357021 0.00106849 0.00202177 -0.00487199
C -7.25964161 12.48722978 18.16954338 -0.00328782 -0.00005675 -0.00062740
C 0.72491954 11.53828181 12.61360812 0.00587490 -0.00845839 -0.00700239
C 3.66884190 16.30688866 17.66402253 -0.00561984 0.00420113 -0.00713000
C -2.96620414 17.51088388 17.61562637 -0.00101800 0.00929950 0.00016839
C -5.63954545 12.56254162 12.72145863 0.00224170 0.00218237 -0.00098689
C -0.30449205 12.47277887 12.24358064 0.00616329 -0.00342526 -0.00737953
C -8.21846243 17.32191026 18.19169186 0.00177458 0.00073229 0.00434993
C -1.95785438 16.63457349 17.98530969 -0.00611410 -0.00159242 -0.00034953
C 6.49011050 11.62841514 12.37695402 0.00360245 -0.00354228 0.01080884
C -4.59064581 14.99968987 15.84370208 -0.00028353 -0.00150064 -0.00137780
C -4.33815045 9.88796534 14.91688318 -0.00948619 0.00308567 -0.00389119
C 1.92409297 14.21718024 14.44404376 0.00450073 0.00358724 0.00598891
C 2.58378805 18.84485023 15.64239624 -0.00022977 -0.00149320 -0.00160947
C -5.79895953 15.83719663 15.74479026 -0.00143727 -0.00253219 0.00509878
C -3.22042763 10.80458719 15.21394839 -0.01076797 -0.00024693 0.00131188
C 2.98396599 13.23262367 14.62279219 -0.00737456 0.00007550 0.00464483
C 1.40672987 17.97004793 15.39112004 -0.00596285 -0.00201855 0.00456952
C -5.67571149 13.36014873 23.27262411 0.00491954 0.00236689 -0.00615702
C -8.53679888 18.23878237 19.19647298 0.00381609 -0.00426421 -0.00133163
C -2.09987195 15.76569207 19.09670928 -0.00062157 -0.00248795 -0.00381759
C 0.69566772 10.73065779 23.20515499 0.00179056 -0.00254996 -0.00589343
C -4.41766509 13.33053604 22.61300853 0.01098948 -0.00621044 0.00357431
C 3.05036721 18.02703963 19.72146120 0.00803446 0.00345899 -0.00038575
C -3.29304363 15.86954262 19.84018730 0.00135888 -0.00688370 -0.00199983
C -11.10512133 10.83398528 22.64336756 0.00160856 -0.00296329 0.00695392
C -3.40547858 12.53072441 23.09651642 0.00292246 -0.00332892 -0.00164309
C 2.09695070 17.11577319 19.27000410 -0.00428101 -0.00957557 -0.00396058
C -4.27048971 16.76281771 19.47657014 -0.00778429 -0.00012756 0.00332574
C -10.18485057 11.78706231 22.94352582 -0.00262917 0.00284579 0.00213617
C -3.64219215 11.69226711 24.16674600 0.00051113 -0.00433251 -0.00401172
C 2.39660924 16.21169156 18.24812279 -0.00667789 -0.00426363 -0.00169713
C -4.09006414 17.62543755 18.39216525 0.00350019 -0.00138543 -0.00448490
C -10.21698933 12.65922758 23.99228111 0.00354692 -0.00252638 -0.00171949
C -2.35077271 11.87033215 18.64985896 0.00271731 -0.00020196 -0.00497776
C 0.59860933 16.67231375 23.45796450 -0.00481532 0.00492739 0.00115551
C -5.84471955 17.20669026 23.84374745 -0.00457194 0.00501833 0.00237390
C -8.48289553 12.52661505 18.77210870 -0.00327370 0.00306388 -0.00341687
C -3.35113152 12.79445150 18.42405318 -0.00060133 -0.00382540 -0.00378389
C -11.38178114 17.19422532 24.09550405 -0.00388368 0.00036385 0.00194738
C 7.19100424 16.46383502 0.14468737 -0.00068645 0.00245821 0.00372895
C 3.48161094 11.70521630 18.32467875 0.00210493 -0.00386731 -0.00355551
C -6.75797961 14.93174368 21.71051968 -0.00503258 -0.00153496 -0.00225041
C -7.53443795 9.84662002 20.53379652 -0.00305271 0.00405249 0.00221909
C -1.03112277 14.09634737 20.50258019 -0.00238463 0.00070441 -0.00173678
C -0.62504263 19.02783365 21.69948190 0.00668629 0.00318904 0.00771171
C -7.92460871 15.77427586 21.47133106 0.00321892 -0.00166604 0.00122472
C -6.25687092 10.56192534 20.77861561 -0.00232068 -0.00027490 -0.00299992
C 0.18079964 13.18691459 20.61910917 0.00071204 -0.00319921 -0.00306007
C -1.93112580 18.40208916 21.47090398 -0.00269805 -0.00541640 -0.00270391
C 3.07877841 23.12361289 5.08812594 0.00096963 0.00629759 0.00287946
C 0.35089656 28.04091254 0.93519567 0.00242482 -0.00613937 -0.00138921
C 6.87634569 25.33481340 1.09929911 0.00405168 -0.00270948 -0.00507246
C 9.65139445 20.48577955 5.06200290 -0.00158991 0.00419552 -0.00189764
C 4.27853527 23.01124151 4.37432583 0.00017253 -0.00762565 -0.00148764
C 12.10669145 27.90141677 1.55885849 -0.00251868 0.00673233 -0.00741011
C 5.55860066 25.36206368 1.63654119 0.00411367 -0.00114169 -0.00626024
C -2.01330444 20.63070997 4.42669149 -0.00307936 -0.00346109 0.00653094
C 5.18233401 22.03426837 4.77696282 -0.00339068 -0.00587251 0.00755210
C 11.12352088 26.95073041 1.20727635 0.00199785 -0.00482053 -0.00169684
C 4.59044340 26.25351190 1.21317576 -0.00457248 0.00121172 -0.00535269
C -1.05704974 21.54360892 4.81622990 -0.00476920 -0.00589105 -0.00526952
C 5.01246664 21.12112843 5.74950092 -0.00084089 0.00748797 0.00101478
C 11.38923434 26.05033944 0.11091298 -0.00069741 0.00069035 -0.00158345
C 4.82443968 27.05884122 0.04537752 0.00853873 -0.00630183 0.00683344
C -1.28264557 22.47776714 5.84693552 0.00097997 0.00494057 0.00035978
C 7.10249744 21.52517399 0.77078178 0.00068999 -0.00398888 -0.00206388
C 9.68626372 26.28685361 5.79008129 0.00251452 0.00299196 -0.00378364
C 3.56027602 26.86150116 5.55725532 -0.00005188 0.00405766 0.00628117
C 0.27689004 22.06030131 0.59838097 -0.00360161 -0.00821904 0.00139487
C 6.14607156 22.35444512 0.34837703 -0.00071985 0.00508204 0.00092230
C -2.07968950 27.18949960 6.17852572 -0.00084423 0.00322801 -0.00105522
C 4.37241297 25.95718646 6.19537342 0.00794239 -0.00165119 0.00457846
C 12.43944430 20.99070648 0.25528544 -0.00765695 -0.00777341 0.00559319
C 1.87377323 24.57038845 3.55064163 -0.00377061 0.00031784 0.00273356
C 1.78156436 19.60812955 2.37642906 0.00408749 0.00028297 -0.00267850
C 8.03337271 24.01397080 2.84353946 -0.00464172 0.00035888 -0.00076282
C 8.41735856 28.66887647 3.85416614 -0.00005106 0.00239808 -0.00411425
C 0.73923382 25.58887890 3.41407209 -0.00556582 -0.00120921 0.00566469
C 3.00658856 20.44828624 2.48819520 0.00403415 -0.00164981 -0.00986282
C 9.05732319 22.95172275 3.01756448 0.00884478 -0.00089340 -0.00946935
C 7.09713352 27.86310643 3.90327033 0.00638799 -0.00086969 -0.00096237
C 0.00087662 23.06268964 11.26112532 0.00258627 0.00211717 0.00317973
C -2.42950406 28.12262013 7.11140246 -0.00538767 -0.00087683 -0.00204365
C 3.93314292 25.13124684 7.22952389 -0.00076982 0.00387319 -0.00092471
C 6.61896743 20.24717238 11.12023430 0.00143329 -0.00604750 0.00147121
C 1.21741973 22.96419440 10.49980665 0.00125336 0.00193388 -0.00245556
C 9.26724874 27.94734302 8.00651559 0.00522822 -0.00507775 -0.00569020
C 2.66577911 25.38024468 7.74049251 0.00352003 -0.01067187 -0.00182814
C 34.14518851 20.80613991 10.36052108 -0.00555374 -0.00188724 -0.00061284
C 2.26931119 22.20789033 10.95247786 -0.00182320 -0.00440405 -0.00358399
C 8.25339548 27.03260375 7.59517825 -0.00207990 0.00298674 0.00119887
C 1.82426511 26.34552812 7.17180997 0.00479869 -0.00347633 -0.00301064
C -4.11692211 21.65949583 10.85923919 0.00069067 -0.00462050 0.00046065
C 2.09986468 21.42014900 12.18480685 -0.00670033 -0.00683690 -0.00314380
C 8.50233597 26.16694600 6.55411377 0.00222817 -0.00285023 -0.00401227
C 2.28994729 27.15163123 6.10607430 -0.00268027 -0.00074126 -0.00081603
C -4.27049624 22.26327782 12.15539471 0.00810094 0.00089900 0.00041511
C 3.74494551 21.15876041 6.41185281 0.00377142 -0.00235911 -0.00308547
C 6.66435282 26.18761191 11.69086654 0.00737471 0.00484820 0.00314916
C 0.13762208 26.89823362 11.41263315 0.00031562 -0.00059465 -0.00382930
C -2.55425313 22.38463043 6.55160884 -0.00056636 -0.00611798 -0.00006592
C 2.83786273 22.13956991 6.12090167 0.00612672 0.00557093 0.00059257
C -5.13056262 27.04225901 12.14518422 0.00030092 0.00091868 -0.00365737
C 1.15892547 26.06628071 11.87247391 -0.00184887 -0.00434102 0.00270021
C 9.36968230 21.35612930 6.11602516 0.00017410 -0.00211976 0.00261992
C -1.10081758 24.48236187 9.66181915 0.00251422 0.00267422 0.00074443
C -1.51077527 19.84653688 8.75108979 0.00508189 -0.00461334 0.00101327
C 4.86039601 23.69802826 8.89247046 -0.00682560 0.00241050 -0.00231764
C 5.48956096 28.82893101 9.58214181 0.00176639 0.00078688 0.00060389
C -2.33730101 25.38030550 9.45250689 -0.00340313 0.00307677 -0.00249251
C -0.30311962 20.58899071 9.11510045 0.00164247 -0.00169399 0.00246730
C 5.87865274 22.65002976 9.34066211 -0.00082174 -0.00124764 -0.00315814
C 4.27718710 27.97923429 9.24700646 -0.00241560 0.00402058 -0.00246040
C -2.63627398 23.13378893 17.41844824 0.00480658 0.00415894 -0.00224759
C -5.42217443 27.90041825 13.22641075 0.00081270 -0.00108525 0.00882106
C 1.00701647 25.29835296 13.03217730 0.00593405 0.00860158 0.00013840
C 3.67804523 20.39136963 17.13108931 0.00300941 0.00205073 0.00028925
C -1.43951338 23.12211346 16.78383450 0.00350487 0.00063004 -0.00102473
C 6.26007957 27.92975087 13.84568082 -0.00335741 -0.00066083 0.00029320
C -0.18860496 25.34273794 13.71630500 -0.00693031 0.00105935 -0.00623859
C -8.19111982 20.38135787 16.73305055 -0.00214142 0.00718162 0.00146566
C -0.42843306 22.19721500 17.15760594 -0.00059825 -0.00152810 -0.01050139
C 5.27578162 26.98960586 13.52024248 -0.00127892 0.00286875 0.00135039
C -1.17116984 26.29603816 13.39935576 0.00768476 -0.00074342 0.00654884
C -7.16693260 21.28039951 17.10626963 -0.00769164 -0.00482097 -0.00328377
C -0.53485537 21.45762122 18.34897508 -0.00235612 -0.01250868 -0.00195139
C 5.44504528 26.16579655 12.39949105 0.00057583 -0.00008478 -0.00072557
C -1.01974307 27.02214610 12.23243752 -0.00032259 -0.00211022 0.00420689
C -7.34330340 22.19244222 18.16711638 -0.00448707 -0.00577338 0.00704283
C 0.87811167 21.50290397 12.89852191 -0.00412195 0.00837400 -0.00270867
C 3.84221182 26.50802487 17.60905557 -0.00206460 0.00265209 -0.00537387
C -2.55216911 26.86398162 17.64785196 0.00001378 -0.00766566 0.00598008
C -5.52669518 22.19657305 12.78920200 -0.00235981 -0.00119804 0.00773016
C -0.17121795 22.38014912 12.40565328 0.00270225 0.00910064 -0.00648888
C -8.30164213 27.01270847 18.07905455 -0.00468767 0.00304325 0.00162875
C -1.57072094 26.05799598 18.19738524 -0.00449696 0.00205792 0.00994152
C 6.39489684 21.14003457 12.19616367 0.00387637 -0.00047937 0.00159516
C -3.82453913 24.55451819 15.87762162 0.00475394 0.00522141 -0.00450619
C -4.43792724 19.63689337 14.77070461 -0.00188741 -0.00037767 0.00748511
C 2.27055848 23.86431763 14.59068589 -0.00905700 0.00277482 0.00845461
C 2.44501028 28.82445975 15.74698704 -0.00014642 0.00163708 0.00541966
C -5.09053910 25.35514104 15.69499799 -0.00096284 0.00261843 -0.00179997
C -3.09668693 20.31561228 15.00626648 0.00820791 -0.00345221 -0.00044427
C 3.42589753 22.89450928 14.65423162 0.00577668 0.00618799 -0.00266791
C 1.24681225 28.07358011 15.36679777 -0.00317762 -0.00022989 0.00287868
C -5.65433298 23.09551762 23.42489536 -0.00646335 -0.00266890 -0.00559657
C -8.46041084 27.91130326 19.12495038 0.00431585 0.00605993 0.00380096
C -1.79782122 25.27755756 19.33824509 -0.00612984 -0.00317563 -0.00082886
C 0.54250065 20.28713066 23.31205725 0.00035349 0.00452974 -0.00278496
C -4.41358681 23.15047108 22.79839787 0.00209942 0.00306353 -0.00081995
C 3.49494558 27.98748718 19.90173628 -0.01026398 -0.00381226 0.00274232
C -3.00847437 25.31477222 20.04626668 0.00352323 0.00141605 0.00009314
C -11.11165892 20.37379195 22.70571604 0.00556917 -0.00114900 0.00842493
C -3.42364399 22.20517381 23.10644030 0.00005616 -0.00664244 0.00843321
C 2.42810548 27.24118756 19.44992798 0.00772296 -0.00108224 -0.00255595
C -3.93837737 26.09828869 19.52724709 0.00335954 -0.00045806 0.00437325
C -10.10499578 21.24877630 23.19054516 0.00541319 -0.00261830 0.00142751
C 8.39655962 21.34300058 0.00728395 0.00272552 -0.00436640 -0.00194170
C 2.59671895 26.39883826 18.27164177 0.00351755 0.00270713 0.00384992
C -3.72626425 26.99327503 18.39564273 -0.00204053 -0.00368823 -0.00428561
C -10.45040408 22.19059205 24.17354983 0.00082237 0.00128100 0.00322948
C -1.83858355 21.43858333 18.99922538 -0.00156653 0.00007783 0.00287974
C 0.58462403 26.21884069 23.67876604 -0.00124578 0.00281288 -0.00221557
C -5.88799388 26.96652811 23.70815678 0.00491422 -0.00255933 0.00534675
C -8.62663799 22.23454756 18.72234049 0.00010124 -0.00548403 -0.00264489
C -2.84555543 22.20037388 18.53999279 -0.00579543 -0.00176033 0.00671923
C -11.31507642 27.17640087 24.15560878 -0.00532778 0.00422417 -0.00319050
C 7.09836057 26.18232146 0.04532482 -0.00413366 0.00385323 -0.00264368
C 3.41463120 21.29261210 18.16873687 0.00122362 -0.00400801 -0.00520025
C -6.87717499 24.37223888 21.82582783 -0.00065434 -0.00141692 -0.00511619
C -7.42739999 19.62362324 20.93657805 -0.00791305 0.00422985 -0.00298177
C -0.60641444 23.87572149 20.90369788 -0.00085265 0.00363139 0.00043309
C -0.62860299 28.52310208 22.00685099 -0.00052846 0.00705374 -0.00378922
C -8.00717389 25.32096804 21.53685647 -0.00560398 0.00361259 -0.00551541
C -6.20531243 20.43142595 21.28824218 0.00379127 -0.00407770 0.00046235
C 0.50265672 22.98925532 21.05399533 -0.01099868 0.00010552 -0.00180019
C -1.88132643 27.70485314 21.87215781 0.00931931 -0.00036490 0.00436557
C 16.04155060 3.77829365 4.99597527 0.00296771 -0.00739476 -0.00211729
C 13.47002224 8.38207756 0.91912503 -0.00120725 0.00428058 -0.00247182
C 20.06089753 5.86517873 0.92456268 0.00059716 0.00115988 -0.01021756
C 22.66901668 1.11854704 5.24809657 0.00282291 -0.00209476 0.00842213
C 17.28997429 3.64941223 4.40774137 0.00143222 0.00460773 0.00264685
C 25.43361690 8.28632747 1.57205524 0.00596664 -0.00662049 -0.00928631
C 18.79040366 5.98966688 1.59582046 0.00014240 -0.00384704 0.00571487
C 10.83406549 1.27155776 4.44547931 -0.00062129 0.00213514 0.00340335
C 18.30426352 2.79523572 4.84042769 0.00054876 -0.00388717 -0.00630686
C 24.45881788 7.44561142 1.18966643 0.00164449 0.00485882 0.00443803
C 17.83352381 6.89076504 1.24557967 0.00072640 0.00829506 0.00312355
C 11.85631462 2.16432634 4.85675060 0.00573288 0.00192352 -0.00647469
C 18.10898054 2.09421679 6.03568363 -0.00323499 0.00073695 0.00113305
C 24.70329467 6.43197948 0.21246233 0.00094747 -0.00144681 0.00426453
C 18.09638267 7.74382440 0.14040912 -0.00427001 0.00401683 0.00020567
C 11.67501676 3.00296019 5.93797055 -0.00343724 0.00620198 0.00755761
C 19.70292476 1.98971564 0.54538121 0.00557926 -0.00382097 0.00109157
C 22.81907687 6.80369601 5.60176916 0.00110555 0.00417615 -0.00872851
C 16.30706697 7.70010080 5.58665294 0.00127566 0.00340911 -0.00721911
C 13.23813893 2.97573590 0.72989169 0.00240141 0.00198538 -0.00315561
C 18.69737486 2.82783925 0.08874512 -0.00008446 -0.00347676 0.00872594
C 10.80332757 7.71627922 5.98725436 -0.00593685 -0.00236426 -0.00492483
C 17.20340405 6.81863754 6.06319635 -0.00643290 -0.00274643 -0.00003091
C 25.53246978 1.78333187 0.14584925 -0.00484986 -0.00022927 -0.00138848
C 15.00065716 5.30656639 3.50347338 -0.00243008 0.00582608 0.00303764
C 14.61644158 0.26790034 2.57229201 0.00350681 0.00078309 -0.00311466
C 21.09214186 4.46600230 2.70668534 -0.00204037 0.00561411 -0.00682312
C 21.48262115 9.22913956 3.46607458 -0.00233079 -0.00539321 -0.00193887
C 14.03162276 6.39894343 3.37467084 -0.00242780 -0.00891231 -0.00440984
C 15.80218875 1.20189675 2.83124330 -0.00704824 0.00588376 -0.00178984