2880
Time=44000.00000003 pbc="T T T" Lattice="39.21295845 0.00000000 0.00000000 0.00000000 28.71422358 0.00000000 -12.03789854 0.00000000 24.44188870" energy=-18400.97292930 virial="-11.90528755 19.33457962 -36.73970176 19.33457962 0.80048196 19.38748062 -36.73970176 19.38748062 -2.33497527" stress="0.00206646 0.00069441 -0.00132394 0.00069441 0.00237852 0.00070625 -0.00132394 0.00070625 0.00248032" Properties=species:S:1:pos:R:3:vel:R:3
C 3.45068998 3.69176928 5.19817183 0.00070854 0.00260226 -0.00630782
C 0.25128786 7.99182230 0.84981250 -0.00363212 -0.00421061 -0.00223173
C 6.89606239 5.76481409 0.88854289 0.00941968 0.00309264 0.00884261
C 9.73591923 1.31460729 5.20638500 0.00080919 0.00047805 0.00040648
C 4.69577239 3.57361320 4.52392572 0.00459727 -0.00458813 0.00197110
C 12.41844956 8.45978784 1.70852840 -0.00193328 -0.00369064 -0.00021710
C 5.65005159 5.83015757 1.55253971 -0.00403515 0.00050946 -0.00029941
C -2.07237895 1.25463427 4.48105749 -0.00395281 0.00393823 -0.00713524
C 5.60741563 2.60259772 4.83770362 0.00009435 0.00134774 -0.00329746
C 11.50626916 7.53959364 1.31772746 0.00343977 0.00175896 0.00338323
C 4.61938779 6.70195156 1.26589530 0.00153327 0.00835612 -0.00194956
C -1.10990837 2.17507231 4.75500949 0.00375642 -0.00208093 0.00146133
C 5.38694247 1.71966699 5.97746682 -0.00064152 0.00466390 -0.00265943
C 11.77629533 6.56279364 0.33678160 -0.00143019 -0.00592578 -0.00161607
C 4.71597705 7.47542672 0.14832869 0.00131266 0.00239207 0.00092014
C -1.16120606 2.98177105 5.93217012 -0.00166807 -0.00078280 0.00443555
C 6.86975201 2.00369070 0.57424118 -0.00153299 -0.00394110 -0.00787586
C 9.54444319 7.04090463 5.43211532 0.00013431 0.00020369 0.00769560
C 3.33560743 7.86735881 5.79648204 0.00476787 -0.00311354 0.00497221
C 0.26815431 2.94731236 0.46009078 0.00096231 0.00490377 -0.00486064
C 5.86965872 2.73787139 0.00746176 -0.00454254 -0.00146829 0.00230961
C -2.24131282 7.57932305 5.95209660 0.00085057 -0.00799916 -0.00342184
C 4.35068693 7.00209038 6.29294723 0.00077166 -0.00613079 -0.00206083
C 12.64450277 1.82297959 0.27968397 -0.00084941 -0.00128757 0.00307179
C 2.06686040 4.94985706 3.59770393 -0.00401742 -0.00544117 -0.00385679
C 1.71121167 0.33681431 2.55878793 -0.00386096 -0.00404461 0.00100560
C 8.19661446 4.51948218 2.49230187 0.00270370 0.00637002 -0.00717127
C 8.38317618 9.29093419 3.60905099 0.00345165 -0.00300610 0.00337018
C 0.88758177 5.86748686 3.54183083 -0.00413285 -0.00671286 0.00078123
C 2.88134397 1.27056343 2.79844725 0.00463295 -0.00169811 0.00267147
C 9.46376060 3.72189953 2.62874482 0.00811752 -0.00032486 0.00172290
C 7.18700269 8.41860440 3.48188110 -0.00311121 -0.00271685 -0.00093226
C 0.20819120 3.77017348 11.37029256 0.00821177 0.00260295 0.00203089
C -2.46216013 8.32932222 7.04651140 -0.00252350 -0.00232380 -0.00972716
C 4.04884394 6.03720292 7.30343990 -0.00188112 0.00179521 -0.00039383
C 6.79936162 0.95204231 11.46190178 -0.00097620 0.00236641 0.00276032
C 1.46816856 3.78532761 10.77213423 0.00192778 -0.00553171 -0.00737148
C 8.94066890 8.71819124 7.60217801 -0.00314950 -0.00600752 -0.00482982
C 2.76541329 6.15951982 7.93798521 0.00612884 -0.00067305 -0.00350388
C -5.05525934 1.38850899 10.47397982 -0.00130585 0.00865175 -0.00555745
C 2.38818088 2.85646264 11.16339098 -0.00778789 -0.00131621 0.00018896
C 7.98792364 7.82192769 7.17342912 0.00005920 0.00224200 -0.00294717
C 1.78228182 7.04805723 7.51569753 -0.00315210 0.00517502 -0.00363677
C -4.10123693 2.29379611 10.91559830 0.00030726 0.00223587 -0.00714387
C 2.10954516 1.95318265 12.25836571 0.00028885 0.00442885 -0.00014668
C 8.30545969 6.95496214 6.08597647 0.00124398 0.00065251 -0.00015602
C 1.99923318 7.82812327 6.31737988 0.00450852 -0.00598224 0.00457017
C -4.26514613 3.00984183 12.09176143 -0.00287704 -0.00499348 -0.00147747
C 4.17805886 1.88600820 6.66878036 0.00157996 -0.00283733 -0.00759541
C 6.36902520 6.87647653 11.32739515 0.00391065 0.00403980 -0.00394947
C 0.20381887 7.80220530 11.86585753 -0.00858544 0.00630610 -0.00161921
C -2.35802828 2.95333324 6.64039541 0.00063176 0.00928965 0.00547549
C 3.18097992 2.78775942 6.21115631 -0.00340035 0.00646504 -0.00615827
C -5.16821297 7.72955979 12.21443675 0.00164695 0.00623604 -0.00450884
C 1.11988367 6.85201487 12.30984538 0.00364672 -0.00658567 0.00404390
C 9.44526433 2.15477172 6.30522852 0.00005003 0.00206432 0.00669947
C -0.96953576 5.14539030 9.74400939 0.00406761 0.00125581 0.00056843
C -1.26044068 0.44050647 8.56143746 0.00549362 0.01075899 -0.00196545
C 4.97999074 4.49887238 8.83663420 -0.00186631 0.00858859 -0.00461595
C 5.46950595 9.47618698 9.63503002 0.00205872 0.00419447 -0.00441766
C -2.17128087 5.98042560 9.47953444 -0.00051096 -0.00298076 -0.00232725
C 0.03418207 1.13052267 8.77444162 0.00108088 -0.00146107 -0.00459835
C 6.28776290 3.65416668 9.04879056 0.00045472 0.00368402 -0.00332895
C 4.22165793 8.69619009 9.44561947 -0.01248805 -0.00068402 0.00453934
C -2.98225919 3.49776362 17.48455708 -0.00107614 0.00053530 0.00304271
C -5.48919772 8.58854004 13.23703717 0.00046886 0.00133684 -0.00238100
C 0.84270281 6.02044715 13.30412464 0.00311501 0.00927742 0.00242955
C 3.69051716 0.99280469 17.29623712 0.00438125 0.00323824 -0.00015761
C -1.84432310 3.46629583 16.71142589 -0.00632685 0.00515879 -0.00166664
C 6.17749485 8.25305057 13.76856320 -0.00224516 0.00234131 -0.00645176
C -0.39617729 6.15451655 14.00527250 -0.00808146 -0.00582349 -0.00838050
C 30.99651451 1.25308595 16.61871638 0.00249595 0.00581612 -0.00248930
C -0.74159623 2.65119648 16.99224506 -0.00389583 0.00016064 0.00458256
C 5.21778367 7.32199535 13.42706275 -0.00070121 -0.00422510 0.00381660
C -1.34599573 7.02841178 13.54597594 -0.00239631 -0.00843814 0.00759200
C -7.29778952 2.15669697 17.10375727 -0.00445586 0.00151104 0.00197919
C -0.88876978 1.62348660 18.00580818 -0.00328315 -0.00151236 0.00455861
C 5.19935419 6.63801552 12.21636271 0.00948641 0.00986038 -0.00237755
C -1.00912801 7.89808559 12.43495082 0.01132814 -0.00503286 -0.00531767
C -7.46224398 2.85696612 18.27201763 0.00851418 0.00583106 0.00361591
C 0.81430364 2.00597637 12.85386126 0.00721212 0.00841381 -0.00134849
C 3.69061496 6.94498636 17.60557403 0.00185701 -0.00335050 0.00129103
C -2.86878312 7.48166843 17.78463265 -0.00500281 0.00479141 -0.00085466
C -5.49415426 2.92948972 12.69465646 -0.01091765 -0.00745883 0.00531412
C -0.14331009 2.81885242 12.37247071 0.00548616 0.00235244 -0.00486583
C -8.47856306 7.66172966 18.36914869 -0.00287993 0.00543717 -0.00266051
C -1.97165528 6.58585004 18.22862412 -0.00387497 -0.00594705 0.00231967
C 6.52429893 1.87750732 12.54002352 0.00496627 0.00212932 -0.00654660
C -4.21414741 5.10657975 16.03324079 0.00404345 -0.00733729 0.00834574
C -4.50839952 0.37249157 14.62123835 0.00161435 0.00500492 -0.00335375
C 1.86221697 4.44024202 14.87312120 0.00252745 0.00178863 0.00290203
C 2.55252427 9.21431992 15.83157661 -0.00310979 -0.00701620 0.00129683
C -5.47415288 5.87036770 15.72374880 0.00450615 -0.00377313 0.00225113
C -3.34044859 1.28711069 14.83705114 -0.00434444 -0.00331249 -0.00015764
C 2.93085104 3.35054979 15.08171157 -0.00071970 0.00413998 0.00031415
C 1.31549137 8.30602922 15.68201495 -0.00442372 0.00295679 0.00048195
C -5.98204153 3.56799237 23.32563554 -0.00061739 0.00780310 0.00602526
C -8.77548475 8.46057112 19.46737769 -0.00805024 -0.00322893 -0.00850420
C -2.14571468 5.83660958 19.37546634 -0.00437585 0.00322408 -0.00053977
C 0.68387808 1.11701570 23.55046270 0.00455045 0.00240270 0.00224149
C -4.74999918 3.47033002 22.71946129 0.00560255 -0.00095234 -0.00351974
C 3.23383486 8.56721005 19.92267116 0.00514506 -0.00511537 -0.00767312
C -3.31377639 6.01620903 20.04671557 0.00071786 0.00222285 0.00848743
C 27.82233853 1.39299327 22.60267904 -0.00172627 -0.00046062 -0.00290952
C -3.70897270 2.64938168 23.19647533 -0.00976021 -0.00529032 0.00376327
C 2.30121918 7.66535253 19.43786123 -0.00961592 -0.00780909 -0.00472628
C -4.31691076 6.83497769 19.64320576 0.00345137 -0.00009515 0.00877375
C -10.51237156 2.35119344 22.92722767 0.00574192 -0.00248693 -0.00275424
C -3.93021029 1.88126839 24.38710047 0.00203782 -0.00015416 0.00529864
C 2.49290123 6.90480739 18.27457310 -0.00746541 0.00092975 0.01287723
C -4.15289181 7.55611052 18.42619732 -0.00183064 0.00196500 -0.00560813
C -10.65758324 3.11750056 24.11362937 0.00211427 0.00514300 -0.00212616
C -2.07530125 1.59773911 18.70009218 -0.00530782 -0.00119157 0.00268827
C 0.99547787 6.56069612 24.13452778 -0.00747092 0.00148201 0.00252802
C -6.08359097 7.47030593 23.89941327 -0.00152025 -0.00258092 -0.00097453
C -8.68859914 2.70500118 19.00518770 0.00021761 -0.00475284 -0.00153512
C -3.10446847 2.47430127 18.50682693 0.00034219 -0.00365209 -0.00963909
C -11.51291264 7.15288919 24.21056370 -0.00426941 -0.00122372 0.00743438
C -4.98429485 6.71042588 24.29195969 0.00287440 0.00382878 0.00911634
C 3.46849957 1.89607646 18.29568714 0.00711010 0.00006290 -0.00954944
C -7.14145496 5.02049203 21.78340951 -0.00460998 0.00382112 -0.00139632
C -7.18435035 0.28636743 20.72930155 -0.00327183 -0.00361426 0.00407659
C -0.92677150 4.46959468 20.92947032 0.00012218 -0.00077608 -0.00571004
C -0.38920606 9.30955289 21.96071284 0.00507515 -0.00452111 -0.00220602
C -8.40021754 5.87921631 21.66948491 0.00285958 -0.00300864 0.00292274
C -5.99942922 1.15024678 20.71769663 -0.00183658 -0.00639361 -0.00216840
C 0.11247195 3.38701254 20.94406953 -0.00239370 0.01433782 -0.00608612
C -1.63697265 8.38935718 21.70210609 -0.00491398 -0.00354621 -0.00043803
C 3.15613163 13.30242042 5.21857051 -0.00224327 0.00300046 0.00437900
C 0.18110732 17.99818488 1.13283723 -0.00798582 -0.00183824 0.00541469
C 6.75079408 15.55396959 0.79050674 -0.00020625 -0.00436603 -0.00048643
C 9.60496949 10.89356592 5.11026178 -0.00946737 -0.00041892 0.00396730
C 4.38266138 13.30401620 4.51124018 0.00290710 -0.00567142 0.00090793
C 12.25654616 17.99098813 1.63419540 0.00174717 0.00760860 0.00254747
C 5.57836023 15.55925114 1.54813547 0.00225257 0.00065614 0.00803387
C -2.16695957 10.58899943 4.47850638 -0.00357141 -0.00197347 -0.00758917
C 5.37689517 12.42269795 4.86058406 -0.00099700 0.00554360 0.00272363
C 11.23570558 17.10449683 1.24709042 0.00287099 0.00260115 -0.00071145
C 4.48490480 16.37177246 1.15498985 -0.00378886 -0.00277019 -0.00230812
C -1.27783160 11.56308289 4.86980458 0.00128439 -0.00089552 -0.00108116
C 5.24867884 11.59021686 5.98021079 0.00678958 -0.00096456 -0.00484574
C 11.48475252 16.27200974 0.16977751 0.00018623 0.00045032 0.00133811
C -7.40841020 17.15793222 24.38048181 -0.00258554 0.00378097 -0.01115237
C -1.57061294 12.34404280 5.98877032 -0.00052074 -0.00129928 -0.00744486
C 6.80967021 11.49110241 0.65186047 -0.01237577 0.00253245 -0.00721010
C 9.70072030 16.24738783 5.48658407 -0.00187881 -0.00233786 0.00391973
C 2.85802656 17.34607569 5.66780008 0.00062986 0.00189283 0.00046855
C 0.28063845 12.58584166 0.74328492 0.00237915 -0.00093450 -0.00416578
C 5.79850270 12.26354069 0.17922377 0.00069953 -0.00079703 -0.00532107
C -2.50411123 17.28311351 6.12359659 0.00268661 -0.00830210 -0.00519136
C 3.82255946 16.43660073 5.93301227 -0.00544910 0.00044074 0.00326001
C 12.49274814 11.61644844 0.13060798 -0.00676395 0.00252600 0.00130690
C 1.89160515 14.69332145 3.69201444 -0.00763532 0.00231057 0.00546627
C 1.32191063 9.66887733 2.33130203 0.00166501 0.00324767 0.00086556
C 8.08400356 14.05892335 2.30421983 -0.00278151 -0.00808809 -0.00595711
C 8.44419770 18.79830562 3.49917245 0.00116444 0.00123547 0.00206174
C 0.56357893 15.36774843 3.61271898 0.00430475 0.00204201 0.00250671
C 2.65717200 10.30917869 2.54661883 -0.00475581 0.00692581 -0.00803434
C 9.35060576 13.33720093 2.32840270 -0.00240856 -0.00026373 0.00485049
C 7.34049521 17.87353572 3.36805688 0.00370101 0.00909979 0.00227579
C 0.15458593 13.09437884 11.26771457 0.00230817 -0.00414293 0.00136961
C -2.79576601 18.05376006 7.22036880 -0.00706974 -0.00164308 -0.00032632
C 3.82425851 15.70325610 7.16488677 -0.00223433 -0.00561643 0.00481791
C 6.69448414 10.83457554 11.22921354 -0.00282212 -0.00384569 0.00976058
C 1.30121463 12.97562941 10.53021109 -0.00338139 -0.00541659 -0.00127716
C 9.12255212 18.01005035 7.59093238 0.00544330 0.00026139 0.00532675
C 2.72896525 15.87863201 8.00437826 0.00896947 0.00280086 0.00132594
C 33.95944685 10.87065249 10.50590260 -0.00543953 0.00253011 0.00587484
C 2.41481638 12.24127479 11.06846090 -0.00147483 0.00571104 -0.00262870
C 8.17514060 17.14676362 7.14435732 0.00600352 0.00225074 0.00018308
C 1.71647396 16.79229629 7.74144279 0.00395018 0.00601634 0.00106201
C -4.20455332 11.66640317 10.98919985 -0.00072801 0.00060720 0.00501032
C 2.25536682 11.41649447 12.20691364 0.00510653 -0.00553142 -0.00431299
C 8.42537555 16.31805572 6.07401962 0.00571350 -0.00212245 -0.00419862
C 1.72444564 17.54470287 6.53508341 -0.00340935 -0.00199048 -0.00214519
C -4.45297003 12.45486031 12.19057012 -0.00447720 0.00044031 -0.00037360
C 4.08708434 11.74134832 6.80042488 -0.00857713 0.00347216 -0.00482680
C 6.59468202 16.33863959 11.55066126 -0.00131163 -0.00413050 -0.00187008
C -0.10105364 17.22766944 11.74450781 -0.00522908 0.00394759 0.00018230
C -2.72472920 12.04847136 6.75872627 0.00246089 -0.00359143 0.00330371
C 3.03318679 12.51749155 6.39672719 0.00485820 -0.00188536 -0.00586104
C -5.26638515 17.52921289 12.32031128 -0.00498966 0.00317625 -0.00744972
C 0.89700215 16.31343022 12.12446329 -0.00804902 0.00021746 0.00597851
C 9.39450679 11.83223082 6.07351967 -0.00144851 0.00384279 -0.01095460
C -1.04052852 14.59185498 9.69659337 -0.00222998 0.00069751 -0.00782718
C -1.36362116 9.85012862 8.64776734 -0.00522774 0.00611222 -0.00162117
C 5.11387572 14.22539132 8.60298217 0.00503920 -0.00758550 0.00405815
C 5.44951225 18.87150484 9.63036472 -0.00107205 0.00307165 -0.00604375
C -2.33991225 15.37223637 9.61951598 0.00820894 0.00757747 -0.00526886
C -0.12926707 10.71931515 8.89123102 -0.00207560 -0.00673478 -0.00193685
C 6.45372202 13.59565880 8.83423609 -0.00507349 0.00905938 0.00102819
C 4.30486689 17.95837527 9.34727531 -0.00715633 0.00230455 -0.00197126
C -2.90349601 13.25570520 17.49025389 -0.00239086 -0.00332142 -0.00037933
C -5.60370134 18.37229069 13.33049608 0.00276001 -0.00066196 -0.00308867
C 0.74791065 15.45535307 13.24970251 0.00777414 0.00105623 0.00240083
C 3.61634037 10.79299679 17.30115741 -0.00307351 0.00627428 0.00019295
C -1.64925026 13.15070728 16.76447510 0.00339149 -0.00494856 -0.00109373
C 6.23623072 17.93781216 13.65561684 0.00344893 -0.00182846 0.01027039
C -0.46853005 15.50413914 13.97215644 -0.00802209 0.00383692 0.00238987
C 30.84473192 10.72666878 16.61051140 0.00435260 -0.00289452 0.00043902
C -0.68560563 12.21380215 17.04122719 -0.00152071 -0.00282601 0.00362804
C 5.18524883 17.13769502 13.29091436 0.00023670 0.00316698 -0.00237034
C -1.46284572 16.36092459 13.58083066 -0.00026754 -0.01044293 0.00072749
C -7.38326690 11.65257735 16.95248690 -0.00124701 0.00065080 -0.00318651
C -0.86938398 11.33270479 18.14130375 0.00194818 0.00108926 -0.00018318
C 5.32452785 16.31993163 12.16586898 0.00494832 -0.00371914 -0.00441525
C -1.29149268 17.23628302 12.44708849 -0.01199503 -0.00469007 -0.00224767
C -7.57725546 12.41814961 18.15384222 -0.00593360 -0.00213862 0.00269352
C 0.91962722 11.35327822 12.73881910 0.00565820 -0.00259822 -0.00037993
C 3.49910547 16.22779302 17.69295598 0.00005673 -0.00021050 0.00751149
C -2.96165785 17.10007262 17.89342268 0.00094456 0.00578167 0.00208388
C -5.68393273 12.31550408 12.79012033 0.00075601 -0.00433551 -0.00043796
C -0.04347800 12.28673464 12.36950964 0.00399173 0.00126936 -0.00117129
C -8.36244213 17.25875674 18.37018283 0.00009981 -0.00521587 0.00004199
C -1.98246746 16.22181728 18.28193937 0.00420738 -0.00183925 0.00409057
C 6.52357286 11.53797468 12.40761976 0.00017367 0.00114928 -0.00200948
C -4.14126253 14.62317470 16.06982038 -0.00461354 -0.00545374 -0.00360513
C -4.24705125 9.85951120 15.03010345 -0.00216974 -0.00080480 -0.00200643
C 1.95361535 13.97800956 14.69586091 -0.00804101 0.00086400 -0.00100121
C 2.41677601 18.73549924 15.67269883 -0.00843848 -0.00159096 0.00621970
C -5.31316524 15.54337606 15.96462659 -0.00041255 0.00086881 0.00263503
C -3.11776234 10.82880455 15.22103758 0.00059686 0.00683246 0.00005993
C 3.22005497 13.33137120 14.92558930 0.00307910 0.00262948 -0.00323473
C 1.20747473 17.85043083 15.43897353 -0.00093757 0.00864436 -0.00476266
C -6.07240352 13.14584985 23.51023406 -0.00110178 0.00138042 0.00042812
C -8.54462484 18.02671089 19.54062339 0.00324555 -0.00548100 -0.00366499
C -2.15354913 15.37379414 19.43175247 -0.00302186 0.00028662 -0.00114532
C 0.77215933 10.65346496 23.53747925 -0.00374079 -0.00284554 -0.00175098
C -4.82747620 13.12612107 22.84365135 -0.00376064 0.00214803 0.00020747
C 3.05157945 17.89795959 19.77742457 -0.00349123 0.00214241 0.00161270
C -3.32132436 15.53678819 20.15038871 -0.00173220 -0.00385377 -0.00800281
C -11.23984487 10.84270123 23.09453761 -0.00011593 0.00039849 -0.00202432
C -3.83550290 12.22039771 23.23583552 0.00143815 -0.00213382 -0.00376984
C 2.03893751 17.13980677 19.33568445 -0.00327526 -0.00155610 -0.00899900
C -4.27560010 16.42900142 19.72854575 0.00042233 0.00664071 0.00211120
C -10.22556396 11.56407946 23.66337618 0.00166861 0.00219727 0.00478353
C -4.04188860 11.37838009 24.31714664 0.00446346 -0.00266958 -0.00594250
C 2.25993072 16.25299546 18.28657295 0.00701264 -0.00384013 0.00006375
C -4.09686619 17.31584403 18.66431325 -0.00087188 -0.00490560 -0.00902715
C 1.53866610 12.59147453 0.16802547 -0.00235576 -0.00542968 -0.00454379
C -2.08953250 11.36926853 18.79877669 0.00089847 -0.00086548 -0.00325094
C 0.59006639 16.52117957 23.81127829 0.01071246 0.00097625 -0.00430013
C -6.29917757 17.02836843 23.60884616 -0.00064649 0.00143521 0.00290890
C -8.79216479 12.35213088 18.82539190 -0.00037005 0.00493476 0.00326047
C -3.03444217 12.32571443 18.51050880 0.00259762 -0.00247134 -0.00003438
C 0.38714001 17.21035019 0.06827832 -0.00442078 -0.00137586 0.00573444
C -5.24783851 16.25662281 24.04944926 0.00394165 0.00446177 0.00520479
C 3.49977019 11.54983019 18.53883648 0.00303259 -0.00029784 0.00485687
C -7.30664243 14.52934844 21.87727759 -0.00793013 0.00282182 0.00441861
C -7.68407676 9.89827823 21.06917126 0.00696836 -0.00345038 0.00011660
C -0.80971238 14.08473230 21.00297313 -0.00315766 -0.00095173 0.00346410
C -0.60193511 18.79911974 21.97719064 0.00221650 0.00032387 -0.00421423
C -8.57258181 15.35877511 21.78820287 -0.00675231 -0.00361916 0.00231376
C -6.49668290 10.80803485 21.29699954 0.00556653 0.00043091 -0.00354794
C 0.60923943 13.53506795 21.23851330 -0.00425679 0.00289298 0.00573063
C -1.74202216 17.88670169 21.88313460 -0.00696004 -0.00095848 -0.00484276
C 3.09667856 22.66113842 5.40512321 -0.00120250 0.00385465 -0.00332184
C 0.65919276 27.51260699 1.04220843 -0.00187743 0.00303267 -0.00113719
C 7.20594661 25.02900702 1.05952732 0.00245162 -0.00421838 -0.00339015
C 9.51694959 20.20674446 5.14015819 -0.00263517 0.00469415 -0.00332162
C 4.28720476 22.47341647 4.65631147 0.00512949 -0.00121237 0.00521284
C 12.28834805 27.52049773 1.57993135 0.00369715 0.00723909 -0.00062018
C 5.98858239 25.23690556 1.76469202 -0.00157328 0.00156393 -0.00280462
C 36.92202933 20.17727933 4.64923082 0.00484661 0.00005782 -0.00407874
C 5.18859615 21.49189298 5.00244000 0.00232337 0.00223150 0.00537027
C 11.22468544 26.75330456 1.14373339 -0.00585043 0.00176929 -0.00805414
C 5.11356457 26.18561496 1.37536380 -0.00531668 0.00142928 0.00237830
C -1.37050080 21.11950121 5.06868015 0.00372805 0.00205933 0.00506411
C 5.08365944 20.77257316 6.22663570 -0.00260585 0.00009846 -0.00329447
C -0.67038020 25.96553299 24.41791512 0.00705228 0.00110222 0.00605958
C 5.39404249 27.03079269 0.24324335 0.00332162 -0.00625992 -0.00314090
C -1.72530708 22.15500075 5.92890806 0.00116579 0.00018437 0.00663822
C 6.75417389 21.24978610 0.50930000 0.00918920 -0.00091155 0.00176992
C 9.87834606 25.87961337 5.66970099 -0.00012868 0.00105557 0.00114937
C 3.28897888 26.69871511 5.42781042 -0.00233231 0.00566780 0.00047650
C 0.05487667 21.72053967 0.93101772 0.00372255 -0.00555772 -0.00065639
C 5.86053284 22.22428769 0.21002618 0.00034517 0.00165853 0.00355246
C -2.39916786 26.99287357 5.77269468 -0.00197575 -0.00423493 0.00485987
C 4.19916090 25.74134022 5.82025484 0.00464326 -0.00021673 -0.00164237
C 12.44297341 21.26812770 0.09351000 0.00543965 -0.00914220 -0.00406487
C 2.07586513 24.21795594 3.86566482 0.01215938 0.00456021 -0.00555028
C 1.40221064 19.26087563 2.67601358 -0.00527955 -0.00289578 0.00517525
C 8.33010695 23.48702268 2.51811384 0.00022589 0.00053689 0.00090795
C 8.70179267 28.56000040 3.55726514 0.00175943 -0.00182576 -0.00728296
C 1.03473031 25.22874640 3.64883867 0.00525317 -0.00727919 -0.00356345
C 2.70677082 20.00841128 2.76270076 -0.00223565 0.00401450 0.00437824
C 9.60524931 22.56567757 2.56805844 -0.00064888 -0.00305400 0.00482019
C 7.45024622 27.68969143 3.35251625 0.00052109 0.00228152 0.00182313
C 0.02877201 22.95330184 11.15993493 -0.00093715 -0.00358747 0.00790326
C -2.57491605 27.76891223 6.98118670 -0.00102969 -0.00395909 0.00541450
C 3.98411174 24.97032867 7.00635601 -0.00406323 0.00035628 -0.00502149
C 6.67760780 20.14884646 11.23849378 -0.00001823 -0.00562013 -0.00768064
C 1.28138660 22.84488006 10.51498291 -0.00579358 -0.00183020 -0.00829834
C 9.44693571 27.47383585 7.89692005 0.00139508 -0.00215617 -0.00328976
C 2.74683197 25.11397657 7.71502195 -0.00202360 -0.00176693 -0.00994179
C 33.98895364 20.49550262 10.38651169 -0.00521641 0.00693193 -0.00280246
C 2.21761942 21.92397881 10.97179779 0.00008931 0.00018820 -0.00299445
C 8.45294433 26.61918537 7.51069600 -0.00533324 0.00520907 -0.00797308
C 1.92977455 26.09117995 7.38531990 0.00255913 0.00098545 -0.00547153
C -4.20891078 21.25132250 10.92969581 0.00288271 0.00673851 -0.00252141
C 1.99479773 21.09410153 12.14722686 -0.00168808 -0.00126322 0.00152162
C 8.64760308 25.79110019 6.36126535 -0.00010336 -0.00477137 0.00158152
C 2.15350790 26.88540466 6.22041137 -0.00104791 -0.00109215 0.00408806
C -4.39238119 22.17642141 12.01670099 0.00552940 -0.00509320 -0.00157373
C 3.95177769 21.03803813 7.02668671 0.00404830 -0.00028289 -0.00020735
C 6.92989984 25.79208181 11.78245374 -0.00232394 -0.00559783 -0.00456936
C 0.26560848 26.81157124 11.44374489 -0.00229726 -0.00691787 -0.00111961
C -2.99781204 22.15470417 6.52295465 -0.00977668 0.00397887 0.00273416
C 2.90349479 21.85325159 6.52964372 -0.00094909 0.00869759 0.00083180
C -5.51826759 26.90443006 11.99283428 0.00164624 -0.00585741 0.00849278
C 1.17658586 25.94527991 11.94292093 -0.00106061 0.00800867 -0.00058361
C 9.36016656 21.06396936 6.25770759 0.00114712 0.00166877 -0.00484671
C -1.09003825 24.44707443 9.62987516 -0.00117608 0.00185816 -0.00141978
C -1.71152364 19.48516183 8.86151425 0.00160045 0.00521760 -0.00465646
C 5.07173622 23.54964306 8.61229980 -0.00065142 0.00042776 0.00166429
C 5.56048348 28.33146098 9.81120865 0.01034672 0.00800300 -0.00820425
C -2.26785879 25.32929492 9.55986867 -0.00205176 -0.00118696 0.00406660
C -0.45724895 20.38653115 9.06964270 -0.00507864 0.00443957 0.00130549
C 6.17513852 22.56762793 8.79970343 -0.00701712 0.00094291 -0.00018295
C 4.49107358 27.20418470 9.78595016 -0.00195346 0.00019374 -0.00705838
C -2.87215896 22.84659698 17.28025675 0.00068262 -0.00144535 -0.00008791
C -5.69918832 27.77907786 13.03284838 -0.00337995 0.00291569 -0.00186422
C 0.95377107 25.13253537 13.09866204 0.00074483 -0.00525458 -0.00319493
C 3.66146308 20.06531570 17.32000010 -0.00230975 0.00005184 -0.00285280
C -1.61291420 22.82200705 16.67701033 0.00163865 0.00281364 -0.00020283
C 6.46250772 27.40752849 14.04308858 -0.00473708 0.00000172 -0.00301778
C -0.26919042 25.25905702 13.77768906 -0.00715166 0.00174992 -0.00641225
C 30.98339523 20.37568941 16.70696771 0.00065445 -0.00099102 0.00926409
C -0.67598023 21.91913724 17.13958095 0.00099234 0.00453789 -0.00325251
C 5.45066807 26.61458618 13.52939687 0.00172068 0.00477210 -0.00157421
C -1.15858042 26.16676229 13.28237521 -0.00587928 0.00003659 0.00085644
C -7.24997100 21.30257706 16.94678115 0.00142077 0.00105436 0.00296785
C -0.97286772 21.03080903 18.16444479 0.00417353 -0.00157302 -0.01029322
C 5.68680161 25.74583992 12.38659976 -0.00040745 0.00193841 0.00380207
C -0.97235737 26.91868053 12.07744713 0.00416076 0.00309353 -0.00249490
C -7.37249273 22.21649804 17.96527427 0.00187575 -0.00592187 -0.00711583
C 0.69837878 21.23327020 12.72449636 0.00156624 -0.00300171 0.00423829
C 3.86928539 25.79087260 17.77320853 0.00748160 -0.00053934 -0.00337670
C -2.85776935 26.56280875 17.60879929 0.00456013 0.00032555 -0.00332262
C -5.65990126 22.17860377 12.65113623 -0.00707883 -0.00226497 0.00189073
C -0.23768989 22.12952773 12.25221184 0.00674463 -0.00527772 0.00155690
C -8.41598282 26.96865595 18.05085962 -0.00426986 0.00195738 0.00371756
C -1.92646963 25.71253321 18.16542704 0.00279049 0.00725520 0.00680768
C 6.51011904 21.04692966 12.29813251 0.00328611 -0.00129619 -0.00419712
C -3.88919545 24.25508104 15.72368493 -0.00143482 0.00152834 -0.00641307
C -4.51303594 19.67149748 14.98978190 0.00417482 -0.00192892 -0.00242486
C 1.96059130 23.49008869 14.63728928 -0.00055938 -0.00358441 -0.00099404
C 2.44015827 28.23221468 15.81862436 0.00018915 -0.00629557 -0.00194170
C -4.95860979 25.15048284 15.26203444 0.00231320 0.00208259 -0.00239553
C -3.37617126 20.60002391 15.26802648 -0.00498125 -0.00398884 0.00353169
C 3.21857373 22.60803347 14.80946300 -0.00060996 0.00204578 0.01164728
C 1.16726590 27.36110448 15.71796113 0.00174352 0.00101140 -0.00019920
C -5.97839316 23.12254328 23.58433215 0.00439635 0.00020043 -0.00191798
C -8.55201351 27.69810376 19.24537252 -0.00554892 0.00359763 0.00528029
C -2.14403686 24.91330048 19.32901219 0.00282950 0.00054363 -0.00272849
C 0.56660180 20.37825361 23.45962874 -0.00043153 0.00031816 -0.00404161
C -4.81619779 22.94788351 22.78598560 -0.00556740 0.00254975 -0.00167544
C 3.21437422 27.43273222 19.98246379 0.00306835 -0.00285428 0.00020898
C -3.35135259 25.06840531 19.98847532 0.00461310 -0.00184975 0.00315714
C 27.73927008 20.18411630 22.99690861 0.00392217 -0.00412729 0.00370103
C -3.94922403 21.90087602 23.10689677 -0.00686209 0.00171597 -0.00191841
C 2.27103409 26.59290585 19.39223439 -0.00107566 0.00568961 -0.00407345
C -4.31937078 25.99387906 19.47961173 -0.00629447 -0.00048153 -0.00203458
C -10.42688427 20.96845569 23.54507291 -0.00343225 -0.00767291 0.00591401
C -4.11789845 21.10120186 24.22539586 0.00474092 0.00716501 -0.00425498
C 2.52426701 25.81740230 18.25454982 -0.00107138 -0.00121063 0.00046129
C -4.06325787 26.71293306 18.29063214 0.00531730 0.00446295 0.00013106
C 1.32326002 21.75132175 0.27841477 0.00595162 -0.00058719 0.00078236
C -2.26495112 21.02311591 18.71653043 0.00245691 0.00906698 -0.00299888
C 0.58552985 25.99682827 23.70997655 -0.00519807 -0.00428025 -0.00313782
C -5.42509141 26.89745398 24.05583023 -0.00810890 -0.00635816 -0.00458806
C -8.50241821 22.07637727 18.75616861 0.00395427 -0.00169198 0.00431385
C -3.17005684 21.92686380 18.29063507 -0.01077318 -0.00710842 -0.00035118
C -11.20227591 26.65688127 24.36498974 0.00016936 -0.00342084 -0.00417782
C -4.54976382 25.86843859 24.42417887 -0.00179314 0.00227164 -0.00197588
C 3.49497644 20.82646417 18.47955620 0.00266038 0.00218471 -0.00452513
C -7.50334994 24.34344625 22.08498860 0.00197434 0.00439468 0.00498948
C -7.52272422 19.61257133 20.96384182 -0.00446951 -0.00172639 0.00199890
C -0.91286672 23.46729484 20.91188587 0.00257370 0.00031374 -0.00166628
C -0.64029788 28.50617457 21.92153241 -0.00010686 -0.00052526 -0.00291908
C -8.76313418 25.15322254 21.92448927 -0.00231502 -0.00045795 -0.00489662
C -6.46749437 20.60330541 21.18368604 0.00586668 -0.00394740 -0.00645232
C 0.25729778 22.55023508 20.93777298 -0.00037599 0.00010589 0.00163307
C -1.76399591 27.53010687 21.77288556 0.00524099 -0.00396613 -0.00286739
C 16.12851808 3.71308688 5.03885915 0.00430295 -0.00568556 0.00427478
C 13.71163421 8.44479638 1.11609651 -0.00148528 -0.00340305 -0.00675750
C 20.02339555 5.86061270 0.70251238 0.00789047 -0.00407976 -0.00454924
C 22.87130869 1.27817311 5.19352357 -0.00258802 -0.00112765 -0.01118039
C 17.33479715 3.67718521 4.31179521 0.00169335 0.00862934 -0.00177489
C 25.38513090 8.37526864 1.63599553 0.00666022 -0.00585832 0.00349993
C 18.77847160 5.79462860 1.39200041 -0.00516657 0.01113218 -0.00326624
C 10.98906219 1.38455217 4.56462955 -0.00163802 -0.00164406 -0.00355430
C 18.30310645 2.68045838 4.65616738 0.00187341 -0.00694867 0.00855979
C 24.37997885 7.50910868 1.26548731 -0.00162921 0.00094311 -0.00262929
C 17.76181026 6.66800827 1.10921405 0.00197446 0.00228329 0.00825039
C 11.94337620 2.23193897 4.98104597 0.00096399 0.00119241 0.00486123
C 18.19570801 1.88704374 5.81802326 -0.00279429 0.00419148 -0.00352737
C 24.51970064 6.71508111 0.12024227 0.00480192 -0.00155021 0.00180067
C 5.80977501 7.56607520 24.43009320 0.00446090 0.00357713 -0.01002359
C 11.66737576 3.11508711 6.12518227 0.00377927 -0.00054472 -0.00443723
C 20.16837316 2.13047619 0.31387393 -0.00399581 -0.00290879 0.00193124
C 23.03832172 6.83584496 5.41230380 -0.00225316 0.00861715 0.00041950
C 16.32489979 7.57562054 5.52802266 0.00325229 -0.00221965 0.00183085
C 13.65223189 2.69316773 0.69887750 0.00148784 0.00295624 -0.00162668
C 7.13977817 2.92264203 24.26439579 0.00509899 -0.00548344 0.00167604
C 10.55284283 7.83107382 6.00164421 -0.00169021 -0.00472497 -0.00087029
C 17.27864888 6.72269850 5.94384180 -0.00782749 0.00535233 0.00151056
C 25.79544612 1.91307855 0.03495659 0.00008350 -0.00847525 0.00189548
C 14.82817408 4.94420526 3.55812443 -0.00533792 0.00546185 0.00092963
C 14.66917578 0.01424513 2.62403244 -0.00531429 0.00246320 0.00192744
C 21.29017300 4.42565553 2.24701624 0.00295135 0.00192250 -0.00189791
C 21.34958757 9.14158619 3.51292905 0.00397907 0.00712039 -0.00212774
C 13.75483932 5.98784253 3.36518646 0.00397716 -0.00057592 0.00792199
C 15.69967444 1.08417626 2.80804288 0.00437257 -0.00161090 0.00241734