2880
Time=77000.00000008 pbc="T T T" Lattice="39.10859469 0.00000000 0.00000000 0.00000000 28.92598299 0.00000000 -12.01938728 0.00000000 24.36677555" energy=-18398.05479240 virial="42.80754785 6.56085217 -46.80844431 6.56085217 21.84305152 20.19866809 -46.80844431 20.19866809 9.96709973" stress="0.00415172 0.00019684 -0.00170289 0.00019684 0.00331806 0.00071741 -0.00170289 0.00071741 0.00293443" Properties=species:S:1:pos:R:3:vel:R:3
C 3.29441214 3.79664245 5.00852431 -0.00171294 0.00315015 -0.00426119
C 0.29242188 8.38374026 0.91864564 -0.00683097 0.00635661 0.00440158
C 6.91414218 6.07643584 1.03613303 -0.00093563 -0.00278775 0.00604636
C 9.44078301 0.95840944 4.97590341 -0.00492899 -0.00205958 -0.01226343
C 4.56859203 3.69554765 4.44899883 0.00503320 -0.00060907 0.00109792
C 12.23695957 8.60569285 1.43225599 -0.00217359 -0.00052684 -0.00338828
C 5.63425615 6.11063140 1.59084898 -0.00554836 -0.00362039 0.00275244
C -2.00904167 1.31809445 4.55489638 0.00597050 -0.00158748 0.00224507
C 5.52341167 2.82700479 4.94831028 0.00038133 0.00313652 -0.00255293
C 11.27153933 7.66374561 1.10162564 0.00527856 -0.00453884 0.00781291
C 4.64410941 7.04188031 1.13262776 -0.00039289 0.00316109 -0.00950583
C -1.06961113 2.26853148 4.88428076 -0.00304349 -0.00283092 -0.00346801
C 5.17229099 2.02961728 6.04577524 -0.00062086 -0.00033100 -0.01024405
C 11.41435996 6.79163151 0.00706864 -0.00310057 0.00335885 -0.00044903
C 5.00127022 7.85775518 0.03903531 -0.00487743 0.00125903 0.00528108
C -1.28650802 3.16746009 5.91017321 -0.00041315 -0.00570027 0.00114617
C 6.79469309 2.13371168 0.47051116 -0.00262793 -0.00267351 -0.00310064
C 9.68884677 6.77204990 5.55580112 0.00114678 -0.00281300 0.00231063
C 3.18302033 7.76543743 5.48385520 0.00730465 0.00105756 -0.00514211
C 0.34011331 2.76262110 0.42966127 0.00003026 -0.00333473 -0.00499068
C 5.86254573 3.07831618 0.10479571 -0.00333196 -0.00329749 -0.00649366
C -2.73929514 7.58956353 5.90470238 0.00245937 -0.00906134 0.00301169
C 4.14952025 6.89155737 6.02898120 -0.00145318 -0.00052228 -0.00148846
C 12.61665806 2.02119558 0.47143892 -0.00555972 -0.00021560 0.00023716
C 2.05700684 5.07120061 3.34048565 -0.00678690 0.00197017 0.00106107
C 1.88244485 0.30840034 2.70828144 0.00519877 0.00489636 -0.00307552
C 8.10139815 4.86280953 2.76226735 -0.00189901 -0.00085851 -0.00475657
C 8.60291457 9.43852875 3.43876638 0.00618674 -0.00314752 0.00601178
C 0.71740249 5.79156136 3.03157867 0.00485500 -0.00247823 0.00186644
C 3.12103000 1.20337702 2.80318815 0.00794080 0.00535978 -0.00214080
C 9.22721919 3.85945200 3.05764191 0.00538552 -0.00443003 0.00322951
C 7.51515717 8.43205511 3.12960702 0.00654172 -0.00068205 0.00762823
C 0.12069577 3.51141736 11.13875120 -0.00405965 -0.00557998 0.00304058
C -3.00400617 8.45226024 7.01922376 -0.01039098 0.00566664 -0.00376363
C 3.87140172 6.03535501 7.09933163 0.00670123 -0.00329538 -0.00300867
C 6.62100476 1.14150755 11.22136879 0.00654363 -0.00037908 0.00446692
C 1.38914802 3.53509597 10.49457419 -0.00103107 -0.00140367 0.00214810
C 9.21342040 8.51457488 7.75178839 -0.00512445 0.00645340 -0.00006393
C 2.58740956 6.03058661 7.67330807 0.00073723 0.00598823 -0.00505191
C 33.86454453 1.11633216 10.40542866 -0.00028107 0.00541134 0.00336661
C 2.39231102 2.73161015 10.93183620 -0.00577481 -0.00155567 -0.00245659
C 8.26593148 7.49845967 7.45600556 -0.00231753 -0.00966432 0.00624620
C 1.67815060 6.99740130 7.17650221 -0.00158230 -0.00208999 0.00832707
C -4.27506904 2.01753862 10.75506245 -0.00090239 -0.00635240 -0.00308444
C 2.26045986 1.91028187 12.12678088 0.00220743 -0.00617556 0.00734150
C 8.51423006 6.66248645 6.34377970 -0.00423198 -0.00134388 0.00003617
C 1.88753600 7.84062268 6.12198935 -0.00145137 0.00143283 0.00949499
C -4.45150594 2.80216024 11.94412708 0.00484494 -0.00295741 -0.00209008
C 3.98868387 2.27010134 6.70736262 0.00212050 -0.00369459 -0.00196602
C 6.62483775 6.92162967 11.67268482 0.00042124 0.00690899 -0.00136452
C 0.27338835 7.73421011 11.57273410 -0.00522964 0.00324585 -0.00126343
C -2.49842735 3.03888167 6.66665364 -0.00203489 -0.00020091 0.00193682
C 3.04244774 3.06657189 6.15922126 -0.00825919 -0.00734219 0.00620598
C -5.20338816 7.89758711 12.10553964 0.00199880 0.00246653 0.00534359
C 1.20641006 6.82506343 11.90181889 0.00036775 -0.00136403 -0.00224050
C 9.21319991 1.73658945 6.14820163 -0.01033578 0.00293474 -0.00339907
C -1.08765366 5.08480887 9.63376605 0.00615222 0.00280239 0.00620397
C -1.56523450 0.20239031 8.91241481 0.00100017 -0.00279553 0.00070092
C 4.98193347 4.61000405 8.75064231 0.00057125 0.00155427 0.00782190
C 5.44260093 9.26543936 9.79728681 0.00589814 -0.00687697 -0.00406032
C -2.20912966 6.07153665 9.45180909 -0.00110702 -0.00109070 0.00341321
C -0.36858699 0.94308753 9.17016700 -0.00045381 -0.00041473 -0.00937376
C 6.10523983 3.65083586 8.91806709 0.00362306 0.00346047 0.00327694
C 4.27995907 8.35194276 9.86407344 -0.00767422 -0.00281146 0.00359856
C -2.87173946 3.91792053 17.31602855 0.00788293 -0.00403983 0.00303531
C -5.49576585 8.75477564 13.15529531 0.00007201 0.00274533 0.00212250
C 1.00407391 5.96004866 12.97865782 -0.00644665 -0.00098609 -0.00384988
C 3.65718038 1.17615284 17.24437336 0.00096742 0.00220427 0.00289725
C -1.71732327 3.77101017 16.60463164 0.00326647 0.00207937 0.00214675
C 6.47180197 8.20032633 14.17138838 0.00379604 -0.00345465 0.00523481
C -0.21462144 6.05857708 13.67764038 -0.00199360 0.00349549 0.00774620
C -7.82674552 1.14479031 16.58535443 0.00918563 -0.00138320 0.00014630
C -0.75949173 2.89078455 16.99154869 -0.00158953 0.00140005 -0.00203866
C 5.45547038 7.29575702 13.74228739 0.00434352 -0.00192896 0.00067233
C -1.18836730 6.95538635 13.28070439 0.00314485 -0.00224318 -0.00202852
C -6.91957589 2.08645603 17.02399339 -0.00010267 -0.00115334 -0.00246031
C -0.85184241 2.19294037 18.22102310 -0.00895366 -0.00042567 0.00717118
C 5.48679821 6.72971641 12.45421345 0.00091479 0.00432752 0.00264740
C -0.90156172 7.94140294 12.35618996 -0.00092920 -0.00260977 0.00446852
C -7.16730419 2.76300903 18.19649244 -0.00586102 0.00451327 0.00638730
C 1.02240877 1.97239412 12.75788754 -0.00409135 -0.00538749 -0.00113962
C 3.65266843 6.78718603 17.87332141 0.00185014 0.00560718 0.00000384
C -2.76932646 7.89689510 17.68759347 -0.00242254 0.00128107 0.00527333
C -5.67636240 2.74054161 12.65920705 0.00391561 -0.00118777 -0.00387534
C 0.01377820 2.82412215 12.35153027 -0.00386665 -0.00527552 -0.00032992
C -8.31539751 7.89802679 17.88154865 -0.00311619 0.00210771 -0.00669082
C -1.84007606 6.94612469 18.11763942 -0.00081769 -0.00899744 0.00111376
C 6.48788324 1.99756754 12.32833992 0.00078047 0.00764299 -0.00033620
C -4.06011890 5.11528150 15.63494454 0.00399177 -0.01001436 0.00765113
C -4.45244317 0.40015339 14.69732574 0.00635991 0.00216229 -0.00429724
C 2.25910258 4.68119175 14.62634922 -0.00114411 -0.00082145 -0.00174656
C 2.54182050 9.19709768 15.59390151 0.00470493 -0.00295835 -0.00005578
C -5.28017950 5.88390658 15.23797884 -0.01157468 -0.00171518 -0.00309411
C -3.32640862 1.34842252 15.00742850 0.00755507 0.00124202 -0.00218984
C 3.64128195 4.06526670 14.97789393 0.00003745 0.00243579 -0.00207294
C 1.45021693 8.33744510 15.27398414 0.00108349 0.00669510 0.00231345
C -5.84583051 4.00668751 23.40195606 0.00257258 -0.00730778 -0.00221023
C -8.29169161 8.56508247 19.16751751 0.00449548 0.00247258 0.00851814
C -2.03277143 6.15969077 19.26685831 0.00339858 -0.00275198 -0.00755349
C 0.65106018 1.29192526 23.67941632 0.00251066 -0.00954420 -0.00175550
C -4.60909498 4.02138619 22.79564822 0.00969224 0.00944320 -0.00530709
C 3.06609344 8.54339942 19.82591295 -0.00015680 0.00659468 -0.00448858
C -3.25333166 6.33222367 19.92812685 0.00135452 -0.00710366 -0.00349863
C 27.72583215 1.03541538 22.64906987 -0.00200945 -0.00070224 0.00316174
C -3.74724203 2.94730792 23.07460405 0.00550262 -0.00096307 -0.00294049
C 2.05038557 7.76193797 19.34235024 0.00077698 -0.00487591 0.00459021
C -4.20157901 7.24684434 19.57215911 -0.00617808 -0.00324355 0.01029435
C -10.36170173 1.95605274 22.87803439 -0.00322555 -0.00671835 -0.00113501
C -3.97283044 2.04487590 24.09383491 0.00064457 0.00453663 -0.00316466
C 2.31230242 6.87565607 18.32237391 0.00286879 0.00181453 -0.00005366
C -4.01875474 7.94167432 18.31516039 -0.00469431 -0.00550193 0.00655088
C -10.46910422 2.75282070 24.03093473 -0.00264698 -0.00122666 0.00139211
C -1.99543743 2.43373814 18.97817692 0.00199430 0.00229656 0.00353888
C 0.69586836 6.74481903 23.78163081 0.00062152 0.00214543 -0.00468890
C -5.73749957 7.75059982 23.79850061 0.00951820 -0.00256510 -0.00604596
C -8.39547292 2.62762911 18.84873677 0.00046955 0.00554929 -0.00201705
C -3.03481939 3.20238170 18.46658245 0.00546106 0.01259441 0.00107678
C -11.40300631 7.49075165 24.22769600 0.00499981 0.00384424 0.00746629
C -4.76403425 6.92513292 24.33407988 -0.00108439 -0.00670861 -0.00941990
C 3.45305787 2.02544484 18.40468862 -0.00095723 0.00360314 -0.00552357
C -7.07957224 5.23178620 21.83915341 -0.00184745 -0.00022863 -0.00442835
C -6.96640995 0.25233236 20.69202312 0.00382327 0.00068861 0.00667689
C -1.07262031 4.50830831 20.82328601 -0.00216719 -0.00130583 0.00703865
C -0.46126527 9.60101285 21.75434717 0.00650711 0.00401049 -0.00356638
C -8.38079798 5.91277950 21.67454636 0.00223064 -0.00246428 -0.00523453
C -5.72754946 1.12002218 20.87594155 0.00552030 0.00497085 -0.00460470
C 0.27529355 3.82447742 21.17779300 -0.00338513 0.00205827 0.00465913
C -1.79055286 8.98786561 21.45299275 -0.00499258 -0.00400238 0.00178335
C 3.12072211 13.25054452 5.08914163 -0.00302582 -0.00154403 -0.00079855
C 0.36812898 17.84852055 0.92712501 -0.00449941 -0.00190909 -0.00064269
C 6.91995586 15.41066990 0.83283420 0.00143863 0.00609116 -0.00028398
C 9.66964577 10.83852989 5.08815065 -0.00125354 0.01180990 -0.00560516
C 4.34520833 13.16942503 4.48802365 0.00203993 0.00211449 0.00134715
C 12.48179118 18.11843710 1.61430666 0.00297342 -0.00237308 0.00281594
C 5.68960615 15.41079498 1.48928718 0.00589480 -0.00412493 -0.00596922
C 36.67895462 10.86733566 4.34697806 0.00074812 0.00076144 -0.00174580
C 5.25709977 12.25842523 4.92015388 0.00411036 0.00699435 -0.00352354
C 11.57462462 17.16931267 1.13142039 0.00611319 0.00202338 0.00057746
C 4.77639088 16.37925304 1.14643693 0.00060972 -0.00517984 0.00121848
C -1.37230657 11.57375123 4.91311740 -0.00027638 -0.00239976 0.00389628
C 5.08169427 11.51103467 6.07061914 0.00469075 -0.00049866 -0.00322129
C -0.17565548 16.45777272 24.29389540 -0.00156470 0.00360090 0.00505707
C -7.13892147 17.14976943 24.27804100 -0.00423859 0.00787924 -0.00238661
C -1.57171230 12.39803766 6.02130612 -0.00747851 0.00556550 -0.00097134
C 6.67776758 11.65957335 0.35871798 0.00091287 -0.00396531 0.00402361
C 9.55789381 16.42665825 5.38977959 0.00296333 -0.00047562 -0.00364697
C 3.05627578 17.20320960 5.55479698 0.00095303 -0.00567956 0.00484585
C 0.38009227 12.41601520 0.57758691 0.00333717 0.00144414 -0.00724921
C -6.32664281 12.63262610 24.36095568 -0.00709466 -0.00203040 0.00311540
C -2.37124160 17.14147572 6.00676836 0.00319774 -0.00193978 -0.00121866
C 4.00977061 16.30816154 5.94229491 0.00338954 -0.00212450 -0.00334849
C 12.41104075 11.78667420 0.11697271 -0.00746592 0.00389085 -0.00645921
C 1.97716088 14.64590811 3.43840360 -0.00302064 0.00026059 0.00332037
C 1.43826354 9.86231187 2.44291912 -0.00534565 0.00278233 -0.00057238
C 8.19128277 14.01196362 2.45965422 0.00381868 -0.00247609 0.00229636
C 8.43206116 18.88355484 3.70937245 0.00103158 -0.00635533 -0.00477075
C 0.62693560 15.31639526 3.20451573 -0.00475828 -0.00068344 -0.00339872
C 2.58874303 10.80453503 2.68553602 -0.00375579 0.00484973 0.00845945
C 9.59163896 13.30642507 2.72316515 0.00682916 0.00133089 0.00084306
C 7.24607083 17.93334957 3.69770392 -0.00643335 -0.00295849 0.00316149
C 0.03159479 13.30103831 11.47328838 0.00022717 0.00385593 0.00127285
C -2.69518389 18.05976682 6.98358018 0.00428346 -0.00268279 -0.00242330
C 3.90081821 15.58166128 7.12378648 -0.00024582 -0.00087544 0.00368501
C 6.70404692 10.80626194 11.18496232 0.00173830 -0.00290793 -0.00266927
C 1.15161240 13.16033676 10.64294940 0.00753376 0.00146838 -0.00168215
C 9.19476777 17.99974116 7.59137553 0.00107103 -0.00542604 -0.00161605
C 2.71318419 15.71677200 7.89604868 0.00019955 -0.00303652 0.00933387
C 33.72183094 11.14483622 10.48966618 -0.00869772 -0.00480182 -0.00583662
C 2.17098264 12.23354254 10.93501650 0.00085145 0.00172626 -0.00133107
C 8.29388419 16.96937570 7.31994046 -0.00193119 -0.00059810 0.00197173
C 1.76956394 16.59145970 7.47027274 -0.00312950 -0.00270469 -0.00481477
C -4.44351464 12.06809505 10.88809416 0.00276468 -0.00527304 0.00541207
C 2.11778263 11.51785744 12.12050577 -0.00454701 -0.00682800 -0.00083534
C 8.37891590 16.22660235 6.11959361 0.00344656 0.00734613 0.00582055
C 1.92972493 17.34061501 6.31625357 -0.00899975 0.00711816 -0.00509404
C -4.73040966 12.92773313 11.92260088 -0.00240297 0.00047737 0.00199616
C 3.91106108 11.74953001 6.82837852 -0.00742716 -0.00144930 -0.00229076
C 6.53298128 16.60211348 11.55920234 -0.00991335 -0.00122207 -0.00364628
C 0.09221435 17.22380743 11.42565744 -0.00205107 0.00110579 0.00858144
C -2.79613818 12.37885087 6.68662159 0.00094801 0.00832387 -0.00054621
C 2.95286483 12.50249905 6.22213097 0.00055886 0.00222519 -0.00972438
C -5.57617576 17.63994118 11.72877740 0.00412626 -0.00352325 -0.00191082
C 1.10276993 16.42310504 11.93126113 -0.00168222 -0.00127129 -0.00046044
C 9.50444961 11.58630797 6.26603531 -0.00023263 0.00341333 0.00074648
C -1.34361375 14.71671230 9.94864407 0.00143659 0.00505860 0.00754016
C -1.71069991 9.77860777 8.68566644 0.00175504 -0.00958732 0.00356929
C 5.11406270 14.16076117 8.65075504 -0.00111483 -0.00630986 -0.00128913
C 5.43696904 19.14628621 9.57522680 0.00125116 -0.01381741 -0.00374827
C -2.42808190 15.75436296 9.94610630 0.00194614 0.00326379 0.00452225
C -0.54469612 10.57495014 8.93740603 -0.00637602 0.00403153 -0.00148374
C 6.22915636 13.12201467 8.90201735 0.00887676 -0.00435535 0.00157927
C 4.36237112 18.13484181 9.42892140 0.00113991 0.00436835 0.00696129
C -2.84222999 13.59730596 17.02716140 -0.00782454 -0.00239799 0.00259951
C -5.73595902 18.37622980 12.86117790 -0.00739349 -0.00537377 0.00318219
C 0.87752686 15.73386429 13.08328794 0.00233209 0.00076197 -0.00397039
C 3.56693156 10.80313043 17.07577707 -0.00915783 0.00255796 0.00384170
C -1.63064797 13.36745376 16.41120713 -0.00099349 0.01399515 0.00076759
C 6.02449599 18.15680191 13.80915018 -0.00249951 -0.00830583 -0.00707048
C -0.29305995 15.85534024 13.86586162 -0.00180559 -0.00097490 -0.00230040
C -8.20306856 10.79379691 16.69198205 0.00185883 0.00711292 -0.00604911
C -0.83047645 12.33875324 16.93703368 -0.00186666 0.00534643 -0.00319324
C 4.99948164 17.33701999 13.35329581 0.00798639 -0.00094386 0.00861618
C -1.34483813 16.59458590 13.33818560 -0.00274647 -0.00559472 -0.00095023
C -7.21232581 11.62291095 16.97780951 -0.00249323 -0.01144714 0.00110642
C -1.17963550 11.54700458 18.09044966 -0.00520033 0.00458109 -0.00280009
C 5.26128331 16.51297665 12.14574025 -0.00503497 -0.00614978 -0.00809997
C -1.11380402 17.42679483 12.19376305 -0.00793969 0.00380286 0.00447160
C -7.27394400 12.43942116 18.11149571 0.00170924 0.00230492 -0.00130116
C 0.93886613 11.68470145 12.96546960 0.00056998 -0.00169266 0.00178635
C 3.74938759 16.72128791 17.73937050 0.00274874 -0.00191593 0.00164361
C -2.80136299 17.51741302 17.72263251 -0.00541761 0.00526324 -0.00112393
C -5.92220453 12.77006052 12.64706690 0.00129082 -0.00215741 -0.00029426
C -0.06523257 12.65167445 12.73036672 -0.00119056 0.00001296 -0.00329345
C -8.54105010 17.28062323 18.12836634 -0.00051177 -0.00472688 0.00413231
C -1.80557057 16.57849701 18.07844358 0.00203920 0.00439888 -0.00223250
C 6.41536164 11.76176644 12.10782185 0.00357431 -0.00384854 0.00534182
C -3.86231349 15.00037462 15.34889259 -0.00495388 0.00319423 0.00305145
C -4.30075137 10.23495159 14.61263982 0.00736600 0.00373539 -0.00185421
C 2.03355705 14.27631937 14.69257327 -0.00607783 0.00260601 -0.00075624
C 2.18511217 19.12546894 15.78114077 0.00046758 -0.00110074 0.00080178
C -5.00409315 15.85608099 15.01956088 -0.00162639 -0.00034037 0.00601355
C -3.28265057 11.30653011 14.87001712 0.01050556 0.00262084 -0.00079776
C 3.24239241 13.43362236 14.95615775 0.00246693 -0.00076423 -0.00615902
C 0.95482758 18.33512690 15.41429758 -0.00220395 0.00363471 -0.00973594
C -6.11740030 13.45096032 23.20549914 -0.00423057 -0.00218741 0.00657754
C -8.80303276 18.15349353 19.16809795 -0.00452272 -0.00456361 -0.00808887
C -2.03592501 15.68120252 19.13631906 0.00204767 -0.00463699 0.00187804
C 0.66993058 10.95311609 23.40910338 0.00193917 -0.00290762 0.00067675
C -4.84375591 13.46093487 22.58952892 -0.00041661 0.00304707 0.00389643
C 3.14056097 18.29509340 19.95073486 -0.00148354 -0.00133023 -0.00249845
C -3.25288222 15.77772797 19.83412911 0.00109644 0.00371903 0.00403688
C -11.01136886 10.76064945 22.61561926 0.00751015 0.00746193 0.00020583
C -3.86056218 12.55661176 22.98878117 -0.00531118 0.00298470 -0.00451381
C 2.21650441 17.36190755 19.49460554 -0.00647824 0.00701161 0.00656643
C -4.24100693 16.66654515 19.51714224 -0.00136274 -0.00453843 -0.00175752
C -10.07781394 11.56938200 23.25130135 -0.00583104 0.00192144 -0.00561674
C -4.05289808 11.64737791 24.10727460 0.00288871 0.00252020 0.00273956
C 2.47271623 16.53646085 18.36387231 -0.00292241 0.00288494 -0.00017768
C -4.06578844 17.46130442 18.40278546 -0.00085813 0.00053652 -0.00053116
C -10.39277586 12.46744616 24.28410854 0.00531750 -0.00216203 -0.01347412
C -2.28330667 11.97146599 18.82349204 0.00275136 0.00038099 -0.00276097
C 0.98139094 16.72275088 23.57213098 -0.00795965 0.00351417 -0.00189502
C -5.84969074 17.15747672 23.74516064 0.00175249 0.00807100 0.00430151
C -8.41062371 12.40467051 18.91505813 -0.01006775 0.00409258 0.00390291
C -3.20336113 12.86436482 18.19041279 0.00320225 -0.00674165 0.00331815
C -11.50346768 17.01557087 24.16833487 0.00271622 0.00023765 -0.00043506
C -4.80865984 16.40547718 24.23038203 0.00042834 0.00533595 0.01128237
C 3.25433797 11.68771069 18.15183784 -0.00093499 0.00001241 -0.00330194
C -7.12628724 14.81442556 21.48478852 -0.00499825 -0.00503152 -0.00158492
C -7.33987707 10.12009535 20.74423251 0.00682971 -0.00499766 -0.00564953
C -0.83189771 14.17452225 20.60308489 -0.00543731 -0.00171543 -0.00063688
C -0.44107502 19.23958684 21.91923153 0.00181930 -0.00084600 -0.00152115
C -8.35507932 15.55224782 21.12849137 -0.00043712 -0.00076775 0.00273453
C -6.20969225 11.04217033 21.11439427 0.00775758 -0.00563428 -0.00125788
C 0.34598080 13.26433727 20.73863818 0.00327076 0.00511111 0.00095201
C -1.66776798 18.44066597 21.67109392 0.00005396 0.00004785 0.00341746
C 2.95803432 22.99099813 4.99906835 0.00245620 0.00067273 0.00345908
C 0.54925650 27.97008498 1.02557602 -0.00111026 0.00267599 -0.00164694
C 6.79114420 25.09667673 1.04843206 -0.00325891 -0.00339942 0.00363656
C 9.63459597 20.38992032 5.09836164 -0.00927388 -0.00201689 -0.00142707
C 4.13813749 22.94520070 4.25409667 0.00011023 -0.00496359 -0.00219189
C 12.30329565 27.80798607 1.78086210 0.00883543 -0.00391483 -0.00222388
C 5.52062501 25.21224538 1.59181572 -0.00258661 -0.00245332 0.00081081
C 36.85824718 20.25660753 4.26259692 -0.00543291 0.00140793 0.00314551
C 5.10061720 22.03658923 4.68654344 -0.00077188 0.00297683 0.00382284
C 11.26359223 27.05567598 1.32717081 0.00797639 0.00157873 0.00062868
C 4.63456246 26.05875473 1.01551833 0.00338264 -0.00154412 -0.00280940
C -1.26975479 21.10177286 4.77402762 0.00712055 -0.00101238 -0.00037742
C 4.95301299 21.20526218 5.81884649 0.00020652 0.00538116 0.00504498
C 11.37449039 26.22494137 0.24407007 0.00258555 0.00598297 -0.00114210
C -7.08651140 27.00809400 24.35738725 0.00472485 -0.00316565 -0.00062280
C -1.56916313 21.96332504 5.80143482 0.00476410 0.00269230 0.00283478
C 6.89169133 21.13543202 0.29455830 0.00663145 0.00301045 0.00282770
C 9.56183801 26.05113911 5.76671707 0.00631246 -0.00548513 -0.00386974
C 3.12552711 26.98307027 5.77669558 0.00611912 0.00236817 0.00061172
C 0.39388398 21.90918076 0.72602510 0.00689439 0.00003180 0.00501262
C -5.98800483 22.13132911 24.34251581 0.00389330 -0.00097855 0.00005750
C -2.24173145 27.07941590 5.95212425 0.00127432 0.00164608 0.00130115
C 4.07071246 26.02390398 6.01529868 0.00130178 -0.00515915 -0.00471064
C 12.56045287 21.40517951 0.29741483 0.00242216 -0.00428582 0.00507601
C 1.80754545 24.42922089 3.53299883 0.00072176 0.00656382 0.00168414
C 1.71403226 19.24257712 2.44731981 0.00942159 0.00051955 -0.00115246
C 7.85613936 23.77001264 2.78307631 -0.00204190 0.00625228 0.00230474
C 8.15576960 28.61495012 3.31710337 0.00840709 -0.01195781 0.00781468
C 0.56185609 25.18073877 3.26607573 -0.00162952 -0.00571132 0.00251635
C 2.84645226 20.25146791 2.43898556 -0.00322247 0.00501867 -0.01044139
C 8.86403093 22.65287793 2.91873733 -0.00274487 -0.00455521 -0.00300381
C 6.98758770 27.74034742 3.22553088 -0.00673449 -0.00249517 0.00274519
C 0.24660163 23.02337025 11.24413963 -0.00143508 0.00313340 -0.00146277
C -2.58543925 27.77775155 7.14154597 -0.00353587 0.00498692 0.00319324
C 3.85767532 25.10011712 7.08223951 -0.00629495 -0.01087244 -0.00458038
C 6.74325976 20.49738615 11.10553851 -0.00131663 0.00770415 -0.00292784
C 1.34701280 22.69505307 10.49200200 0.01062474 0.00355957 0.00402721
C 9.12513134 27.92264365 7.66254096 0.00836607 0.00025175 0.00097018
C 2.68454895 25.29696305 7.90579248 0.00846655 0.00664915 0.00614227
C 33.67184498 20.81983283 10.64822809 -0.00327634 0.00490969 0.00110073
C 2.24600620 21.76409699 10.99404434 0.00319234 0.00425061 0.00690534
C 8.13755635 27.01645743 7.33340417 -0.00667993 0.00432585 -0.00599664
C 1.61304742 26.12641582 7.47679648 0.00134083 0.00628487 0.00391246
C -4.50238774 21.69131194 11.02221852 0.00164504 0.00700065 -0.00087366
C 2.03563499 21.11819985 12.21396540 -0.00397712 0.00000378 0.01047254
C 8.30952630 26.09032482 6.30741044 0.00254008 -0.00581728 0.00106308
C 1.90741220 27.05375655 6.47151648 -0.00506261 -0.00321841 -0.00013093
C -4.74179559 22.56391382 12.12918900 -0.00181327 -0.00351005 -0.00035592
C 3.73323480 21.26030528 6.48133271 -0.00366977 -0.00283943 0.00211125
C 6.51745257 26.16489524 11.52533338 0.00161900 -0.00208560 -0.00906636
C 0.32567643 27.07935985 11.71984205 0.00011244 0.00430930 0.00073747
C -2.86790769 21.98239558 6.29765116 -0.00205082 0.00042244 -0.00022637
C 2.77031008 22.19385750 6.11106821 -0.00143930 -0.00094089 -0.00219724
C -5.20843879 27.09538510 11.91991815 0.00152036 0.00048169 -0.00635707
C 1.24749177 26.15583703 12.13265320 -0.00050859 0.00089410 0.00002120
C 9.48657987 21.16863577 6.22560493 0.00343700 0.00303397 -0.00008870
C -0.87375179 24.36933995 9.60681775 -0.00004686 -0.00544638 -0.00440747
C -1.54547691 19.59451887 8.56701412 0.00298585 0.00742705 -0.00040591
C 5.20044176 23.64100826 8.52729469 -0.00353360 0.00303073 -0.00317144
C 5.43786850 28.66259591 9.64328278 -0.00256750 -0.00218946 -0.00315029
C -2.20175776 25.01902652 9.34976974 0.00264973 -0.00136883 0.00117358
C -0.28996774 20.43406598 8.77783508 0.00041894 -0.00483654 0.00814680
C 6.58796839 22.98919913 8.49886169 -0.00194300 0.00271091 0.00277907
C 4.20782169 27.83158852 9.43299222 0.00650405 -0.00304352 -0.00557179
C -2.98119002 23.21038066 17.44843538 0.00039911 0.00479147 -0.00205910
C -5.47961863 27.94463356 12.99542345 -0.00475302 -0.00069723 0.01183496
C 1.03052291 25.24300495 13.19743320 0.00418145 0.00235367 -0.00050338
C 3.48522399 20.59680840 17.39086292 0.00860083 0.00790842 0.00171865
C -1.73525235 23.13695461 16.80148026 -0.00789535 0.00820385 0.00525993
C 6.05349198 27.57671854 13.83777086 0.00266366 0.00126690 0.01037408
C -0.22725107 25.37781621 13.87934462 0.00792921 0.00167570 -0.00538171
C 30.79952398 20.48552929 16.52891996 0.00097237 -0.00299730 0.01149158
C -0.80761740 22.26618135 17.31188568 -0.00000531 0.00442085 0.00048167
C 5.10429123 26.83811675 13.26410626 0.00301469 -0.00385749 0.00009617
C -1.19611255 26.27129451 13.43936714 -0.00052114 -0.00128170 -0.00169009
C -7.28855601 21.30915884 17.02560111 -0.00662685 -0.00015133 -0.00271643
C -0.97907204 21.48039130 18.50933193 -0.01238316 -0.00015423 -0.00676164
C 5.27824802 26.04488621 12.15201636 -0.00602940 0.00144461 0.00199453
C -0.93253368 27.12860145 12.35114920 -0.00014733 0.00299672 -0.00146101
C -7.49262264 22.05887439 18.14928282 0.00651612 0.00065788 0.00239581
C 0.87410902 21.46527862 12.95256485 -0.00001468 0.00044648 -0.00424579
C 3.62723080 26.12246449 17.82420908 0.00428826 0.00315815 0.00167584
C -2.67222111 27.15277639 17.57778944 0.00509223 -0.00304497 -0.00461670
C -5.92518789 22.26681703 12.88250633 -0.00000509 0.00374380 0.00219143
C 0.00953557 22.40612718 12.50336521 -0.00852622 -0.00598094 0.00465381
C -7.96830705 26.87060242 18.06204540 0.00038780 -0.00382365 0.00388439
C -1.73343286 26.31098597 18.15079815 -0.00035903 0.00398578 -0.00245766
C 6.58776701 21.34221489 12.18366578 0.00366031 0.00093837 -0.00233388
C -4.08456097 24.36747766 15.69887769 -0.00396752 -0.00138553 -0.00158944
C -4.36527195 19.56428424 14.58514284 -0.00605009 0.00558867 -0.00228960
C 2.29649204 23.89024615 14.76086185 0.00180781 0.01028093 -0.00445037
C 2.49690489 28.65217884 15.68168655 -0.00224163 0.00923769 -0.00303378
C -5.17211768 25.33604328 15.28412776 0.00225466 0.00415583 -0.00428524
C -3.07084568 20.22652672 14.81852514 -0.00010651 -0.00162799 0.00235935
C 3.54298718 23.13483151 14.94517335 -0.00073874 -0.00276379 0.00215553
C 1.32070755 27.82780219 15.51427497 0.00131052 0.00319756 0.00161199
C -5.78830304 22.93153722 23.24168229 0.00861732 -0.00412865 -0.00138215
C -8.13702576 27.82737234 19.09754436 -0.00207893 -0.00075737 0.00412230
C -1.98044704 25.48940256 19.21962912 -0.00849376 -0.00091494 -0.00256001
C 0.68289509 20.71022273 23.41565147 -0.00514935 -0.00203764 -0.00530841
C -4.48017071 22.83946486 22.66197069 -0.00763535 -0.00424612 0.00223456
C 3.17658478 27.78026539 19.99556907 0.00326894 0.00714696 0.00210787
C -3.16957309 25.71891119 19.89807588 -0.00197783 -0.00288655 -0.00564479
C 27.86782697 20.54677187 22.67322963 0.00071455 -0.00678502 -0.00010418
C -3.51381902 22.05997469 23.24495703 -0.00633245 -0.00355024 -0.00785749
C 2.20195163 26.91934745 19.63135282 -0.00388748 0.00904226 0.00236622
C -4.15869842 26.56246909 19.34992580 0.00656937 -0.00341385 0.01225575
C -10.29846942 21.49988894 23.06532188 -0.00017636 0.00094311 0.00165090
C -3.81578227 21.14078892 24.26635556 0.00010873 -0.00244546 -0.00302285
C 2.32745145 26.18889542 18.42746915 0.00452822 0.00050057 -0.00274126
C -3.91568233 27.34723917 18.26178479 0.00354240 0.00452609 0.00538723
C -10.50543121 22.18919304 24.32097381 -0.00582665 0.00744869 0.00658568
C -2.22523242 21.63965234 19.16388946 0.00095233 0.00077463 0.00479413
C 0.64136239 26.21427278 23.97522547 0.00102448 -0.00106188 -0.00156111
C -5.83171524 26.74025890 23.65720226 0.00063381 0.00411889 0.00277938
C -8.75434094 21.92327318 18.84998445 0.00229840 -0.00186295 -0.00079551
C -3.21289263 22.45997402 18.61013673 -0.00330481 -0.00099988 0.00131964
C -11.24319586 27.25807859 24.16479378 -0.00168225 -0.00635450 -0.00295626
C -4.97193599 25.81230675 24.24779107 -0.00021169 -0.00618222 0.01073502
C 3.37284059 21.49773558 18.43417527 -0.00253585 0.00036277 0.00115856
C -6.85710150 24.39073162 21.65777599 -0.01074072 -0.00495759 -0.00021198
C -7.61488474 19.64402825 20.73599899 0.00675155 0.00090010 0.00608198
C -1.05802134 24.02679553 20.84789696 0.00020021 0.01047357 0.00544754
C -0.53771241 28.82567123 22.03706402 0.00731178 -0.00340307 0.00057044
C -8.09914584 25.09175814 21.17173019 -0.00257443 0.00258262 0.00547036
C -6.49532881 20.58019632 20.88255570 -0.00060541 0.00089231 0.00026219
C 0.21537803 23.27273058 21.12621178 -0.00209149 0.00574198 -0.00453352
C -1.90967665 28.18830607 21.83375705 -0.00016366 -0.00786859 0.00050332
C 15.96160790 3.87145258 5.05150211 0.00807690 0.00051627 -0.00692419
C 13.47633285 8.63322016 0.79723267 0.00482201 0.00640890 -0.00016043
C 19.85761534 5.68042898 0.85064007 0.00462990 -0.00714825 -0.00262116
C 22.71674214 1.00046127 5.11233114 -0.00926525 -0.00523659 0.00791077
C 17.20063029 3.79051210 4.41461553 0.01188163 0.00240774 -0.00274439
C 25.12892097 8.35136634 1.71401720 0.00325715 0.00190127 -0.00179453
C 18.64697725 5.83830446 1.52287728 0.00504987 0.00068578 0.00030588
C 10.67426908 1.08329438 4.29091307 -0.00374544 -0.00386742 -0.00344332
C 18.13550872 2.79877250 4.74399968 -0.00305002 0.00051668 -0.00402314
C 24.17189173 7.49248745 1.33847273 0.00161680 -0.00079003 -0.00069597
C 17.71143983 6.74397760 1.09578583 0.00885753 -0.00567771 -0.00150874
C 11.62227666 1.97374463 4.72817837 0.00582345 0.00060304 0.00372081
C 17.92639656 1.95408480 5.83182024 0.00163376 -0.00429646 -0.01080038
C 24.33651126 6.67402157 0.18657859 -0.00417995 -0.00741969 -0.00471558
C 5.93558788 7.54843292 24.28764127 -0.00330002 -0.00453335 0.00271599
C 11.35330615 2.83167711 5.82670627 -0.00169706 -0.00283378 0.00024415
C 19.97529774 1.77949824 0.49255929 -0.00101287 -0.00485879 0.00232608
C 22.73397616 6.87200435 5.57887565 0.00044914 0.00362998 0.00263997
C 16.21769489 7.83498675 5.63494865 0.01193055 -0.00809950 0.00048579
C 13.64409495 2.91516993 0.79648484 -0.00275164 -0.00168970 0.00015658
C 18.96799923 2.63454616 0.16214042 0.00159999 -0.00603993 0.00068760
C 10.58358424 7.78188921 6.01268039 -0.00002615 -0.00407999 0.00249434
C 17.11492975 6.89568519 5.94104693 -0.00090063 0.00558646 -0.00141016
C 25.44498180 1.85344722 0.08073368 -0.00817484 -0.00210277 -0.00357943
C 14.85240346 5.29882676 3.50013202 0.00132844 0.00432032 -0.00673413
C 14.70736521 0.28053589 2.69098349 -0.00998779 0.00150927 -0.00354777
C 21.00392695 4.45124331 2.60093668 0.00067950 0.00042784 0.00016474
C 21.32457743 9.39871806 3.46181787 0.00457383 -0.00461485 0.00326457
C 13.59466019 6.02398225 3.32639832 -0.00798018 0.00274345 0.00774809
C 16.01997513 1.01396144 2.91266053 0.00076757 -0.00564171 0.00022607