2880
Time=34000.00000001 pbc="T T T" Lattice="39.27156115 0.00000000 0.00000000 0.00000000 28.90716067 0.00000000 -12.01102965 0.00000000 24.33290067" energy=-18397.56272107 virial="51.86295582 -29.11061811 -34.02215749 -29.11061811 70.03200498 -27.12850570 -34.02215749 -27.12850570 63.59873911" stress="0.00437504 -0.00106355 -0.00123963 -0.00106355 0.00502345 -0.00098348 -0.00123963 -0.00098348 0.00484736" Properties=species:S:1:pos:R:3:vel:R:3
C 3.11484164 3.50462163 5.18394216 0.00718941 -0.00080143 0.00817577
C 0.52671223 8.41025080 1.10558459 -0.00559140 -0.00682732 0.00777402
C 6.97675026 5.80611720 1.08042090 0.00095563 -0.00156409 -0.00029321
C 9.54306460 1.04190986 5.11100253 -0.00003976 0.00478004 -0.00047529
C 4.31417318 3.36619295 4.47678683 0.00174838 0.00287851 0.00463593
C 12.15423380 8.45228491 1.49485539 0.00276659 -0.00260274 0.00129143
C 5.70363171 5.73667568 1.71249716 -0.00626154 0.00120493 -0.00074391
C 36.85139569 0.87692045 4.50837751 -0.00316354 0.00346475 0.00078526
C 5.33415337 2.59680710 4.93337653 -0.00224697 0.01109306 -0.00155416
C 11.12242473 7.61732784 1.11439104 0.00091280 -0.00788857 -0.00034588
C 4.75670664 6.65413685 1.30513906 -0.00229344 -0.00319451 -0.00276341
C -1.53589674 1.88784048 4.82667947 -0.00391333 -0.00328905 0.00701741
C 5.25558690 1.82921218 6.09995827 0.00295451 -0.00480652 -0.00197229
C 11.38752959 6.65707314 0.11609856 -0.00490553 -0.00205033 -0.00310599
C 4.91953786 7.47557266 0.14733590 0.00222381 -0.00063889 -0.00166789
C -1.71887091 2.67832954 6.01760673 0.00361140 0.00591020 -0.00020261
C 6.95378829 2.08280471 0.84044259 -0.00283419 0.00324690 -0.00355132
C 9.49748831 6.76071827 5.37364228 0.00192036 0.00545344 -0.00120790
C 3.36908157 7.45784643 5.56141770 0.00362396 -0.00659770 -0.00159713
C 0.17842841 2.78159376 0.54664073 0.00675388 -0.00466454 0.00900240
C 5.92872315 2.81450246 0.27522816 -0.00798539 -0.00874529 -0.00557156
C -2.22444109 7.41332857 6.23051524 -0.00012438 0.01191901 0.00051209
C 4.33944565 6.58752845 5.94334438 -0.00175084 0.00386575 -0.00431841
C 12.57311525 2.01463881 0.18136201 -0.00808715 -0.00237912 -0.00760045
C 1.97516842 4.83336610 3.52464233 -0.00244529 -0.00384955 0.00128106
C 1.49024288 0.19137726 2.68132196 0.00456234 0.00344773 -0.00384106
C 8.16136793 4.38235829 2.64925334 0.00626708 -0.00060014 -0.00080091
C 8.31197235 9.56064537 3.37303642 -0.00444188 -0.00285311 -0.00071171
C 0.94100341 5.81228197 3.25595663 0.00400675 -0.00233211 -0.00287813
C 2.57247313 1.22653761 2.84693228 0.00718306 -0.00335720 -0.00187729
C 9.55903515 3.77198265 2.77750045 -0.00019694 0.00443755 -0.00141895
C 7.07593540 8.74091040 3.26664994 -0.00461180 0.00368649 0.00146318
C 0.00609947 3.53203237 11.25454012 0.00100067 -0.00457521 0.00254613
C -2.61651761 8.44691955 7.13816691 -0.00036036 0.00277142 0.00110220
C 4.09432794 5.72866597 7.05657032 0.00158409 0.00061111 0.00076980
C 6.68596933 1.11797683 11.28383797 -0.00135808 -0.00763189 0.00277212
C 1.20605828 3.50340753 10.60586025 0.00609622 0.00272813 0.00132055
C 9.36240091 8.22343887 7.65405250 -0.00477543 0.00476010 -0.00982479
C 2.89049223 5.84149305 7.81096766 -0.00565798 -0.00231606 0.00249567
C -5.14478969 1.08414351 10.70068684 -0.00335087 -0.00085503 -0.00712000
C 2.28277215 2.71667595 10.98230311 0.00406497 0.00466631 0.00372017
C 8.25552396 7.41900768 7.32263141 -0.01274080 -0.00846485 0.00569892
C 1.91028109 6.71000947 7.40773746 -0.00091400 -0.00776412 -0.00112411
C -4.08850734 1.86358384 11.16440108 0.00017778 0.00447812 0.00327227
C 2.05590747 1.77038746 12.03982631 -0.00033176 0.00421018 -0.00053744
C 8.31996395 6.69221902 6.14784223 -0.00356014 0.00505977 -0.00213449
C 2.07721794 7.53853488 6.29080576 0.00095086 0.00184572 -0.00250020
C -4.29673036 2.87329742 12.15354181 0.00236202 -0.00149560 -0.00900180
C 3.97100329 1.90449730 6.77667240 0.00636416 -0.00229658 -0.00180901
C 6.61450677 6.81405066 11.42625137 -0.00686071 0.00193880 0.00158757
C 0.19477161 7.41486207 11.49237068 0.00474269 0.00263488 -0.00077837
C -2.91930658 2.60413833 6.70113197 -0.01038610 0.00443371 0.00213510
C 2.97613068 2.59709759 6.28846008 0.00033212 -0.00000116 -0.00585119
C -5.35220607 7.90494037 12.13147193 -0.00091383 -0.00012887 0.00509662
C 1.17190891 6.50409567 11.81739848 -0.00583721 -0.00127179 0.00419433
C 9.40744298 1.97470036 6.18442754 0.00176277 -0.00749141 -0.00421006
C -1.25230773 4.90402731 9.78954227 -0.00419899 0.00446941 -0.00104382
C -1.37023715 0.13496894 8.50549541 -0.00384260 -0.00251846 0.00572324
C 5.25780210 4.50013430 8.75408763 -0.00171786 -0.00405691 0.00096226
C 5.12087098 9.50509873 9.70020175 -0.00134119 -0.00134726 0.00831848
C -2.39548836 5.89295737 9.61475229 0.00210781 -0.00139464 0.00448830
C -0.15056395 0.94008887 8.63963506 0.00160276 -0.00153417 -0.00103852
C 6.57151237 3.87397656 9.17165743 -0.00233410 0.00668741 -0.00558544
C 3.85975668 8.67132551 9.75297274 -0.00677497 0.00404302 -0.00347726
C -2.87964143 3.91541737 17.38373869 -0.00510219 0.00041088 -0.00126647
C -5.58127603 8.59999347 13.26700635 0.00152740 -0.00268329 -0.00191941
C 0.98964058 5.75780140 12.97860157 -0.00132617 -0.00169805 -0.00096648
C 3.60493373 1.31759403 17.33811906 -0.00239778 0.00487566 -0.00144357
C -1.69232943 3.69887352 16.59781950 0.00062968 -0.00635657 0.00164434
C 6.31054361 8.59562806 13.51385998 -0.00533956 0.00540723 -0.00945094
C -0.15375088 5.91795863 13.77100985 -0.00009862 -0.00728874 -0.00777706
C -8.05667067 1.11227513 16.73715433 0.00312658 -0.00182004 -0.00038407
C -0.79862955 2.76910800 17.03121127 -0.00479064 -0.00082645 0.00173533
C 5.30858922 7.64872799 13.29457870 0.00441396 0.00568112 0.00207566
C -1.13463900 6.73956880 13.39134689 0.00005401 0.00561731 -0.00156489
C -7.13265626 2.05363460 17.17929756 -0.00240218 -0.00714745 0.00026899
C -0.89598397 2.10312823 18.26825458 -0.00232019 0.00705300 -0.00245239
C 5.49250897 6.76170324 12.17354253 0.00369759 -0.00699730 -0.00180418
C -1.09820808 7.50975246 12.25667317 0.00453598 0.00128278 0.00134577
C -7.35976573 2.83749888 18.29573543 0.00105044 -0.00081680 0.00613715
C 0.84942911 1.82277999 12.68039289 0.00154397 0.00807817 -0.00328962
C 3.59429634 6.97104275 17.74527787 0.00049872 0.00092037 0.00443344
C -2.59474439 7.72760982 17.97017415 -0.00745752 0.00687590 -0.00580602
C -5.68383174 3.04816109 12.67568732 0.00031992 0.00303546 -0.00551217
C -0.15063959 2.72610565 12.37318263 -0.01087585 0.00316939 -0.00227606
C -8.35076201 7.49779812 18.27302269 -0.00231062 -0.00747748 -0.00940595
C -1.69822690 6.74123255 18.24847943 0.00409614 0.00056449 -0.00236236
C 6.48410655 2.02092431 12.39146823 0.00270193 -0.00199808 0.00091523
C -4.11372135 5.19706390 15.81981150 -0.00161865 0.00293360 0.00016318
C -4.63581066 0.34799362 14.92396215 0.00440010 -0.00142776 -0.00799958
C 2.16775493 4.63645484 14.82958604 -0.00035962 0.00374857 -0.00008901
C 2.62308947 9.52312032 15.46686123 0.00501920 -0.00172915 0.00646953
C -5.44187757 5.84553815 15.65225689 -0.00328035 -0.00231599 0.00471383
C -3.45304406 1.25231050 15.09817659 -0.00458491 -0.00001963 0.00259888
C 3.40916205 3.82717613 15.24011713 0.00041022 0.00452385 0.00252956
C 1.30666374 8.78655396 15.10826685 -0.00220904 0.00280561 -0.00693551
C -5.83622621 3.64454545 23.48902891 -0.00208928 0.00520096 -0.00860650
C -8.49443838 8.31670870 19.38820042 -0.00206297 -0.00121374 -0.00604391
C -1.87533900 5.90972657 19.40331320 -0.00381668 0.00009429 0.00111806
C 0.62960333 1.13988154 23.43336321 0.00438679 -0.00000700 -0.00002710
C -4.53846271 3.66389810 22.84846216 -0.00008080 0.00202368 -0.00576774
C 3.16845944 8.54673425 19.92208986 0.00201683 -0.00425857 0.00010657
C -3.05591495 6.04511516 20.07385584 0.01054792 0.00702328 0.00568741
C 27.93747348 1.07235291 22.76553002 0.00813795 0.00068454 -0.00510910
C -3.58502208 2.85438391 23.42942984 -0.00378052 0.00136848 0.00166888
C 2.11104798 7.75214928 19.47124903 0.00512737 -0.00604409 -0.00246962
C -4.05203297 6.97742587 19.74404141 0.00160671 -0.00101934 0.00474733
C -10.35805680 1.97391091 23.12796804 0.00612628 -0.00339324 -0.00174258
C 8.21898516 2.14068776 0.29252793 0.00190608 -0.00611096 0.00207647
C 2.35305352 6.89652889 18.38876179 0.00051627 0.00423102 -0.00455671
C -3.83036159 7.83630034 18.62148382 -0.00413791 -0.00492501 0.00215232
C -10.57299633 2.82252027 24.23253508 -0.00261399 0.00557821 -0.00692185
C -2.10683626 2.28127715 19.00974823 0.00635140 -0.00466216 0.00745835
C 0.57022463 6.68692437 23.76107204 -0.00576223 -0.00513712 0.00620335
C -5.87483415 7.58594405 23.87698757 0.00491725 0.00246610 0.00207159
C -8.58986948 2.71338067 19.04903422 -0.01219774 0.00457783 0.00221770
C -3.03645157 3.17055508 18.49034226 0.00084239 -0.00229065 -0.00064254
C 0.70097310 7.48185960 0.04185125 -0.00814568 0.00785593 -0.00200821
C 7.16448787 6.80608910 0.04313589 0.00418634 0.00218060 -0.00399604
C 3.54082169 2.14690054 18.45277859 0.00363769 0.00073866 -0.00950941
C -7.08775846 4.84522123 21.82271519 0.00412912 -0.00858722 -0.00015175
C -7.67647203 0.23656974 21.02616011 0.00221286 -0.00520729 0.00039587
C -0.90097555 4.35694076 20.88385174 -0.00500682 -0.00250603 -0.00163160
C -0.39420883 9.29902017 21.70177485 0.00044909 -0.00374508 0.00345556
C -8.25356975 5.75088077 21.55865221 0.00055641 0.00264706 -0.00176985
C -6.48991584 1.15403190 21.36789199 -0.00092714 -0.00647718 -0.00839437
C 0.32991086 3.49791455 21.07060923 0.00214100 0.00505027 0.00140644
C -1.52946668 8.47265939 21.39359291 0.00099523 0.00306726 -0.00465997
C 3.09476437 13.29694349 4.98646434 0.00164466 0.00287991 0.00216905
C 0.26315774 18.15394030 0.89407454 0.00865050 0.00387745 0.00534052
C 7.00417020 15.50107164 0.96907285 -0.00111370 -0.00830907 -0.00946115
C 9.68841888 10.82187991 5.04741311 -0.00071944 0.00140250 -0.00983954
C 4.39217363 13.33601066 4.42307006 -0.00435203 -0.00051263 0.00055788
C 12.48615840 18.01243146 1.72958543 -0.00426985 0.00001524 0.00033279
C 5.75486479 15.63443904 1.60645431 -0.00832924 -0.00066559 0.00079486
C 36.96894508 10.91289869 4.31544266 -0.00134354 -0.00368973 -0.00249853
C 5.38104671 12.46298179 4.84009128 0.00192225 0.00319903 0.00194589
C 11.46871792 17.17151399 1.30458368 0.00123636 0.00601178 0.00324795
C 4.73420092 16.51929942 1.07902008 0.00011635 -0.00044309 -0.00217643
C -1.28369803 11.82137657 4.65491914 0.00215212 0.00601832 0.00500293
C 5.19254515 11.71457091 6.05488690 -0.00077065 -0.00213155 0.00304707
C 11.56838839 16.50514129 0.07582924 -0.00763647 0.00547721 0.00013386
C -6.99639414 17.30580662 24.32263754 -0.00176226 0.00151337 0.00598973
C -1.49347243 12.75451822 5.69781787 -0.00135788 0.00661933 -0.00514984
C 6.96231062 11.70382117 0.42179921 0.00218855 -0.00233126 -0.00065021
C 9.71363645 16.42924168 5.59103285 0.00113595 0.00150847 -0.00856391
C 2.84737884 17.25897961 5.26502825 0.00327175 -0.00196213 0.00654846
C 0.50179510 12.51345643 0.45178727 0.00833605 0.00340173 0.00988926
C 5.95251917 12.52426247 0.03105836 -0.00512791 0.00209200 -0.00392748
C -2.28490261 17.54620445 6.08380287 0.00385293 -0.00178383 0.00097613
C 3.87518168 16.49862407 5.62153399 0.00239622 -0.00433669 -0.00077310
C 12.52850125 11.50042620 0.15923370 -0.00387665 0.00531791 0.00281415
C 1.90899925 14.82689664 3.46268543 -0.00173626 0.00880916 0.00718944
C 1.62237469 9.93863778 2.55494853 0.00253614 -0.00774995 -0.00117382
C 8.33391588 14.13360742 2.53820864 -0.00257169 -0.00766033 -0.00057562
C 8.58546664 18.83837681 3.33275756 0.00288489 -0.00010747 0.00234545
C 0.70268283 15.65766850 3.26739779 0.00143062 -0.00122598 -0.00066423
C 2.77934163 10.91323740 2.55843357 0.00368265 0.00108297 0.00426787
C 9.64322315 13.32075911 2.60114108 0.00375999 0.00216114 0.00369699
C 7.38407209 18.06632509 3.00187783 0.00370703 0.00154157 0.00479822
C 0.16182715 13.50587170 10.91420843 -0.00195435 -0.00595102 0.00687946
C -2.51528924 18.39506726 7.19244064 0.00204050 0.00312730 -0.00267684
C 3.73590716 15.77422454 6.76498347 -0.00276250 -0.00516822 -0.00877440
C 6.53850365 10.89538788 11.18552537 0.00404416 -0.00283252 0.00251308
C 1.34954779 13.27382373 10.18836509 -0.00084270 0.00184565 0.00742877
C 9.33657637 18.03524059 7.81352111 -0.00481920 0.00300193 0.00310981
C 2.55732597 15.78821090 7.54942285 -0.00527742 0.00635094 -0.00227025
C -4.94296890 10.84065406 10.63362271 -0.00611270 0.00202870 -0.00369906
C 2.29480379 12.40492507 10.70162099 -0.00528532 -0.00098553 -0.00694430
C 8.30478615 17.19250761 7.42152890 0.00091680 0.00115289 -0.00242217
C 1.52853483 16.67198923 7.19096718 -0.00526216 0.00466810 0.00705397
C -3.89603569 11.64418989 11.04856825 -0.00557565 0.01071340 -0.00124787
C 2.14722167 11.75172954 11.95849939 -0.00051401 -0.00359911 -0.00010108
C 8.49923232 16.35429817 6.33327816 0.00953053 -0.00571523 0.00811439
C 1.64855507 17.39568889 6.04257910 0.00646064 -0.00363103 -0.00330558
C -4.02238233 12.57201542 12.11618371 0.00052552 -0.00630898 -0.00228202
C 3.90276326 11.75702738 6.65342502 -0.00212675 0.00970493 -0.00669959
C 6.67391127 16.41923013 11.54556811 -0.00159189 -0.00301619 0.00489894
C 0.14915739 17.32903807 11.25305945 -0.00520647 -0.00225606 0.00728624
C -2.67357440 12.61192712 6.47334090 -0.00116971 -0.00313802 0.00586192
C 2.92129002 12.48732596 6.08751877 -0.00441668 0.00458676 -0.00062262
C -5.27784430 17.40346721 12.09595070 0.00085191 -0.00557627 -0.00186796
C 1.14119199 16.51892187 11.77639223 0.00411175 0.00305076 0.00304762
C 9.51166549 11.47176358 6.23795207 0.00279940 -0.01054795 0.00155159
C -1.02307441 14.87597355 9.32487255 -0.00526845 0.00218606 -0.00291801
C -1.34885774 9.77444547 8.66887256 -0.00093777 0.00060278 0.00516483
C 5.04353358 14.40250111 8.29404408 0.00137163 -0.00042135 0.00082446
C 5.64746658 19.03734202 9.64006558 -0.00326213 -0.00409332 -0.00261006
C -2.26015144 15.67226176 8.96986473 -0.00017727 -0.00343794 0.00543219
C -0.10038812 10.55801217 8.89671419 0.00488951 -0.00216326 0.00026428
C 6.32587631 13.67045737 8.47797197 -0.00265427 0.00496929 0.00231373
C 4.34243202 18.21174453 9.33269396 0.00006795 0.00167070 -0.00199260
C -3.09267462 13.54845113 17.43768266 -0.00707628 0.00413465 -0.00643548
C -5.53693747 18.40552043 13.05964450 -0.00147024 -0.00405076 0.00055501
C 0.99113131 15.65913354 12.83184682 -0.00727464 -0.00111798 0.00170269
C 3.79392817 10.74837697 17.13944726 -0.01130001 0.00313432 -0.00159835
C -1.91109453 13.39898683 16.67013928 -0.00669274 0.00525080 0.00590265
C 6.23149398 17.98794060 13.77015838 0.00244434 -0.00007442 0.00442769
C -0.24034153 15.71224376 13.53817840 -0.00370289 -0.00063086 0.00720954
C -8.16707499 10.54623487 16.65680466 0.00474079 -0.00303773 -0.00529768
C -0.85484731 12.59986176 17.09903414 -0.00020211 0.00293569 -0.00126358
C 5.18497094 17.19519056 13.35799084 0.00263799 -0.00113745 0.00414723
C -1.30475249 16.44743507 13.10954256 0.00470864 0.00190940 0.00060906
C -7.29679709 11.47180466 17.09570652 -0.00496162 -0.00187260 0.00655038
C -1.01802916 11.76508811 18.24809590 0.00031634 -0.00169011 -0.00555592
C 5.50293020 16.32734697 12.29212912 -0.00361583 -0.00505733 -0.00135346
C -1.01301804 17.36135657 12.11103709 -0.00476860 -0.00432161 -0.00454375
C -7.54938363 12.28374011 18.20742418 0.00317553 0.00069963 0.00067700
C 0.96064722 12.08697731 12.70924058 0.00304128 -0.00642967 -0.00245150
C 3.77434564 16.40017492 17.75897986 0.00208205 0.00301592 -0.00828152
C -2.93373220 17.25751685 17.66010660 -0.00437117 0.01097925 0.01048699
C -5.24886007 12.49000567 12.87218355 0.00028202 -0.00082072 0.00353274
C -0.03085930 12.92838789 12.19274810 0.00354761 0.00058068 0.00301598
C -8.55219385 17.34465452 17.96224445 0.00408239 0.00178275 0.00451067
C -1.93393308 16.47304566 18.17080602 0.00403662 -0.00132934 -0.00575244
C 6.36648754 11.71584457 12.28664188 0.00180832 0.00157302 0.00374623
C -4.30988783 14.77646987 15.84041978 0.00141768 0.00034244 -0.00060748
C -4.36932494 9.97347544 14.86634336 0.00037715 0.00827316 -0.00464777
C 2.18533994 14.55825552 14.66320021 0.00046890 0.00355767 0.00078351
C 2.56652341 19.02858495 15.56314178 0.00369209 0.00641452 0.00010290
C -5.59762641 15.49867510 15.64053159 0.01148437 0.00042365 -0.00495203
C -3.21964696 10.95850260 15.06907943 0.00567021 0.00643793 -0.00119152
C 3.49345770 14.02684747 15.05406267 0.00001559 -0.00277810 -0.00262970
C 1.23154176 18.45505510 15.25400594 0.00031747 -0.00170244 -0.00371630
C -5.95518060 13.41896519 23.27043569 -0.00474656 -0.00152718 0.00202910
C -8.74435983 18.16475040 19.13888730 -0.00112972 0.00384794 -0.00005508
C -2.06405790 15.65823515 19.27043613 0.00848677 -0.00231816 0.00346682
C 0.69815913 10.74969249 23.33434979 -0.00015497 -0.00334265 -0.00522332
C -4.77959239 13.33594701 22.48827064 -0.00282523 -0.00514588 0.00246728
C 3.36729999 18.06327182 19.88829639 -0.00017054 0.00402098 -0.00349644
C -3.26232776 15.83348390 19.99541488 -0.00928450 0.00573900 -0.00443411
C -10.98213831 10.70579161 22.77380159 -0.00899996 0.00477318 -0.00358470
C -3.74874804 12.47719485 22.88033703 0.00206428 -0.00086432 0.00747802
C 2.33141454 17.17267291 19.57161484 0.00150119 -0.00135840 0.00149634
C -4.29259327 16.63396024 19.56442793 0.00498394 -0.00502475 0.00265841
C -10.03676161 11.64312278 23.03551812 -0.00364593 -0.00796719 0.00741486
C -3.85212590 11.65924067 24.03822472 -0.00307292 0.00647016 0.00187811
C 2.48111058 16.45990093 18.39980468 0.00556905 -0.00179046 0.00056997
C -4.17566660 17.34264956 18.35814203 -0.00008363 -0.00138889 0.00003213
C -10.22505835 12.43467809 24.20194231 0.00637388 0.00220286 -0.00011945
C -2.19977531 11.87832323 18.95163281 0.00195909 -0.00223232 -0.00245595
C 0.83655523 16.44243925 23.85132593 0.00120254 -0.00413537 -0.00342445
C -5.76729746 17.14981608 23.69557500 0.00703781 0.00573154 -0.01399859
C -8.75647049 12.23492182 18.87848464 0.00477007 -0.00080134 0.00554608
C -3.20768458 12.68280634 18.51875521 -0.01112335 -0.00072796 -0.00146421
C -11.54160588 17.33346273 24.12515418 0.00533219 0.00229833 -0.00147796
C -4.83244760 16.26893637 24.14765923 0.00569357 0.00303148 0.00294529
C 3.48927587 11.59678650 18.17052090 0.01105416 -0.00022028 0.00394848
C -7.20245158 14.90282230 21.74435756 0.00081062 0.00135804 0.00130920
C -7.46805710 9.90961194 20.86407571 0.01393076 -0.00129376 -0.00092701
C -0.85802769 14.19289084 20.79716786 0.00446620 0.00068623 0.00435492
C -0.55317824 19.08008546 21.68478248 -0.00311298 0.00346828 0.00584911
C -8.40825408 15.76302760 21.64732931 -0.00529267 -0.00109280 -0.00313792
C -6.56311068 11.09405814 21.06925016 -0.00404030 -0.00048619 0.00221118
C 0.32152898 13.29150871 20.94552252 -0.00472089 -0.00121839 0.00099449
C -1.84554522 18.43116698 21.56187520 0.00395467 0.00560497 0.00276610
C 3.03907627 22.69553821 5.09949329 -0.00152645 -0.00357470 0.00219343
C 0.23036913 27.84381071 1.02645314 0.00028580 -0.00655536 -0.00780353
C 6.86433142 25.05878019 1.10903965 -0.00116007 0.00830810 0.00760135
C 9.68688489 20.14436790 5.13947325 0.00283614 0.00211714 0.00281642
C 4.29745635 22.61117170 4.41890797 -0.00719330 -0.00558065 -0.00705671
C 12.21163439 27.85388336 1.57729284 -0.00594741 0.00346556 0.00431059
C 5.55928073 25.24745968 1.73265397 -0.00823318 0.00493902 -0.00018369
C -2.17835559 20.56281075 4.55670860 -0.00593505 0.00059217 0.00046214
C 5.32123926 21.83487329 4.91899513 -0.00196544 -0.00230534 0.00603754
C 11.23893966 26.94862319 1.22613451 0.00281256 -0.00898571 -0.00118217
C 4.60441219 26.08646169 1.24176058 0.00241025 0.00204475 -0.00401282
C -1.13815801 21.36214884 5.06215565 -0.00507198 0.00548908 0.00341266
C 5.17120105 21.09256712 6.07915544 -0.00307986 -0.00042874 -0.00307879
C 11.43949605 26.04322660 0.19627431 -0.00412763 -0.00399598 -0.00189056
C 4.76639530 26.86233604 0.10859575 0.00003814 -0.00182021 -0.00719050
C -1.33160824 22.23343935 6.10957686 0.00090744 -0.00215633 0.00021145
C 7.01106630 21.28676507 0.57139821 -0.00620362 -0.00258605 0.00093416
C 9.68386695 26.19318583 5.62979126 -0.00006322 0.00542187 0.00136883
C 3.01843547 26.68925290 5.54923775 0.00134058 -0.00189346 -0.00257456
C 0.11621324 21.97353289 0.55841271 -0.00551014 0.00335451 -0.00132209
C 5.89570106 21.97330664 0.12232437 -0.00609457 -0.00886492 0.00352835
C -2.32339039 26.79492587 5.94439886 0.00477492 -0.00070457 -0.00670666
C 3.98593747 25.85556161 5.97555961 -0.00105611 -0.00382176 0.00105707
C 12.53769212 20.96879740 0.19532705 0.00693573 0.00550531 -0.00498451
C 1.95500673 24.08914111 3.50360336 -0.00338216 0.00273549 0.00091407
C 1.64303252 19.45128671 2.40618517 -0.00378644 -0.00774745 0.00326507
C 8.04309333 23.66474057 2.71174759 0.00152839 0.00378542 0.00094850
C 8.43717175 28.43395562 3.60805493 -0.00042728 -0.00171227 0.00100581
C 1.09417341 25.31437569 3.21929350 0.00572765 0.00536422 0.00163235
C 3.06599552 19.95530534 2.58451322 0.00122817 0.00159971 -0.00120961
C 9.29524847 22.94523309 2.90258387 -0.01187410 -0.00422417 -0.00546885
C 7.19092853 27.59916708 3.38873629 -0.00319711 0.00115696 0.00534378
C 0.01877643 23.03531561 11.45110508 0.00335798 -0.00089931 -0.00528950
C -2.60334699 27.68609580 6.98507940 0.00167753 0.00499686 -0.00498180
C 3.84630006 25.04560982 7.07572761 0.00282777 0.00702657 0.00122514
C 6.66895735 20.58379495 11.25353217 0.00587043 0.00146627 -0.00958651
C 1.23302059 23.01253528 10.78590158 -0.00811466 -0.00068709 -0.00422988
C 9.22438081 27.79991458 7.81703980 -0.00322981 0.00595170 0.00066770
C 2.70629104 25.15022721 7.87093027 0.00269607 -0.00563675 0.00406249
C 34.07600258 20.82177393 10.39143842 0.00401462 0.00666076 -0.00243042
C 2.22527959 22.09448635 11.03275091 -0.00358679 -0.00031941 -0.00137996
C 8.31310661 26.84693395 7.47766571 0.00169840 -0.00205691 -0.00409467
C 1.68261268 26.04433902 7.45059767 0.00484666 -0.00556462 0.00231450
C -4.21754738 21.72015907 10.75952546 -0.00330734 0.00623768 -0.00109390
C 2.03674346 21.21240029 12.11614607 -0.00522713 -0.00635555 -0.00145502
C 8.49402853 26.08713507 6.33986159 -0.00003218 -0.00264280 -0.00108415
C 1.87892356 26.88436706 6.38680004 0.00163531 -0.00469543 0.00523502
C -4.46624397 22.44130956 11.93866095 -0.00176723 0.00316797 0.00731446
C 3.91007027 21.19625930 6.75588841 -0.00221683 -0.00022496 -0.01294838
C 6.89940123 25.97539106 11.95775780 0.00226297 -0.00050236 -0.00331684
C 0.26862972 26.76932114 11.77294809 0.00479275 -0.00093711 0.00350216
C -2.72102439 22.36479765 6.57386737 0.00386912 -0.01166936 0.00511541
C 2.87049133 21.94571087 6.25568498 0.00199227 0.00223388 0.01101408
C -5.26595194 26.94351003 12.11580217 -0.00323150 -0.00570817 -0.00348820
C 1.32011104 26.02302321 12.15959696 -0.00117870 0.00741234 0.00002728
C 9.39077651 21.10471442 6.11392911 -0.00085491 -0.00397957 -0.00547845
C -1.04031650 24.45555228 9.83141261 -0.00483838 0.00186769 0.00961546
C -1.37660001 19.81833952 8.74542780 -0.00090445 0.00145891 -0.00293707
C 5.06975048 23.74481798 8.64993660 0.00075301 0.00143339 -0.00512144
C 5.17262055 28.68884844 9.90114343 -0.00076746 -0.00002473 -0.00527085
C -2.35456087 25.22963922 9.63913091 0.00311315 -0.00440421 -0.00404959
C -0.10694687 20.56177269 8.91225948 -0.00898080 0.00199366 -0.00060922
C 6.18648874 22.86662270 8.89873901 0.00091453 -0.00090082 -0.00145331
C 3.92925498 27.84528781 9.88027592 -0.00359296 -0.00329481 0.00368251
C -2.71080906 23.05169355 17.31854844 -0.00998479 0.00111937 0.00363473
C -5.62187364 27.84051941 13.17477627 -0.00080864 0.00196263 -0.00342666
C 1.03808749 25.17330054 13.28501647 0.00190510 -0.00276315 -0.00349956
C 3.81984689 20.34226780 17.19933694 -0.00359517 -0.00307580 -0.00096251
C -1.48489296 23.01134988 16.70055263 -0.00252346 0.00052122 -0.00216304
C 6.19254220 27.62951151 14.03765266 -0.00723425 -0.00855558 -0.00655126
C -0.12715320 25.30864753 14.01570388 0.00034943 -0.00214730 -0.00215843
C 30.92346336 20.57526439 16.63506209 -0.00068297 -0.00580017 -0.00265557
C -0.45939667 22.15978678 17.04419415 -0.00002593 0.00309746 -0.00538251
C 5.25625263 26.70977273 13.55135592 -0.00442408 0.00030828 0.00105605
C -1.06274896 26.25006326 13.71024696 0.00288796 -0.00413404 0.00861945
C -7.29039650 21.37345514 17.02575998 0.00125434 -0.00302963 0.00282287
C -0.64704784 21.34001109 18.20590527 -0.00150511 0.00387953 -0.00387459
C 5.61022039 25.89186820 12.55377231 0.00007991 -0.00498129 0.00252956
C -0.92008335 26.94108828 12.46022126 0.00153341 0.00436083 0.00145345
C -7.43377875 21.99108578 18.27102995 0.00217354 -0.00019415 -0.00056176
C 0.85192603 21.33420145 12.90018569 -0.00029115 0.00135250 -0.00535968
C 3.57885857 26.27709883 17.81824108 -0.00578336 -0.00167571 0.00295957
C -2.92519414 27.10303017 18.02857405 0.00088997 -0.00273118 0.01290223
C -5.75290049 22.40008608 12.56909497 0.00554809 0.00212596 0.00111101
C -0.15103671 22.20361535 12.55798819 -0.00149509 -0.00287042 -0.00000779
C -8.41337523 26.78493672 18.42394280 -0.00093565 0.00312120 0.00322145
C -1.93370557 26.21290561 18.41666228 0.00746303 0.00846418 -0.00864163
C 6.44774585 21.44796007 12.33666329 0.00366600 0.00605732 -0.00080717
C -4.01604997 24.39275559 15.80181476 0.00637294 -0.00809431 0.00204435
C -4.12050892 19.63338550 14.55591033 -0.00320016 0.00343247 0.00556360
C 2.32349510 23.93326701 14.89686652 0.00152049 -0.00247291 -0.00413118
C 2.25641326 28.90006170 15.86264145 -0.00838332 -0.00821865 -0.00032069
C -5.10172242 25.32161282 15.61053147 0.00802212 -0.00068618 0.00351858
C -3.01534982 20.59235995 14.62735902 0.00557469 -0.00523040 0.00152461
C 3.38084070 22.89207806 15.05190957 0.00334571 0.00038545 0.00411338
C 1.13384659 27.97863942 15.67423544 0.00559790 0.00350251 -0.00399865
C -5.96539796 22.86476378 23.44611787 0.00828003 -0.00543487 0.00446027
C -8.62042991 27.66705629 19.47752844 0.00374959 0.00158798 0.00542523
C -2.13753859 25.35030267 19.47634479 -0.00098304 0.00110019 0.00144036
C 0.75031772 20.27507687 23.33701433 -0.00858611 -0.00404272 -0.00074691
C -4.76023873 22.88773405 22.75652121 -0.00359163 -0.00360197 0.00085804
C 3.32830846 27.90857244 20.10973245 -0.00460845 0.00154352 -0.00340082
C -3.34932321 25.31885035 20.11191937 0.00158780 0.00887440 -0.00241863
C 27.86649241 20.43907701 22.61171771 -0.00028136 -0.00221956 0.00280322
C -3.81982697 21.95162370 23.00250134 -0.00282485 0.00488250 0.00284949
C 2.37058204 26.89917506 19.80185607 0.00924440 -0.00279092 0.00473496
C -4.35425153 26.22658408 19.73021175 -0.00255044 0.00208205 -0.00138811
C -10.50648202 21.33005378 23.05622225 -0.00137470 -0.00382692 -0.00116758
C -3.80404439 21.25552095 24.18508357 -0.00443612 -0.00699105 -0.00890318
C 2.53745650 25.95355701 18.69077393 0.00126981 -0.00110036 0.00910603
C -4.17510501 27.07202966 18.68829299 -0.00006986 0.00180084 -0.00096609
C -10.70903040 22.18525823 24.13363300 0.00025007 0.00556002 -0.00223341
C -1.89748256 21.37582917 18.86206570 0.01106468 0.00232672 0.00323277
C 0.61511305 26.10410305 23.78322381 0.00238858 0.00173261 0.01003706
C -6.02995795 26.69734619 23.76884733 0.00081313 -0.00080210 0.00786995
C -8.64452808 21.91606717 19.03494608 0.00139330 -0.00437346 -0.00114760
C -2.88413002 22.21701734 18.42267702 0.00541870 0.00059819 0.00294822
C -11.60641788 26.95282289 24.26800175 0.00013502 0.00205305 -0.00491963
C -4.98573887 25.83264659 24.23770128 0.00421095 -0.00162502 0.00166404
C 3.65903689 21.12155331 18.33352749 0.00283851 0.00234202 -0.00071778
C -7.16758703 24.34310578 21.95216005 0.00857037 0.00005600 0.00435433
C -7.66546175 19.58434671 20.78609647 -0.00703596 0.00262756 -0.01152778
C -0.99347291 23.74713218 20.90903747 -0.00731185 -0.00157966 -0.00094388
C -0.69545911 28.81232481 21.82607116 0.00084698 0.00186545 -0.00201275
C -8.43010693 25.11728020 21.71956823 -0.00338055 -0.00498876 -0.00986461
C -6.57814091 20.57436026 20.91020752 0.00224263 -0.00318585 -0.00093932
C 0.28298617 22.88444891 21.04739135 0.00099759 -0.00117033 0.00403002
C -2.05321402 28.15695218 21.49583090 -0.00462736 -0.00150274 0.00241818
C 16.12270259 3.64907824 4.95613596 -0.00237229 -0.00356469 -0.00428194
C 13.36781201 8.46015994 0.82136754 -0.00274145 0.00359234 0.00280852
C 19.88423525 6.05075813 0.93052705 -0.00452734 0.00323891 -0.00931969
C 22.80323438 1.21052106 5.18851557 0.00522742 0.00451314 -0.00444310
C 17.39151053 3.53845437 4.41461297 -0.00819304 -0.00772678 0.00908648
C 25.30845793 8.39552931 1.65003709 -0.00439874 -0.00270456 0.00041194
C 18.69450625 6.18619171 1.60922668 0.00463866 -0.00008709 -0.00086971
C 10.71564443 1.09281912 4.39856326 0.00279563 0.00752300 0.00190335
C 18.33263295 2.66208079 4.82718582 -0.00214973 0.00145881 -0.00034419
C 24.35560584 7.63416731 1.08600573 -0.00040079 -0.00070347 0.00039948
C 17.73754372 7.07475390 1.18636803 0.00652214 0.00647732 -0.00635892
C 11.76897544 1.85046895 4.79456128 0.00820765 -0.00477796 -0.00053007
C 18.05899267 1.81410378 5.91772152 0.00240113 0.00098464 -0.00199364
C 12.56784917 6.79586007 24.28794744 0.00197059 0.00804951 0.00529082
C 17.99793359 7.93006258 0.10595791 0.00086999 0.00142772 0.00709215
C 11.63691354 2.87093893 5.74267387 -0.00427627 0.00684557 0.01056415
C 19.92801415 1.94076398 0.50413884 -0.00363348 0.00451973 -0.00029115
C 22.65426807 6.64405585 5.22132147 0.00442717 0.00198762 -0.00455641
C 16.16659755 7.63526726 5.31903816 0.00213828 0.00011014 -0.00003043
C 13.62711184 2.78328697 0.59172749 0.00767227 0.00559157 -0.00070683
C 7.02685111 2.80253857 24.27686195 0.00496829 0.00487832 -0.00635923
C 10.57300651 7.58399206 5.69805803 0.00077269 0.00133751 0.00236922
C 17.09456147 6.86565669 5.96487116 0.00728829 0.00608140 0.00246186
C 25.54255081 1.82930886 0.04542221 0.00261207 0.00033590 -0.00566202
C 15.06603270 5.18102193 3.33357035 -0.00576192 -0.00289298 0.00735167
C 14.76997877 0.18165249 2.52799028 -0.00103718 0.00655209 -0.00576739
C 20.97157878 4.41886882 2.36994907 0.00283844 -0.00015063 0.00591532
C 21.27110853 9.29372143 3.41398018 0.00366617 0.00512486 -0.00123254
C 13.79336335 5.82791218 2.96797604 -0.00000130 0.00043952 0.00061691
C 15.92895360 1.10096299 2.70831824 -0.00580939 -0.00103637 0.00365840