2880
Time=72000.00000007 pbc="T T T" Lattice="39.29451999 0.00000000 0.00000000 0.00000000 28.75109801 0.00000000 -12.02494589 0.00000000 24.38931857" energy=-18400.03475595 virial="27.30106395 12.99800243 -55.77522084 12.99800243 60.71281508 -12.47573897 -55.77522084 -12.47573897 76.94757783" stress="0.00340044 0.00043135 -0.00206911 0.00043135 0.00482643 -0.00040206 -0.00206911 -0.00040206 0.00528320" Properties=species:S:1:pos:R:3:vel:R:3
C 3.09089110 3.70316605 5.03868504 -0.00795277 0.01323659 -0.00322408
C 0.36392761 8.45149538 0.87204248 -0.00121305 0.00543690 0.00998773
C 6.95324330 5.81471496 0.88830390 -0.00234905 -0.00098682 -0.00193410
C 9.77121473 1.09302483 5.14106621 0.00684645 0.00377258 0.00091486
C 4.25230780 3.60068805 4.31407774 -0.01241835 0.00706694 0.00135113
C 12.39713282 8.34899106 1.63359664 0.00196774 0.00251407 0.00225500
C 5.75919900 5.70969342 1.57069800 0.00214808 -0.00156591 0.00278120
C 37.01191178 1.04541294 4.17409096 0.00020728 -0.00610601 -0.00859090
C 5.26133892 2.68748397 4.65292907 -0.00061425 0.00415803 0.00006719
C 11.29957547 7.51035298 1.26992313 0.00052132 -0.00024602 -0.00578770
C 4.64810911 6.53793981 1.28377539 0.00465586 0.00351364 0.00382542
C -1.20821938 1.89548140 4.41490273 0.00652623 0.00209004 -0.00386747
C 5.15994556 1.96651989 5.85784635 0.00293318 0.00325502 0.00042656
C 11.46046832 6.84154089 0.05041156 0.00097672 0.00003985 0.00371237
C 4.82829457 7.47435959 0.24824275 -0.00398580 -0.00357629 -0.00236381
C -1.28051907 2.65813158 5.61815347 0.00448573 0.00250786 -0.00237440
C 6.94837157 1.99187986 0.54185351 -0.00191492 0.00386331 -0.00007503
C 9.96610015 6.73847675 5.60030902 0.00378825 -0.00238961 -0.00061564
C 3.19616121 7.69164812 5.57330533 -0.00038735 0.01169562 0.00041008
C 0.27129461 2.75048119 0.35496863 -0.00066532 0.00779676 -0.00647511
C 5.93225441 2.90485257 0.14413932 -0.00124194 -0.00122900 -0.00346793
C -2.36322815 7.84779153 5.89776144 -0.00278413 0.00568659 -0.00671142
C 4.13857065 6.81905039 6.05485099 0.00143459 -0.00471828 0.00422116
C 12.71561826 2.09682714 0.12437146 0.00540888 -0.00187835 -0.00005528
C 1.61762266 4.95204949 3.57409857 0.00652218 0.00613409 0.00605813
C 1.68442747 0.17031364 2.53082388 -0.00478828 0.00012320 -0.00162063
C 8.17537175 4.46399458 2.35806524 -0.00247208 -0.00395589 0.00573101
C 8.60114132 9.11822189 3.42016238 -0.00190739 -0.00207991 0.00011837
C 0.47049122 5.89368459 3.49734354 -0.00285118 0.00434628 -0.00061294
C 2.81177135 1.12136496 2.59514507 -0.00528688 -0.00196814 -0.00530211
C 9.23169529 3.34766065 2.49548744 0.00551823 0.00479225 -0.00464185
C 7.43796629 8.17402023 3.24145999 -0.00215787 0.00342495 -0.00188455
C 0.08419224 3.83376750 11.20191810 0.00459385 0.00035909 0.00494321
C -2.59548835 8.65844512 6.96928424 -0.00233174 -0.00368134 -0.00055895
C 3.89625585 5.99715986 7.15916007 0.00528250 -0.00287430 -0.00021638
C 6.55596239 1.11890447 11.18285807 -0.00836144 0.00781633 0.00209781
C 1.30418890 3.61691029 10.44719672 -0.00064321 0.00227423 -0.00374024
C 9.53931658 8.23176356 7.82070997 -0.00615901 -0.00114826 -0.00223038
C 2.75672351 6.15810304 7.88559220 -0.00162243 -0.00141769 0.00027606
C -5.06184867 1.22036976 10.35438540 0.00050049 0.00451585 0.00083362
C 2.22879579 2.71216998 10.84622091 -0.00153936 -0.00559068 -0.00078965
C 8.47112145 7.42793062 7.34244079 -0.00028695 -0.00243901 -0.00637409
C 1.74155661 7.00224131 7.44905392 -0.00223039 0.00273943 -0.00426129
C -4.13154736 2.15112685 10.75007184 0.00072649 0.00172309 -0.00821610
C 2.13959796 2.07285850 12.07537945 -0.00010307 0.00286986 -0.00749101
C 8.66175922 6.63547984 6.20317846 0.00059610 0.00078341 -0.00454184
C 1.89054358 7.70832407 6.21578072 -0.00377965 -0.00166932 0.00370451
C -4.34773470 3.03775553 11.92414082 -0.00975665 0.00423281 -0.00047444
C 3.95694218 1.96030375 6.60481981 -0.00595221 0.00400811 -0.00260516
C 6.59871855 6.75854168 11.76176285 0.00216358 -0.00502396 -0.00387435
C 0.09159920 7.89574953 11.67030730 -0.00021707 0.00315375 -0.00045990
C -2.43370641 2.55722655 6.40535657 -0.00085541 0.00749368 0.00086606
C 2.94792488 2.76823590 6.12327872 0.00284246 0.00113561 -0.00287734
C -5.27983965 7.74385567 12.05565037 -0.00559882 -0.00117666 0.00359850
C 1.04677674 6.93993288 11.98463857 -0.01130463 -0.00520345 0.00244867
C 9.49029893 1.81253258 6.31064563 0.00611227 -0.00333995 0.00176014
C -0.99561243 5.01766253 9.41917462 -0.00299510 -0.00185450 0.00309410
C -1.54324892 0.33123873 8.42928510 -0.00445939 -0.00277776 -0.00079597
C 5.13930539 4.58234297 8.66192054 -0.00069345 0.00589685 0.00203514
C 5.55897787 9.39883521 9.40445124 -0.00919310 0.00238359 0.00618306
C -2.16580048 5.95735217 9.19542774 0.00020600 -0.00121424 -0.00150043
C -0.39224407 1.27321691 8.61193504 0.00381852 -0.00254224 0.00412655
C 6.16410390 3.48666429 8.77309857 -0.00056384 -0.00131509 -0.00007124
C 4.38338279 8.57097667 9.11636692 -0.00518489 0.00439251 -0.00003186
C -2.96978289 3.60558694 17.19926437 0.00159850 0.00323171 0.00438231
C -5.56646195 8.58431949 13.18733153 0.00384659 0.00123944 0.00170788
C 0.90108315 6.09634037 13.09583791 0.00511097 0.00240715 -0.00173318
C 3.59491235 1.43521306 17.17252380 0.00788060 -0.00292113 -0.00409391
C -1.70510873 3.51663825 16.52652462 0.00166098 0.00529328 -0.00296904
C 6.21164954 8.63882106 13.80826739 -0.00220420 0.00442133 0.00169090
C -0.28249006 6.18678350 13.81812131 -0.00345858 0.00350257 0.00009825
C 31.03899773 1.07681401 16.48765110 -0.00254623 -0.00340694 -0.00694708
C -0.82922185 2.55247088 16.91011631 0.00157263 -0.00337652 -0.00134740
C 5.24203714 7.65195919 13.54929305 -0.00471514 -0.00404708 0.00598166
C -1.31326306 7.00384883 13.47820230 0.00038927 0.00515251 -0.00440623
C -7.35980454 2.06855123 16.94951011 0.00718628 -0.00293550 -0.00812321
C -1.08746595 1.68890721 18.03339249 -0.00013404 -0.01011795 0.00901601
C 5.39668007 6.74402221 12.46655476 -0.00315609 -0.01212309 -0.00559713
C -1.17069124 7.93236176 12.33483900 -0.00049441 -0.00037894 0.00247452
C -7.55616853 2.96523930 18.01591627 -0.00403237 -0.00878610 0.00218097
C 0.93665158 2.17227753 12.77265381 -0.00095745 0.00164264 -0.01055937
C 3.50266964 6.59650772 17.71776942 -0.00388700 0.00203216 0.00449453
C -3.10516947 7.74849788 17.66582722 0.00020433 -0.00488948 -0.00299251
C -5.51692020 2.81672960 12.61455870 0.00277220 -0.00299996 -0.00656136
C -0.03575452 3.07323154 12.38404545 0.00061602 0.00361479 0.00879336
C -8.51702242 7.64465321 18.30003597 -0.00050757 0.00352797 -0.00082377
C -2.09684995 7.00263643 18.12104872 0.00059843 -0.00008264 0.00183970
C 6.35796757 1.86110783 12.32003640 -0.00448108 -0.00502189 -0.00390220
C -4.04898714 5.02298725 15.62878755 0.00199304 0.00352567 0.00041195
C -4.33917966 0.38294212 14.49534085 -0.00143835 0.00139841 -0.00419164
C 2.14774444 4.77822155 14.64575988 0.00608443 0.00039269 0.00132757
C 2.29956650 9.22997213 15.91344570 -0.00096957 -0.00210862 -0.01119040
C -5.18327412 5.91393973 15.42505801 0.00018037 0.00386068 -0.00232526
C -3.21447088 1.37367307 14.56110290 -0.00024358 0.00557773 -0.00157241
C 3.46016512 4.09890615 14.90883904 0.00351336 0.00495498 -0.00423663
C 0.97985699 8.53366119 15.70453033 0.00658790 0.00341247 -0.00181226
C -5.83870557 3.63863190 23.34998999 -0.00090697 -0.00126767 -0.00008545
C -8.79952554 8.62222145 19.27360454 0.00175408 -0.00103494 0.00881336
C -2.20123602 6.09723742 19.16182426 0.00128889 -0.00127516 -0.00651698
C 0.77687544 1.32954825 23.33817327 0.00574662 -0.00946007 -0.00432673
C -4.64953919 3.57665969 22.63373554 0.00218141 -0.00820210 0.00528966
C 3.26910417 8.02028363 20.00964859 0.00694553 -0.00046730 0.00274572
C -3.36073741 6.08785688 19.89626586 -0.00628060 -0.01056504 0.00121904
C 28.03617305 1.11235698 22.58092807 0.00211382 0.00327576 0.00791360
C -3.65498613 2.72261492 23.07043236 0.00726088 0.00198011 0.00252366
C 2.22932215 7.29273158 19.56210790 -0.00669903 -0.00095177 -0.00682483
C -4.40453438 6.91026697 19.44575393 -0.00114979 -0.00109184 -0.00933589
C -10.32211925 1.99656924 22.98499366 -0.00707261 0.00005222 -0.00040007
C -3.90205699 1.86694949 24.19968326 -0.00256780 -0.00475691 -0.00270191
C 2.25742235 6.56131047 18.38349526 -0.00156820 0.00198891 0.00629170
C -4.35404746 7.79243988 18.35935671 0.00410628 -0.00440563 -0.00394508
C -10.49488107 2.88725875 24.10416360 -0.00111493 0.00667647 0.00253330
C -2.31213280 1.89079028 18.69167901 -0.00188743 -0.00609148 0.00009649
C 0.67841226 6.75397905 23.82080841 -0.00027587 0.00313509 0.00343705
C -5.95818036 7.60926924 23.94111529 0.00507471 -0.00164251 -0.00209321
C -8.68392440 2.67060268 18.71778032 -0.00722926 -0.00263004 -0.00066280
C -3.27076207 2.77431750 18.26751313 -0.00006062 0.00190458 -0.00594966
C -11.36992669 7.51618675 24.21766834 -0.00389783 -0.00549887 -0.00207195
C -4.94248833 6.71480909 24.18629196 -0.00372026 0.00598145 0.00069276
C 3.39542709 2.27842585 18.29019736 -0.00156197 0.00095185 -0.00372164
C -7.10946470 5.00053705 21.77138671 0.00063503 -0.00142450 -0.00355627
C -6.96856803 0.17255936 20.45407784 -0.00424735 0.00520531 -0.00146318
C -1.05032738 4.69825410 20.69928615 -0.00082494 0.00070896 -0.00346233
C -0.42916189 9.32590489 21.76107886 0.00655250 -0.00594811 0.00697850
C -8.20286126 5.93568293 21.56233932 -0.00776659 0.00065874 0.00047734
C -5.60662132 0.75773481 20.43234614 0.00089534 0.00036132 0.01021260
C 0.16683855 3.85781947 20.84505246 -0.00126053 0.00444466 -0.00078549
C -1.70957945 8.59911757 21.44154535 -0.01011326 0.00328885 0.00269511
C 3.05562971 13.21160490 5.22794599 -0.00119030 -0.00693550 0.00029100
C 0.29888580 18.00510727 0.66445206 0.00116768 0.00582270 -0.00333839
C 7.01789183 15.42123696 0.91773390 0.00064995 0.00120367 0.00562997
C 9.66711497 10.59087691 5.10632277 -0.00238667 -0.00311725 0.00167959
C 4.21793299 13.18425013 4.44942537 -0.00392657 0.00449075 0.00055490
C 12.13603691 18.18947074 1.64309008 -0.00104702 -0.00021907 0.00023217
C 5.76791110 15.43701556 1.61984878 -0.00390051 0.00000733 0.00135824
C 37.10532572 10.77723633 4.23868546 -0.00074792 0.00166245 0.01140158
C 5.24766116 12.36380577 4.77035958 0.00358759 -0.00131081 -0.00621001
C 11.25064564 17.22936410 1.24367424 0.00380532 -0.00424330 -0.00106064
C 4.78758651 16.34394169 1.23764737 0.00179375 -0.00357312 0.00410821
C -1.22991021 11.58813049 4.69714865 -0.00788807 0.00136041 -0.00038656
C 5.08727332 11.47866063 5.85605956 0.00053302 -0.00305433 0.00072916
C 11.42216648 16.44620424 0.06219510 0.00667357 -0.00710991 -0.00603856
C 4.98605464 17.16446305 0.01718897 0.00228286 -0.00439196 0.00012913
C -1.43949157 12.49874846 5.73704753 -0.00101702 0.00403418 0.00058391
C 7.13744318 11.54506595 0.47453312 0.00009217 0.00335880 -0.00249872
C 10.01049769 16.47036409 5.67188657 -0.00744902 0.00323599 0.00057665
C 3.31454492 17.23055577 5.55177090 0.00357901 -0.00018041 -0.00122678
C 0.42545517 12.46281992 0.30138396 -0.00803582 -0.00900672 0.00113572
C -5.88620377 12.36936140 24.37686121 -0.00384952 -0.00101112 0.00622333
C -2.47009542 17.16757239 6.01239765 -0.00160503 0.00293868 0.00077483
C 4.30470179 16.41381580 5.95208341 0.00148835 -0.00469902 -0.00050392
C 12.43092073 11.56919718 0.23149873 -0.00083945 0.01015951 -0.00009398
C 1.70936505 14.47002070 3.60193200 -0.00701943 -0.00197159 -0.00446150
C 1.71636427 9.72561614 2.49327052 0.00163617 0.00375555 -0.00100251
C 8.08843517 14.09824403 2.55016219 0.00029646 -0.00380444 -0.00346344
C 8.60793840 18.99469094 3.35689903 0.00287232 0.00318122 0.00556206
C 0.59808113 15.46703369 3.34358155 -0.00166624 0.00363579 -0.00804991
C 3.02675027 10.37579197 2.54062993 -0.00543312 -0.00322199 -0.00261441
C 9.20505792 13.10598846 2.79078530 -0.00220539 -0.00541078 0.00418498
C 7.41357180 18.24796572 2.97264120 0.00153104 0.00338460 0.00741536
C 0.22213722 13.26178310 11.21150650 0.00705573 0.00562238 -0.00419800
C -2.65633606 18.09120056 7.09489833 -0.00147130 -0.00202392 0.00138640
C 4.11879295 15.52386756 7.07695397 -0.00131760 0.00088912 -0.00281289
C 6.74825665 10.75482411 11.16852131 0.00258268 -0.00371094 0.00194028
C 1.41890370 13.14098198 10.47446625 -0.00268548 0.00356375 0.00080302
C 9.37209665 18.24342289 7.64466216 -0.00663689 0.00980328 -0.00132971
C 2.89263914 15.63176679 7.81346099 -0.00086567 -0.00180444 0.00533955
C -5.02556215 10.88609485 10.52075731 0.00257633 -0.00180712 0.00449068
C 2.41081124 12.30289700 10.94488756 -0.00198508 0.00875342 -0.00540804
C 8.41711820 17.32786003 7.29291548 0.00038165 0.00843294 -0.00058282
C 1.81538232 16.37949870 7.21456155 0.00051249 0.00044397 0.00395873
C -4.06952690 11.81476521 10.93448178 0.00378566 0.00029953 0.00392290
C 2.26654237 11.46162784 12.03665161 -0.00684551 -0.00090917 0.00268645
C 8.74551968 16.37243326 6.30962452 -0.00964944 0.00426019 0.00662299
C 2.01773908 17.21484157 6.14125468 0.00264542 -0.00614841 0.00816298
C -4.34372382 12.59774279 12.07237842 0.00256942 0.00155090 0.00203879
C 3.86911634 11.34065877 6.47360367 0.00034309 -0.00583587 -0.00630425
C 6.90975834 16.53505503 11.84051857 0.00193321 0.00152293 -0.00003982
C 0.17505415 17.02633657 11.51298544 -0.00485865 -0.00451913 0.00492398
C -2.75514893 12.59244095 6.19956368 -0.00151805 0.00315917 -0.00228479
C 2.86453712 12.25149534 6.25776538 -0.00657332 -0.00952778 -0.00520180
C -5.38955611 17.36859079 11.72812592 -0.00825574 -0.00075403 -0.00417594
C 1.20401861 16.31638911 12.05860038 0.00933936 0.00738847 0.00634361
C 9.39387472 11.42782093 6.17093197 -0.00257359 -0.00522810 0.00003680
C -1.00109990 14.62160947 9.59249042 -0.00295512 -0.00666192 -0.00508562
C -1.38993319 9.97136815 8.61557505 -0.00210050 0.00399306 -0.00029465
C 5.31763876 14.21030180 8.70221042 -0.00326344 -0.00307440 -0.00152378
C 5.49129910 18.79714565 9.82839980 0.00184189 0.00420915 0.00291761
C -2.15588136 15.64287997 9.62010015 0.00029656 -0.00953806 -0.00144459
C -0.25383001 10.76353611 9.04543102 0.00344519 -0.00460914 0.00020205
C 6.52780221 13.44082000 8.87597992 -0.00035553 0.00135100 0.00101963
C 4.34265913 17.89144221 9.69665296 0.00419450 -0.00888162 0.00562340
C -2.84944751 13.44345505 17.27642864 0.00138586 0.00671128 0.00478423
C -5.45184718 18.13546530 12.93749175 0.00292766 -0.00208611 0.00476327
C 0.98737145 15.56545634 13.22587636 0.00016421 -0.00632779 0.00805629
C 3.65021678 10.54040211 17.49256149 0.00268065 -0.00010713 0.01098449
C -1.50588988 13.47957886 16.77728871 0.00757712 -0.00256311 -0.00350732
C 6.41408896 18.17407076 14.02256054 0.00102616 -0.00440862 0.00034720
C -0.25093512 15.58641007 13.84568208 0.00393056 0.00154544 0.00347485
C -8.12508814 10.77762669 16.53774416 -0.00044598 0.00490335 -0.00053267
C -0.67508608 12.46210988 17.21019403 -0.00411441 0.00630364 -0.00239643
C 5.39690026 17.37019443 13.52091689 0.01156425 -0.00816708 0.00346979
C -1.34152087 16.34884617 13.33193284 0.00143505 -0.00021737 0.00140939
C -7.14855186 11.64584655 16.99804757 0.00040962 0.00555053 -0.00966481
C -1.01047535 11.59295899 18.31541341 0.00219489 0.00500970 -0.00043802
C 5.60052945 16.49894415 12.43535104 0.00164870 -0.00611024 0.00100067
C -1.06934424 17.10514126 12.15941291 -0.00213508 0.00129450 -0.00077500
C -7.36937744 12.43383568 18.10674858 -0.00227022 0.00014645 -0.00779728
C 1.10053747 11.63851214 12.77760467 0.00144999 0.00436521 0.00466022
C 3.75317327 16.21882963 17.78079353 0.00046657 -0.00297456 0.00220006
C -2.68685841 17.36736273 17.59954634 -0.00660200 0.00282648 -0.00148852
C -5.48888640 12.33002988 12.88898028 0.00319762 0.00224114 0.00404630
C 0.08443987 12.48790552 12.38016086 0.00809311 0.00064529 0.00463528
C -8.45736265 17.04748182 17.93405964 0.00301730 -0.00138735 -0.00400524
C -1.64720325 16.63728629 18.03091708 -0.00010638 0.00137670 -0.00428245
C 6.50806865 11.51503603 12.26416686 -0.00114930 -0.00392986 -0.00105402
C -3.76399827 14.92342704 15.61653164 -0.00904675 0.00212702 -0.00171217
C -4.37227094 10.00123323 14.82640243 -0.00034851 -0.00264509 0.00110340
C 2.11834757 14.13069550 14.83480617 -0.00539632 0.00312528 -0.00080943
C 2.50230268 18.90312613 15.90760815 -0.00107697 0.00889761 -0.00769976
C -4.70794789 15.99444415 15.22122035 -0.00068527 0.00129103 0.00216241
C -3.10845606 10.81918550 15.05706401 0.00121576 -0.00578945 0.00244463
C 3.44756235 13.36909951 15.00215060 -0.00091715 0.00187089 -0.00114315
C 1.25944901 18.10307299 15.79863380 0.00205892 -0.00161306 -0.00099535
C -5.71092179 13.15877950 23.28742511 0.00439918 0.00559692 0.00344764
C -8.60274728 17.84483896 19.09772534 -0.00195442 0.00006280 -0.00036435
C -1.85724137 15.77151763 19.17317114 0.00617251 0.00179675 0.00012079
C 0.58553729 10.73947175 23.46765546 0.00427477 -0.00219285 0.00209659
C -4.46375553 13.22346709 22.67453930 -0.00410096 -0.00524483 -0.00731366
C 3.27493446 17.90506365 19.99274223 -0.00268132 -0.00425679 0.00054367
C -3.10992166 15.80004817 19.86223739 -0.01098634 0.00110549 -0.00006528
C -11.03538994 10.77309954 22.55192958 -0.00281207 0.00032247 -0.00111892
C -3.42724082 12.51587965 23.18237193 0.00703487 -0.00029796 -0.00173129
C 2.21598078 17.14172648 19.40171135 0.00480538 -0.00053338 0.00711116
C -4.11220545 16.61390389 19.42796113 -0.00303408 0.00236379 0.00163150
C -10.09935015 11.59704414 23.01229115 0.00618593 0.00153113 0.00593454
C -3.60922954 11.57924466 24.26603253 -0.00115309 0.00121402 -0.00182250
C 2.44980172 16.22108511 18.39540850 0.00850926 0.00228539 0.00260347
C -3.94598759 17.39900475 18.23003684 0.00546816 0.00072799 0.00448669
C -10.30538864 12.50467303 24.09109679 0.00482464 0.00277334 -0.00135232
C -2.24298862 11.77093949 18.90500535 0.00090224 0.00938017 -0.00186152
C 0.69592844 16.57888589 23.78292558 -0.00048448 0.00007250 0.00699310
C -5.85351391 16.97430890 23.68903888 0.00417364 0.00200548 0.00062955
C -8.66249834 12.45265049 18.67394664 0.00024853 -0.01128562 -0.00415879
C -3.20682639 12.55235929 18.27034265 -0.00093157 0.00186809 -0.00235911
C -11.51360111 17.16834124 23.93493873 0.00339099 -0.00517605 -0.00174053
C -4.84856285 16.20066692 24.21582848 -0.00097255 -0.00081153 -0.00800350
C 3.57966638 11.36508970 18.62620240 -0.00509703 0.00277356 0.00085759
C -6.89725702 14.61532802 21.80299896 0.00045181 -0.00084898 0.00192221
C -7.47164008 9.94010196 20.90836679 -0.00085657 0.00291992 0.00779523
C -0.84809585 14.26809955 20.71957117 -0.00013567 -0.00373932 0.00385036
C -0.56212894 19.10748451 21.78602411 0.00288884 0.00888807 0.00810150
C -8.24158180 15.39222406 21.60187626 -0.00141555 0.00094543 0.00347549
C -6.17724388 10.72719488 21.16255522 -0.00550087 0.00290843 0.00021416
C 0.30456895 13.27693814 20.82934829 0.00072483 -0.00107547 -0.01001143
C -1.95123751 18.54482647 21.45452595 -0.00473806 0.00015002 0.00588735
C 3.18110275 22.93934670 5.01405049 -0.00722226 -0.00124066 -0.00127356
C 0.49142686 27.47955516 1.03627371 -0.00434418 0.00015753 0.00400746
C 6.91745963 24.91799310 0.95426506 0.00641287 0.00175562 0.01150826
C 9.71244340 20.20837766 5.13021188 -0.00205619 -0.00160058 -0.00053700
C 4.37485097 22.78269884 4.32288166 -0.00235101 0.00020441 -0.00131578
C 12.33252611 27.43152690 1.74951719 -0.00119936 -0.00335147 0.00541653
C 5.61891627 25.13530394 1.52596745 -0.00594617 -0.00241021 -0.00014598
C 36.98074155 20.07221986 4.33858058 0.00023370 0.00596025 0.00154525
C 5.27514290 21.77349676 4.65393554 0.00133526 0.00463301 -0.00893166
C 11.44868147 26.52429995 1.24923101 0.00135550 0.00300960 0.00798719
C 4.79597805 26.16914748 1.11285240 -0.00387234 0.00005273 0.00348335
C -1.27673884 20.98574582 4.71672074 0.00139154 -0.00026176 0.00451543
C 5.03039098 20.99273619 5.78713656 0.00628731 -0.00426631 0.00680229
C 11.75513740 25.79465687 0.07886989 -0.00113588 0.00253662 0.00851832
C -6.94713282 26.86010087 24.31072352 0.00152604 -0.00403902 0.00120783
C -1.47518217 21.90732710 5.74096412 -0.00130039 0.00759470 0.00186965
C 6.94503623 21.14278825 0.52849878 -0.00701418 -0.00186944 -0.00669752
C 9.62211190 25.80518763 5.64211565 0.00003704 -0.00023774 -0.00005088
C 3.12981895 26.88762204 5.71283301 -0.00090987 0.00557084 0.00554704
C 0.43095544 21.80478476 0.49905144 -0.00613750 0.00169122 -0.00398084
C 5.99066194 21.97849481 0.08945775 -0.00719086 -0.00216749 0.00719210
C -2.48173699 26.63469667 5.94838982 0.00473961 0.00676343 -0.00851772
C 4.08567419 25.88727706 5.99441089 -0.00433000 0.00062304 -0.00810708
C 12.43691884 21.19158941 0.17713650 0.00052057 -0.00282784 -0.00552214
C 1.88271951 24.30940552 3.42567704 0.00206284 0.00469013 -0.00872159
C 1.39987294 19.33867913 2.30834344 0.00453225 -0.00543322 -0.00415647
C 8.02812980 23.51170862 2.65620167 0.00773379 -0.00683299 0.00175839
C 8.66691158 28.42632820 3.49156164 -0.00314623 0.00174760 0.00241278
C 0.54211688 24.99588161 3.20820483 0.00009141 -0.00169988 0.00009572
C 2.56088632 20.29213067 2.63283490 0.00113760 0.00361299 0.00572672
C 9.17380294 22.66854956 2.83455664 0.00511982 0.00335599 -0.00377408
C 7.28431557 27.81654117 3.27275648 0.00581306 -0.00130815 -0.00495814
C 0.20966679 22.86641007 11.07331356 0.00092124 -0.00004232 0.00204515
C -2.62894747 27.47688943 7.02987234 -0.00562224 0.01060165 0.00070478
C 3.88135555 25.10132474 7.13202897 0.00169652 0.00413469 -0.00200284
C 6.60722044 20.30043995 11.33477556 -0.00098319 0.00110106 0.00116821
C 1.41523419 22.69641025 10.40361304 0.00044869 0.00132634 -0.00012360
C 9.19975226 27.55933110 7.82158368 0.00351186 -0.00133862 -0.00095759
C 2.69426745 25.22447314 7.86241247 -0.01251781 -0.00121785 -0.00128262
C 33.90144723 20.40045852 10.40554900 0.00244523 -0.00350434 0.00349384
C 2.38574232 21.81884655 10.82599307 -0.00083681 0.00101701 0.00124100
C 8.20377657 26.64906607 7.39426423 -0.00180330 -0.00709922 -0.01394281
C 1.72674025 26.17177388 7.52568405 0.00600424 -0.00350833 -0.00692488
C -4.45792258 21.33593805 10.79535112 -0.00206593 0.00083039 0.00658231
C 2.12966472 20.99342437 11.95093400 -0.00405051 -0.00840921 -0.00384292
C 8.39880803 25.81273175 6.31466668 0.00152328 0.00361017 0.01190887
C 1.90050800 26.91776830 6.33003866 0.00282418 0.00678569 -0.00619823
C -4.60040907 22.03947783 12.02228754 0.00040529 -0.00760036 0.00193724
C 3.84652555 21.21308613 6.57176511 0.00754045 -0.00189724 0.00017554
C 6.57412449 26.08484559 11.61155619 0.00534296 0.00389642 -0.00363284
C 0.21060391 26.72356281 11.50141226 0.00656460 0.00911364 0.00507912
C -2.71323912 21.92138611 6.36013160 -0.00171626 -0.00158428 0.00260917
C 3.00097822 22.20766705 6.21543811 0.00362991 0.00672990 -0.01216646
C -5.26150385 26.64158991 11.97247805 0.00132811 -0.00037084 -0.00556269
C 1.15405669 25.95501691 12.01244784 0.00241038 0.00181378 -0.00381646
C 9.31529772 21.00954397 6.26767392 0.00105692 0.00082890 -0.00037548
C -1.05113454 24.08550416 9.49758416 -0.00233366 -0.00141453 -0.00496093
C -1.39140649 19.43457828 8.60691683 -0.00580385 -0.00015210 -0.00217887
C 4.96495752 23.62600498 8.65780646 -0.00400704 0.00411753 0.00770880
C 5.40192393 28.52850932 9.58488380 -0.00512515 0.00067207 0.00065856
C -2.17745444 25.01194203 9.20699729 0.00015362 -0.00437619 -0.00249665
C -0.02218012 20.04290494 8.67855937 0.00343180 0.00082386 -0.00154390
C 6.10584879 22.73697431 8.98945065 -0.00329905 -0.00366375 -0.00167710
C 4.22844838 27.68534869 9.38052546 0.00522167 -0.00480656 0.00123000
C -2.64718741 22.67219073 17.35901179 -0.00568797 -0.00238431 -0.00374383
C -5.42813808 27.60978290 13.00339679 0.00314189 -0.00413531 -0.00326091
C 0.84580738 25.19952086 13.08663682 -0.00029992 -0.00554191 0.00020949
C 3.84140075 20.19431518 17.50577410 -0.00685836 0.00555387 -0.00009312
C -1.38273729 22.73660750 16.73393197 -0.00076745 -0.00004381 0.00223289
C 6.23875481 27.54178852 13.98229197 0.00253905 -0.00486731 0.00342842
C -0.38637891 25.29788805 13.76113778 0.00102327 0.00894414 -0.00278824
C -8.09737529 20.26042144 16.60278918 0.00218622 -0.00754803 0.00657677
C -0.30395401 22.05326192 17.24988451 0.00595331 0.00655181 0.00231725
C 5.26337843 26.60372861 13.60981516 0.00210343 0.00178542 0.00250109
C -1.37426290 26.07023800 13.19452819 -0.00160863 0.00367796 0.00054487
C -7.06431810 21.16873769 17.03877109 0.00425352 -0.00130056 0.00943701
C -0.48458118 21.25018131 18.39915805 0.00123028 -0.00489131 -0.00456833
C 5.39189695 25.91233001 12.35102710 0.00607645 0.00268403 -0.00437813
C -1.12781972 26.76294490 11.99890254 0.00833008 -0.00357232 0.00208508
C -7.27793678 22.06860534 18.10301221 0.00055681 0.00216226 0.00040911
C 0.81498664 21.06255621 12.56789463 -0.00259244 -0.00283344 -0.00290334
C 3.68717810 26.18048502 17.73641431 0.00102703 -0.00474422 -0.01137130
C -2.84679624 26.76043549 17.49337123 -0.00165561 -0.00437798 0.00081743
C -5.77412598 21.86579435 12.79826196 -0.00375212 0.00058105 -0.00031155
C -0.17164140 21.93233645 12.08009832 0.00026522 0.00429733 0.00521184
C -8.17287208 26.65784513 18.03333813 -0.00428196 -0.00338921 0.00082873
C -1.87968105 25.84366282 18.07326721 0.00105287 -0.00259540 -0.00806612
C 6.31551326 21.23509278 12.41918332 -0.00058665 -0.00284384 0.00293241
C -3.75218935 24.06318324 15.72082642 -0.00179243 -0.00729938 -0.00988766
C -4.13526784 19.34309252 14.52080250 0.00200750 -0.00683085 -0.00097014
C 2.02427754 23.79585470 14.66538440 -0.00133085 -0.00086311 -0.00269464
C 2.41332213 28.59402529 15.79232179 -0.00590637 -0.00458804 -0.00231204
C -4.92291496 24.93584076 15.43120689 -0.00175984 -0.00039359 0.00431647
C -2.89260582 20.21954780 14.70338349 -0.01241161 0.00627690 0.00758470
C 3.26478262 22.94524900 14.83181652 -0.00218532 -0.00580310 -0.00100214
C 1.28818371 27.63262755 15.70564665 -0.00186127 -0.00651041 -0.00005113
C -5.90589293 22.73376711 23.32649555 -0.00022275 0.00187615 0.01209274
C -8.37742137 27.54951496 19.09116331 0.00470336 -0.00072366 0.00155616
C -2.11683245 25.16804774 19.24843063 -0.00005841 0.00109296 -0.00158133
C 0.62032564 20.42933187 23.44193013 0.00329039 0.00145417 -0.00423551
C -4.66643253 22.70929920 22.62368597 -0.00444202 -0.00124775 0.00080004
C 3.14489017 27.71776307 20.08126226 0.00547568 -0.00564390 -0.00262580
C -3.33288650 25.31368000 19.86405964 -0.00195511 -0.00275839 -0.00667368
C -11.14109407 20.36131373 22.61478779 0.00510180 -0.00552098 -0.00463867
C -3.75643164 21.73299828 22.95016198 -0.00366718 -0.00187887 -0.00320617
C 2.25642401 26.81062806 19.58282711 -0.00281267 -0.00442900 0.00002318
C -4.29970754 26.06523491 19.27580712 0.00013149 0.00173617 0.00151681
C -10.20576069 21.30770525 22.97824658 0.00369029 -0.00719899 0.00340146
C -3.90444045 21.00346023 24.11387569 -0.00356334 0.00193328 -0.00042254
C 2.45638695 26.07924440 18.43075624 0.00147705 0.00387828 -0.00287647
C -4.09948308 26.78762669 18.07018516 0.00104815 -0.00142122 -0.00416995
C -10.36095518 21.88826856 24.24007348 -0.00805725 0.00354335 -0.00034338
C -1.71515207 21.18419396 19.02235254 -0.00194752 -0.00161718 0.00721876
C 0.95849304 26.08994032 23.82692046 -0.00061911 0.00376964 0.00492886
C -5.71815976 26.50615752 23.62439475 -0.00708137 0.00110129 -0.00593403
C -8.50103750 21.92813960 18.74784879 0.00815058 -0.00038003 0.00097440
C -2.80075635 21.80971159 18.41729297 0.00505562 -0.00668422 -0.00018605
C -11.41598958 26.76683592 24.23940737 0.00522363 -0.00511061 -0.00601963
C -4.81901424 25.61253093 24.19864594 0.00530726 0.00474727 -0.00013590
C 3.51590903 21.06238183 18.53815787 0.00050551 -0.00236739 -0.00188759
C -6.98771726 24.29472168 21.80801511 0.00453676 0.00207689 0.00048304
C -7.34924506 19.28538364 20.68471996 -0.00492814 0.00288055 -0.00226193
C -0.99343968 23.86137259 20.95191934 -0.00042659 0.00491497 -0.00020317
C -0.41336902 28.61660950 21.98764974 0.00427862 0.00560724 -0.01005983
C -8.05687772 25.30409521 21.66119317 0.00233035 0.00701933 0.00047873
C -6.04842956 20.14867665 20.80137457 -0.00614172 -0.00511657 0.00221431
C 0.19833994 22.97994777 21.25374890 0.00137591 -0.00942407 -0.00091553
C -1.59968312 27.61967122 21.96042482 -0.00339481 0.00764612 0.00942624
C 16.07481589 3.92489927 5.14463959 0.00751101 -0.00357845 0.00574171
C 13.57807797 8.44590199 0.93256137 0.00274352 0.00169630 -0.00015605
C 20.01042010 5.87856121 0.86531156 -0.00405584 0.00053660 -0.00014119
C 22.55175606 0.99239357 5.28437839 -0.00293637 -0.00039205 0.00520278
C 17.29445082 3.79995012 4.47270124 -0.00035574 -0.00590800 -0.00272048
C 25.21238833 8.09753521 1.39479660 0.00402581 -0.00615093 0.00222850
C 18.86142867 6.03166536 1.54804065 0.00319968 -0.00126416 0.00099344
C 11.04469357 1.20032267 4.62742637 -0.00129315 -0.00925355 0.00095575
C 18.19489267 2.78853583 4.81182596 0.00733708 0.00042014 0.00615771
C 24.30741997 7.11606692 1.12067595 -0.00146596 -0.00209471 -0.00300135
C 17.82855547 6.86015072 1.07935123 0.00001454 0.00800876 0.00020393
C 11.90277198 2.20630401 5.01785668 0.00077331 0.00097256 -0.00431693
C 17.86888389 1.96266742 5.91127475 0.00613210 0.00519436 0.00319025
C 12.41921970 6.32552740 24.33644577 0.00384682 -0.00303054 -0.00058624
C 5.94973359 7.66525833 24.29971139 -0.00181369 0.00484532 -0.00862709
C 11.67444468 2.88449716 6.20201212 -0.00330292 0.00220602 0.00100991
C 20.28705419 2.00107954 0.80584312 0.00125074 -0.00428962 -0.01075238
C 22.95982679 6.55709006 5.47523136 -0.00275736 0.00538931 -0.00366196
C 16.50978378 7.82190065 5.66564474 0.00150469 0.00641761 0.00224817
C 13.65182990 3.02903575 0.44556235 -0.00425450 0.00012706 -0.00066496
C 19.27361534 2.79283820 0.33414902 0.00219915 -0.00182751 -0.00528781
C 10.92904023 7.63911474 5.92275188 -0.00599122 0.00082042 -0.00105221
C 17.48284647 6.91115532 5.92591222 0.00684153 0.00459181 -0.01022275
C 25.80715585 1.85051657 0.36226322 0.00123075 0.00387601 0.00549711
C 14.87143804 5.31692293 3.54632072 -0.00730984 0.00167400 -0.00685285
C 14.58641164 0.29959646 2.82191307 -0.00114791 0.00577813 -0.00116936
C 21.07067971 4.53842317 2.57784480 0.00216547 -0.00220311 -0.00142896
C 21.51919911 9.25894132 3.42606376 -0.00064601 0.00274327 0.00079629
C 13.59674019 6.15011506 3.42633896 0.00489945 -0.00691155 0.00368608
C 15.74191213 1.24978256 3.30461618 -0.00875007 0.00164099 -0.00003238