2880
Time=80000.00000008 pbc="T T T" Lattice="39.17774444 0.00000000 0.00000000 0.00000000 28.84463600 0.00000000 -12.01356506 0.00000000 24.34317460" energy=-18398.79451060 virial="85.63144161 0.15133749 -101.57318552 0.15133749 -5.47124906 15.33675226 -101.57318552 15.33675226 25.38419903" stress="0.00563831 0.00004702 -0.00370071 0.00004702 0.00222917 0.00057048 -0.00370071 0.00057048 0.00342966" Properties=species:S:1:pos:R:3:vel:R:3
C 3.06339779 3.57662642 4.89457991 -0.00814960 -0.00105429 -0.00192585
C 0.50177258 8.50828012 0.93157587 -0.00025563 -0.00421218 0.00409140
C 7.04440326 5.97411546 0.80225138 0.00101077 0.00053197 -0.00363048
C 9.77743501 1.37929814 5.11108860 -0.00066525 0.00187797 0.00129539
C 4.32498048 3.58646850 4.24408618 0.00318163 0.00286410 -0.00368017
C 12.18789297 8.67574279 1.76857217 0.00094537 -0.00180951 -0.00472486
C 5.85112404 6.03767906 1.53802907 0.00878179 -0.00508177 0.00215876
C 37.01979479 1.16457554 4.19036427 0.00399626 -0.00452763 -0.00035906
C 5.31503132 2.73491051 4.61866323 -0.00215207 0.00342504 -0.00408334
C 11.23551623 7.83925588 1.19979045 -0.00122763 -0.00062502 0.00025526
C 4.81440059 6.78622923 1.02489829 -0.00387141 0.00125166 -0.00045388
C -1.10356540 1.96635651 4.60696628 0.00621491 -0.00426043 -0.00039860
C 5.21158717 2.02714176 5.81012412 0.00183524 0.00310724 0.00558971
C 11.41570999 7.03697264 0.05819537 0.00125693 0.00066835 -0.00031816
C -7.09869355 7.57765723 24.17275011 -0.00052000 0.00284042 -0.00583294
C -1.27515658 2.84065034 5.75646872 0.00269755 0.00865951 0.00143674
C 6.87338224 2.25599178 0.55713908 0.00516073 -0.00135336 -0.00249380
C 9.68624440 7.03335569 5.53981080 0.01070963 -0.00556559 -0.00283136
C 2.99481759 7.42998043 5.30234522 -0.00066692 0.00578013 -0.00568166
C 0.42207536 3.10424197 0.07413091 0.00263136 -0.00287878 -0.00606326
C -6.05387811 3.04682471 24.27967358 0.00000237 -0.00333605 -0.00470463
C -2.33607713 7.48956927 5.91275072 0.00394349 -0.00053355 -0.00476523
C 3.99574107 6.60272640 5.81260528 -0.00054399 0.00095263 -0.00462692
C 12.59275290 2.07482375 0.12405107 0.00211573 0.00766575 0.00068060
C 2.06282415 4.96116986 3.19859346 -0.00465872 0.00283930 0.00526113
C 1.73250988 0.15317611 2.35938502 -0.00591733 -0.00728283 -0.00411506
C 8.14075984 4.64605531 2.47269760 -0.00177648 -0.00401456 0.00042525
C 8.41599563 9.58680347 3.57501831 0.00269228 0.00100750 -0.00440607
C 0.90931418 5.85060699 2.88787967 -0.00194524 0.00260092 -0.00654440
C 3.02530946 0.85296200 2.50270676 -0.00287569 -0.00299317 -0.00451200
C 9.25463590 3.64633701 2.51992566 -0.00587814 -0.00350930 0.00111632
C 7.41009138 8.46085403 3.49161666 0.00257853 -0.00507080 0.00133870
C 0.25950543 3.63229442 11.09301864 0.00528593 0.00433349 0.00111271
C -2.61585886 8.37458050 6.98121927 -0.00189021 0.00388042 0.00295344
C 3.68398054 5.72028965 6.85678496 -0.00107086 0.00704835 -0.00488846
C 6.86859511 1.08074238 11.08780781 0.00104460 0.00456641 0.00364842
C 1.49493507 3.62614909 10.45475653 0.00197211 -0.00157632 0.00188970
C 9.15203520 8.56893502 7.72491377 -0.00372367 -0.00134707 -0.00097208
C 2.49070297 5.77666760 7.48836158 0.00159074 0.00256343 -0.00571775
C -5.03648871 1.34671525 10.35061387 -0.00295830 -0.00087325 -0.00042905
C 2.47925838 2.77091170 10.85360789 0.00119892 -0.00692654 -0.00539342
C 8.16520521 7.80064690 7.14757583 -0.00099924 -0.00050350 -0.00348226
C 1.57181379 6.80481993 7.20162212 -0.00053215 0.00102735 -0.00102548
C -4.00287989 2.17912540 10.78502366 -0.00317389 0.00122413 0.00434830
C 2.26065954 1.88530713 11.90066569 -0.00079814 0.00232377 0.00240211
C 8.44039043 6.95373810 6.14109605 0.01010726 -0.00469636 0.00203493
C 1.79794592 7.62141940 6.08440914 -0.00499285 -0.00588040 -0.00786652
C -4.09085705 2.83525626 12.02157950 0.00206349 -0.00787050 0.01131056
C 3.97413887 1.95642146 6.43841954 0.00432137 0.00442181 0.00188665
C 6.69209575 6.89743710 11.49805371 0.00216991 0.00294669 -0.00198670
C 0.22047355 7.51913531 11.37580451 -0.00326091 0.00561733 0.00318213
C -2.50922613 2.73214263 6.47924604 0.00274150 0.00198657 -0.00079921
C 2.92079013 2.75445363 6.02112188 -0.00487656 0.00087192 -0.00064863
C -5.55320556 7.75125030 11.80858323 -0.01067600 0.00410630 -0.00258342
C 1.28716927 6.81141117 11.86520736 -0.00066202 -0.00397957 -0.00491318
C 9.60986055 2.19077144 6.26239762 0.00052875 -0.00159114 0.00542127
C -1.02822664 4.96888699 9.55163382 -0.00010441 -0.00262342 0.00307583
C -1.43013823 0.24987292 8.53092651 -0.00403045 -0.00124618 -0.00021613
C 5.02454768 4.43081817 8.45918351 0.00228106 0.00527785 0.00063193
C 5.36249239 9.38144785 9.59953824 0.00175139 -0.00059511 0.00334085
C -2.11773544 5.98047765 9.47049593 0.00301567 0.00333636 -0.00660849
C -0.17866162 1.02536036 8.78782373 0.00175613 -0.00119402 0.00125914
C 6.42756478 3.92062091 8.53655006 0.01385892 0.00708513 0.00100877
C 4.14176863 8.61024562 9.36116284 0.00460758 -0.00361836 -0.00734243
C -2.85325115 3.81211071 17.15700472 0.00303060 -0.00818345 0.00290286
C -5.68123595 8.43397000 13.06020283 -0.00178967 0.00232998 -0.00190914
C 1.01545308 5.99571235 12.97759174 0.00361568 0.00034941 -0.00309132
C 3.61052150 1.03244868 17.12742369 -0.00889852 0.00582135 0.00537361
C -1.58270065 3.80376994 16.51584301 0.00564348 0.00073098 -0.00875117
C 6.35245066 8.41478606 13.83278072 -0.00227367 -0.00228399 0.00116184
C -0.17445081 6.16259687 13.77440463 0.00083592 0.00130088 0.00231581
C -8.19342700 1.18928519 16.69486826 -0.00089525 -0.00423781 -0.00212637
C -0.74796798 2.80831052 16.98666527 -0.00454028 0.00019228 -0.00012674
C 5.35476313 7.59106214 13.36449866 0.00284260 -0.00547767 -0.00141899
C -1.13760129 6.93975249 13.29266683 -0.00121794 -0.00568956 -0.00269422
C -7.29221491 2.14170761 17.03926233 -0.00162866 0.00174320 0.00013614
C -0.99282965 1.93539840 18.04974357 -0.00041692 -0.00394697 -0.00708496
C 5.49845284 6.81579802 12.18210964 0.00440867 -0.00429017 0.00001113
C -0.96623814 7.68042897 12.11227489 -0.00908956 0.00018532 0.00003899
C -7.45919504 3.01606196 18.17444022 0.00021870 0.00137571 -0.00102527
C 0.99894363 1.87119039 12.52544192 -0.00141121 -0.00432992 -0.01007059
C 3.72013497 7.01436252 17.77284687 -0.00001743 0.00194612 0.00516784
C -2.49641737 7.73936091 17.55077179 0.00339485 0.00004825 0.00477686
C -5.31037050 2.74124873 12.73594073 0.00268275 -0.00063880 0.00402317
C 0.02480177 2.74540895 12.12502488 -0.00116293 -0.00167045 -0.00096375
C -8.60260669 7.84238850 18.05790986 -0.00192029 0.00797425 -0.00319628
C -1.57692740 6.79676200 18.05393058 -0.00097473 0.00227898 -0.00535769
C 6.56073228 1.87355307 12.20590893 -0.00004424 0.00882075 0.00188288
C -4.02405578 5.27196975 15.57171251 -0.00567470 0.00567028 0.00104573
C -4.30056614 0.38567861 14.68340213 0.00456216 0.00272870 0.00365299
C 2.21163755 4.64273036 14.64113870 -0.00840083 -0.00642027 0.00688444
C 2.59672468 9.32837376 15.85934921 0.00678918 -0.00560109 -0.00426934
C -5.21009784 6.08459688 15.54601557 0.00182922 -0.00100636 0.00240109
C -2.93154615 0.97050335 14.86693563 -0.00213827 0.00551962 0.00009517
C 3.30241307 3.58482931 14.66162155 0.00233580 0.00054037 -0.00749768
C 1.44212574 8.35248961 15.49912405 0.00216599 0.00248108 0.00473607
C -5.79127052 3.84861028 23.20513958 0.00289618 0.00124418 -0.00000059
C -8.86530127 8.60991790 19.20634487 -0.00088964 -0.00726282 0.00379202
C -1.88650178 5.96566862 19.16455583 -0.00375907 -0.00034772 -0.00041223
C 0.73750307 1.24414098 23.35682655 0.00202612 -0.00164169 -0.00707289
C -4.48895370 3.89480496 22.66780594 0.00106499 -0.00887197 -0.00695579
C 3.32694102 8.53550785 20.03609278 0.00030817 -0.00397726 -0.00120939
C -3.14411848 6.10838016 19.79112549 0.00133126 -0.00327741 -0.00214047
C 27.83764174 1.26333778 22.50456969 -0.00064599 0.00167476 -0.00252482
C -3.59369592 2.89449652 23.08740008 -0.00269618 0.00200796 -0.00344354
C 2.32792339 7.62254350 19.65275182 0.00228424 0.00796283 0.00142318
C -4.06557723 7.02791960 19.31444891 0.00152403 0.00507361 0.00488400
C -10.19810725 1.91060154 22.87083051 0.00249671 0.00541179 0.00146341
C -3.88900218 2.10986803 24.25017935 0.00538504 0.00663463 0.00448337
C 2.48526048 6.85884404 18.44899112 0.00165337 0.00047788 0.00365404
C -3.77417919 7.80549767 18.15635823 0.00170311 0.00066080 -0.00708554
C -10.35379528 2.97082843 23.80478845 0.00355727 0.00077045 -0.00213900
C -2.25619816 2.09113846 18.70285561 -0.00520906 0.00940224 0.00081444
C 0.69890382 7.14550837 23.81361764 0.00006804 -0.00313743 -0.00607217
C -5.81943795 7.61891719 23.56886295 -0.00328972 0.00370960 -0.00312291
C -8.63773908 2.73646031 18.96384555 -0.00358026 -0.00517070 0.00201871
C -3.12171530 3.08305048 18.29010532 0.00100117 0.00422772 -0.00076974
C -11.37306813 7.68037658 24.17831721 0.00063954 -0.01145581 0.00370116
C -4.75563146 6.88715902 24.06663427 0.00567442 -0.00425233 0.00401946
C 3.41455132 1.96124192 18.19162331 -0.00317979 -0.00873185 0.00489646
C -6.86830513 5.32254430 21.55810114 0.00117391 -0.00452558 0.00549194
C -6.95706106 0.28401726 20.93181715 -0.00045665 0.00042071 0.00863332
C -0.77016260 4.60162088 20.88033682 0.00421984 -0.00553068 -0.00045878
C -0.15691005 9.59097686 21.58772504 0.00008923 -0.00423867 0.00215176
C -8.05453045 6.12162628 21.25375715 0.00197107 -0.00092069 -0.00379546
C -5.91725050 1.24327217 21.26158348 0.00126848 0.00232747 -0.00790319
C 0.52537027 3.79384382 21.22659557 0.00340187 -0.00218991 -0.00049668
C -1.25281224 8.62685661 21.34899446 -0.00461281 -0.00437591 -0.00351731
C 3.16106805 13.45439820 5.16172748 0.00382826 -0.00598002 -0.00039757
C 0.51886014 18.01725518 1.01552329 -0.01078166 -0.00129434 -0.00591294
C 6.89524970 15.65098807 0.77626568 -0.00441557 0.00059114 0.00247874
C 9.57219909 11.03283347 5.12927469 0.00583852 0.00049389 0.00581974
C 4.36827109 13.31061817 4.51590776 -0.00210778 -0.00513966 -0.00188120
C 12.26650259 17.97153789 1.64463029 0.00084276 0.00170345 -0.00036150
C 5.67230988 15.62724867 1.44346453 -0.00123816 -0.00106557 -0.00346567
C 36.82701990 10.55894577 4.19569272 0.00407132 -0.00345194 0.00368256
C 5.38751096 12.49109237 4.93112555 -0.00752681 0.00125782 -0.00475009
C 11.21767431 17.15912149 1.22388374 0.00042725 -0.00267288 -0.00749530
C 4.69713521 16.50301869 1.07876545 0.00055762 0.00456806 -0.00171057
C -1.35475638 11.43268708 4.62249167 -0.00029877 -0.00703877 -0.00272765
C 5.23483380 11.71664618 6.14614312 -0.00100296 0.00106960 0.00353449
C 11.38936220 16.35992640 0.05523635 -0.00392014 0.00131983 0.00130068
C -7.17361621 17.33359678 24.28241703 0.00622512 0.00128576 -0.00432395
C -1.47720822 12.20501501 5.79673288 0.00374271 0.00281776 -0.00563325
C 6.91167856 11.81563784 0.56080394 0.00171205 -0.00022827 -0.00083943
C 9.61719759 16.43240394 5.41529473 -0.00207452 -0.00685784 0.00373182
C 3.26088561 16.97513532 5.43771385 -0.00760687 -0.00013940 -0.00344159
C 0.49654184 12.62179993 0.66273472 0.00381186 -0.00247123 0.00430584
C -6.10552950 12.55415631 24.34019828 -0.00418535 0.00274161 -0.00096938
C -2.28255604 17.15344495 5.92487406 -0.00218121 -0.00334978 -0.00601581
C 4.27960363 16.24569273 5.91366378 -0.00353787 -0.00310102 0.00219530
C 12.66097483 11.60722458 0.22370464 0.00001507 0.00042064 0.00567273
C 2.05700545 14.70640088 3.44353078 0.00762578 -0.00339077 0.00827724
C 1.71185192 9.98888108 2.45384480 -0.00800091 0.00536081 -0.00049184
C 8.14078992 14.48881682 2.42049408 -0.00222944 0.00067115 -0.00011774
C 8.62398360 18.90367643 3.44847659 0.00273427 0.00179313 0.00103920
C 1.15286646 15.80799526 2.99490983 0.00079779 -0.00585580 0.00103993
C 2.81918240 10.96634248 2.53783685 -0.00368072 0.00005152 -0.00147450
C 9.43127399 13.71960293 2.56889369 0.00203210 -0.00002366 -0.00456418
C 7.33356859 18.17962644 3.07188224 0.00169882 0.00207436 -0.00118974
C 0.07305143 13.20391432 11.34349172 -0.00271096 0.00470648 -0.00090382
C -2.47709080 17.94580595 7.02701515 0.00633494 0.00236028 -0.00303028
C 4.07560701 15.35505032 7.00493939 0.00238282 -0.00369854 -0.00593787
C 6.60922522 10.64953346 11.29210999 -0.00339485 0.00274703 0.00442096
C 1.29774774 13.10036620 10.67026522 0.00411127 0.00739853 0.00233586
C 9.27688437 17.83337629 7.71059613 -0.00061423 0.00506390 0.00234217
C 2.79990228 15.36117179 7.67369792 -0.00054883 -0.00268170 0.00024630
C 33.85124595 10.90648406 10.31929726 0.00222426 -0.00463986 0.00312929
C 2.39498872 12.42262773 11.15166873 0.01183123 -0.00069770 0.00879003
C 8.15034290 17.18884633 7.16827637 0.00207174 -0.00674862 0.00609412
C 1.77588160 16.22641701 7.25983313 0.00098289 0.00264287 0.00617007
C -4.35970380 11.76772641 10.77182762 0.00192031 0.00779277 0.00935958
C 2.16070750 11.53368979 12.26811766 -0.00923401 0.00154340 -0.00148476
C 8.36106376 16.46391819 6.04135370 -0.00437675 0.00597685 0.00630834
C 1.94041797 17.08799670 6.11513637 -0.00189046 -0.00155142 -0.00055994
C -4.62240136 12.62933783 11.83226566 0.00211079 0.00968302 -0.00447090
C 4.03278919 11.85993130 6.81678844 -0.00403039 -0.00517740 -0.00544958
C 6.44977269 16.31043293 11.57683336 0.00183540 0.00090601 -0.00802649
C -0.09239509 17.00773781 11.52870363 -0.00372599 -0.00772270 -0.00703624
C -2.63412304 12.04998611 6.57921257 -0.00570134 -0.00159383 -0.00878389
C 2.99870976 12.61579582 6.32647848 0.00141014 0.00429728 0.00229936
C -5.51215192 17.30576996 11.85636589 0.00368009 -0.00069783 -0.01263300
C 0.92312614 16.21093064 12.04383742 -0.00238852 -0.00533013 0.00357510
C 9.47353964 11.84589661 6.23922582 0.00192339 -0.00297628 -0.00250110
C -1.20170334 14.45923648 9.58154386 0.00061478 0.00015550 0.00508491
C -1.52694278 9.83274680 8.53492302 -0.01020618 -0.00164131 -0.00895836
C 5.26905978 14.28822455 8.76471480 -0.00152661 -0.00187885 -0.00798425
C 5.33784230 18.92950929 9.69633036 0.00400214 -0.00492331 -0.00182983
C -2.31758569 15.36970567 9.30088450 0.00062320 -0.01010558 0.00959723
C -0.38557529 10.82116584 8.71298710 -0.00127750 0.00095140 0.00994781
C 6.37819691 13.38898002 9.15828373 -0.00695226 0.00215039 -0.00082152
C 4.09722052 18.11988044 9.52867295 -0.00734127 -0.00125539 0.00470051
C -3.06453411 13.29166970 17.26581964 0.00728230 -0.00021336 -0.00377041
C -5.77797662 18.01777777 13.07047710 0.00087645 -0.00789378 -0.00489395
C 0.66330459 15.41099838 13.15941493 0.00322837 -0.00231642 0.00733227
C 3.69482852 10.72450414 17.47618919 0.00234400 0.00760550 0.00442981
C -1.81617201 13.13408989 16.55924888 0.00614363 -0.00134951 0.00181524
C 5.92412211 18.12424341 13.70408611 0.00148642 0.00632921 0.00044968
C -0.64097959 15.45061907 13.61153157 -0.00343182 0.00260937 0.00062446
C 30.66308221 10.82574960 16.63047657 0.00638140 -0.00392865 -0.00618932
C -0.92077192 12.14889812 16.92532602 0.00654180 -0.00000423 -0.00630347
C 4.99325665 17.16451097 13.35569436 -0.00141961 -0.00158296 -0.00245388
C -1.62281528 16.31987508 13.18843332 -0.00464213 -0.00774731 0.00084077
C -7.58940230 11.70319206 16.93191241 -0.00194765 -0.00088476 0.00353913
C -1.13018034 11.37286592 18.09720920 0.00515351 -0.01020244 0.00753938
C 5.25655930 16.23606537 12.31069035 0.00392753 -0.00759780 -0.00198724
C -1.37600774 17.16394554 12.11277147 0.00745064 0.00589553 -0.00438475
C -7.74142685 12.51996661 18.08100054 -0.00077952 0.00290935 0.00008073
C 0.88733778 11.50955790 12.89799480 0.00171554 -0.00594866 -0.00246394
C 3.55801473 16.42818932 17.58010435 0.00381345 0.00320370 -0.00279687
C -2.86564133 17.19003789 17.57921438 0.00187039 0.00439527 -0.00588055
C -5.87137201 12.59138503 12.48085967 -0.00269721 0.00564413 0.00187873
C -0.14088282 12.33191562 12.46540857 0.00120517 0.00130002 0.00088683
C -8.49286508 17.19458094 18.02853863 0.00131075 -0.00020471 -0.00787711
C -1.85083572 16.27587790 17.91167633 0.00646318 -0.00463604 0.00094339
C 6.49577325 11.43933118 12.41092365 0.00499036 0.00447838 -0.00472523
C -4.10954765 14.55274438 15.51924631 -0.00056938 -0.00112979 -0.00193100
C -4.67484190 10.06668734 14.60031274 -0.00526669 -0.00021354 0.00453206
C 1.91728858 14.23289557 14.92697046 0.00406629 -0.00879796 -0.00411308
C 2.47027356 18.67770907 15.73438949 -0.00413892 0.00676281 0.00494580
C -5.30721514 15.46133239 15.20031576 -0.00844997 0.00169996 -0.00580288
C -3.64246733 11.07891925 14.76856731 -0.00130681 0.00652284 -0.00241688
C 3.15642991 13.62089751 15.37677790 0.00547223 -0.00050730 -0.00282553
C 1.26289255 17.73324564 15.44782233 -0.00900172 0.00427853 0.00617813
C -5.98024063 13.43470063 23.23596048 -0.00093834 -0.00325593 0.00625905
C -8.59988551 18.08374234 19.11694975 0.01082228 0.00451898 0.00436529
C -2.01712826 15.43318168 19.04516397 -0.00572160 -0.00184138 -0.00329305
C 0.97576420 10.84223878 23.46032818 0.00278195 -0.00474430 0.00692305
C -4.76927965 13.34215812 22.59753418 0.00077787 0.00753939 0.00296818
C 3.11425730 17.95487981 19.76138144 0.00152157 -0.00124054 -0.00380594
C -3.26327619 15.51647397 19.74069602 0.00308962 0.00194416 0.00235630
C 27.98715705 11.16166255 22.63590871 -0.00214560 -0.00077363 0.00049081
C -3.73204364 12.55918452 23.07202030 -0.00200733 -0.00153386 -0.00800796
C 2.20458984 17.03426886 19.45417443 0.00397572 0.00577376 -0.00202810
C -4.21545416 16.42232480 19.33694772 0.01169135 0.00134851 -0.00843033
C -10.36754496 12.20825498 22.90319235 0.00579379 0.00412840 0.00552666
C -3.85750123 11.84851693 24.27351080 -0.00126486 0.00838075 0.00690858
C 2.47630435 16.07611431 18.34634442 0.00063414 0.00430742 0.00112253
C -4.07677796 17.23267808 18.24365258 -0.00230034 0.00393974 0.00163843
C -10.42877748 12.95334619 24.11743108 -0.00796769 -0.00149943 -0.00114789
C -2.11628203 11.80448594 18.98800009 -0.00300117 0.00089190 -0.00421155
C 0.53593100 16.47830502 23.62335385 0.00841804 0.00200106 -0.00171734
C -6.01361598 17.38330840 23.54072376 -0.00290979 -0.00703738 0.00079092
C -8.97750422 12.51278746 18.73947069 -0.00190722 -0.00551987 0.00062529
C -3.16162143 12.59182712 18.49420669 0.00429767 -0.00288546 0.00087790
C -11.21046796 17.25205481 24.21904282 0.00365744 -0.00059963 -0.00761864
C -4.98880376 16.51990069 23.97521210 -0.00660038 0.00050082 0.00109308
C 3.48591661 11.59097794 18.61051271 0.00699384 0.00330486 -0.00078904
C -7.20018757 14.66608284 21.58265561 -0.00275822 -0.00140685 0.00191600
C -7.84922859 10.21624026 20.74551119 -0.01480702 -0.00386735 0.00614955
C -0.84476566 14.15195175 20.74096410 0.00328043 -0.00338726 0.01047665
C -0.88133321 18.90869429 21.90875160 -0.00275579 -0.00608204 0.00335211
C -8.28141153 15.66043695 21.29836830 0.00560094 -0.00066486 0.00243445
C -6.62679592 11.15456671 20.97601776 -0.00066471 0.00241029 0.00479293
C 0.35224819 13.19816194 21.01662239 0.00187714 0.00013968 0.00308697
C -2.05417470 17.95205145 21.75338934 -0.00087611 -0.01105097 -0.00355165
C 3.09008118 22.96767316 5.12890752 0.00519056 -0.00086636 0.00066757
C 0.27850892 27.76310966 0.80805897 -0.00341572 0.00379700 0.00002013
C 6.95153043 25.13452777 1.01317146 -0.00491424 0.00238409 -0.00207617
C 9.67559945 20.26243886 5.10481054 0.00469037 0.00309772 0.00161235
C 4.31662611 22.78019702 4.43507410 0.00093945 0.00363439 0.00084429
C 12.21587676 27.78994762 1.67044254 0.00356542 -0.00282692 -0.00726287
C 5.72521428 25.05747748 1.62803906 0.00241236 -0.00532085 0.00221120
C 36.92716579 20.29918285 4.51765009 -0.00741819 0.00044782 -0.00307656
C 5.28922687 21.89133461 4.85796958 0.00418942 0.00347128 0.00057862
C 11.35561228 26.78681755 1.33600644 0.00394774 -0.00518347 0.00417395
C 4.63724179 25.78660090 1.13750988 -0.00096196 0.00258203 -0.01172694
C -1.23407512 21.16277491 4.89370949 -0.00148716 -0.00001301 0.00087159
C 5.15584310 21.10510578 6.05440832 0.00438432 -0.00301482 -0.00609704
C 11.55050799 26.00643818 0.13649666 0.00088249 0.00925401 -0.00114163
C 4.73973484 26.60238508 0.03754791 -0.00230269 0.00286361 -0.00572047
C -1.39876472 22.02142946 6.02895553 0.00455000 0.00079726 -0.00223334
C 7.06387892 21.31600841 0.62329805 -0.00143630 0.00569547 -0.00510118
C 9.69685557 26.27416222 5.25723734 -0.00606266 -0.00137994 -0.00792268
C 3.11511306 26.74699337 5.36332965 0.00652663 -0.00489909 0.00202305
C 0.27084438 21.89830890 0.57885809 -0.00338933 -0.00009059 0.00122311
C 6.07428627 22.15930681 0.15097050 -0.00088934 0.00602808 -0.00370448
C -2.56198882 26.65091879 5.99376796 -0.00567169 -0.00066191 -0.00047575
C 4.10864638 25.81927252 5.68582602 -0.00194682 -0.00263526 -0.00279903
C 12.29945988 21.05903628 0.25812546 0.00027837 -0.00197120 0.00408714
C 1.80662562 24.12381526 3.51807691 0.00073449 0.00280675 -0.01099986
C 1.70125841 19.50296650 2.56296389 -0.00058423 -0.00299688 0.00218632
C 8.12287026 23.67475313 2.61732063 -0.00732931 -0.00173272 0.00539788
C 8.58587936 28.82146307 3.56581814 -0.00487290 0.00157783 0.00237269
C 0.62008155 24.94439506 3.21452552 0.00365736 0.00001159 0.00237433
C 2.92882647 20.38890664 2.75221130 0.00246676 -0.00335748 0.00473157
C 9.38163062 22.98677134 2.84802304 0.00088985 -0.00476047 -0.00194513
C 7.30528683 27.98816715 3.54336263 -0.00063598 0.00279149 -0.00245561
C 0.00540949 23.06957676 11.26599851 -0.00503236 0.00372517 -0.00159372
C -2.67485449 27.64087992 7.04494368 0.00589551 0.00210366 0.00837088
C 4.05003049 25.06732232 6.91816724 -0.00686939 -0.00035961 -0.00037683
C 6.70572653 20.37162041 11.10819969 0.00347972 -0.00006758 -0.00538060
C 1.17124297 22.93065903 10.55171290 0.00743609 0.00006032 -0.00369123
C 9.39711111 27.67555689 7.64253940 -0.00243828 0.00182904 0.00213574
C 2.83328822 25.09753297 7.59923913 0.00113472 -0.00897837 0.00187910
C 33.80356556 20.63911588 10.64450437 -0.00312044 -0.00274245 -0.00096443
C 2.20934254 22.09178023 11.04756320 0.00453789 0.00411612 -0.00000232
C 8.34714023 26.86730903 7.14820346 -0.00054981 0.00196790 -0.00405645
C 1.81251897 25.97410419 7.28115204 0.00337552 0.00181877 0.00609971
C -4.38780283 21.51402271 11.12367867 -0.00641195 0.00095476 0.00345961
C 1.99142975 21.18525490 12.05431465 0.00321490 0.00128454 0.00336665
C 8.44564734 26.16581022 5.96146805 0.00232387 -0.00386380 -0.00166929
C 1.92464894 26.86747595 6.15282318 0.00335106 0.00126434 0.00703119
C -4.54605336 22.35852391 12.20778124 0.00041438 0.00615940 0.00432883
C 3.97195867 21.33555830 6.77549607 -0.00256128 0.00357105 0.00101065
C 6.81400782 26.14393208 11.44867676 0.00085947 0.00623786 0.00207668
C 0.23791443 26.86431755 11.48816157 0.01139722 -0.00190227 0.00916225
C -2.65343093 21.96935274 6.76795770 -0.00319794 0.00052059 -0.00361330
C 3.04375042 22.22506386 6.31822699 -0.00056681 0.00272598 0.00109942
C -5.42035823 27.01119739 12.15934878 -0.00176144 -0.00118990 0.01057764
C 1.16385596 25.96427013 11.94431122 -0.00364605 -0.00074645 -0.00313094
C 9.44477249 21.04156146 6.24616211 -0.00098179 0.00687774 -0.00447567
C -1.13920427 24.41432604 9.61269711 0.00158549 -0.00225365 -0.00272983
C -1.42428038 19.54037764 8.59117717 -0.00569883 -0.00321174 -0.00154425
C 5.21912427 23.56014596 8.45529395 -0.00233720 -0.00096484 -0.00135963
C 5.66237511 28.70108619 9.35881162 -0.00407771 0.00641810 -0.00044539
C -2.35411109 25.28587629 9.35385579 0.00813134 -0.00722710 -0.00506581
C -0.08476750 20.13875068 8.83747959 0.00624791 0.00034036 0.00284258
C 6.38137810 22.61620449 8.62052308 0.00191559 0.00253369 -0.00495272
C 4.33983415 27.98634863 9.10356644 0.00332530 0.00426442 -0.00108557
C -2.88707666 22.76355335 17.20479225 0.00001546 -0.00671944 0.00254768
C -5.67740666 27.91594120 13.18082397 -0.00177004 -0.00360921 -0.00044729
C 0.94742853 25.05603472 13.00822190 0.00139106 -0.00318589 -0.00749666
C 3.45489554 20.38156439 17.24734731 0.00218999 0.00366122 -0.00290412
C -1.64235079 22.70623469 16.53232975 0.00577898 0.01012428 -0.00396551
C 6.19337826 27.53276815 13.83015509 0.01024480 0.00224962 0.00277772
C -0.24607122 25.14830248 13.71459935 0.00144189 -0.00788611 -0.00152255
C 30.92734674 20.41804840 16.63337827 -0.00288992 0.00328899 0.00370678
C -0.65988650 21.77001764 16.93775177 0.00131231 -0.00002903 0.00173163
C 5.36588588 26.51393185 13.41690701 0.00695129 -0.00085155 0.00324704
C -1.14183629 26.10727646 13.31907559 -0.00629342 -0.00362912 -0.00079558
C -7.30081796 21.30107191 17.02497453 -0.01209278 0.00397766 -0.00320063
C -0.81687620 21.08833843 18.14900518 0.00218030 0.00026754 -0.00055373
C 5.62130307 25.85117060 12.18811895 0.00634556 -0.00146558 -0.00096366
C -0.98292650 26.90033891 12.18763099 0.00374282 0.00765762 0.00379364
C -7.53106063 22.15326622 18.11149153 0.00276486 -0.00253827 0.01077249
C 0.72000692 21.24491742 12.75749720 -0.00090734 0.00694791 0.00216063
C 3.43890189 25.97963137 17.62188129 -0.00061726 0.00602466 -0.00103392
C -2.75575679 26.83064826 17.54526896 0.00729988 -0.00403242 -0.00112557
C -5.75527159 22.20884315 12.87952178 -0.00535729 0.00038517 0.00394203
C -0.24092269 22.16763633 12.36068396 -0.00261200 -0.00492207 -0.00550027
C -8.01762216 27.04389156 18.13265502 -0.01000303 0.00620319 0.00058178
C -1.87670544 25.83318455 17.94916912 -0.00422316 -0.00280400 -0.00221215
C 6.49349997 21.28628814 12.15007507 0.00284160 -0.00032809 0.00084435
C -4.00693234 24.40622619 15.75875796 0.00248132 -0.00485264 0.00012782
C -4.65318648 19.41878798 14.65599967 0.00003436 0.00133376 0.00672189
C 2.21474388 23.57042389 14.50304743 -0.00134479 -0.00757067 0.00583543
C 2.42412232 28.50426004 15.51841793 -0.00424358 0.00432837 -0.00714023
C -5.21506315 25.27795814 15.67053495 0.00047997 -0.00564613 0.00033789
C -3.36220921 20.11177806 14.88964579 0.00783898 -0.00144777 -0.00188568
C 3.40044672 22.62646317 14.42273662 0.00209577 0.00249661 -0.00734968
C 1.29025720 27.53605183 15.25539649 0.00519516 -0.00353231 0.00607470
C -5.71468642 22.94731719 23.42025142 -0.00282774 0.00194872 -0.00238643
C -8.18109450 27.83138269 19.28936647 0.00400928 0.00749249 -0.00902689
C -2.18052562 25.12611418 19.10655998 0.00111382 0.00103804 0.00190348
C 0.44600513 20.22438778 23.47410308 -0.00868847 -0.00149667 0.00346180
C -4.43207724 22.92681599 22.76770996 0.00297926 0.00596281 -0.00605412
C 3.08387002 27.46003011 19.92670774 0.00047250 -0.00243684 -0.01091163
C -3.46080272 25.22524816 19.69677279 0.00042853 -0.00560010 0.00499664
C 27.82162982 20.35932208 22.67011826 0.00206484 -0.00151474 -0.00219540
C -3.50602297 22.00388303 23.18644034 -0.00394044 -0.00030704 0.00122509
C 2.12872458 26.64858776 19.47060971 -0.00603863 -0.00179529 -0.00081986
C -4.34223891 26.19278944 19.29281717 -0.00829892 0.00412812 0.00296914
C -10.44548179 21.33039630 23.02669747 -0.00411215 0.00527723 -0.00027485
C -3.68052773 21.19501301 24.31773021 0.00397365 -0.00175590 -0.00066057
C 2.22245110 25.93880938 18.24637340 -0.00279880 0.00252934 0.00024805
C -4.06662766 26.99174307 18.17994723 0.00090491 -0.00045254 -0.00371839
C -10.55923577 22.12902557 24.17378413 0.00618892 -0.00267734 0.00479477
C -2.06488649 21.09545242 18.79507267 0.00161322 -0.00260260 0.00149366
C 0.71145687 26.18078474 23.75608279 0.00401042 -0.00054042 -0.00185908
C -5.99131346 26.67676695 23.73322112 0.00284202 0.00189453 -0.00298684
C -8.78583670 22.12835204 18.74964636 -0.00119688 0.00274819 0.00231559
C -3.04463907 21.91880819 18.32359871 0.00912958 0.00563233 0.00297065
C -11.61599150 26.96719360 23.94778073 -0.00275140 -0.00382625 0.00302409
C -4.92954288 26.03963219 24.31913793 0.00021782 0.00186967 0.00331373
C 3.24476797 21.28726924 18.26532863 -0.00259028 -0.00177130 0.00086500
C -7.02437242 24.14987990 21.75110910 -0.00417845 -0.00656449 -0.00000292
C -7.42073038 19.57497273 20.52275705 -0.00239131 -0.00587889 0.00139044
C -1.02528263 23.75579700 20.87447098 0.00835075 -0.00931682 0.00348810
C -0.54655318 28.81167945 21.62025421 -0.00043801 0.00238456 0.00373513
C -8.17027640 25.14725483 21.55785769 -0.00982844 0.00400779 0.00018036
C -6.25792543 20.54704895 20.66367692 -0.00100334 0.00217896 0.00134118
C 0.28094082 23.04424229 20.97662967 -0.00732820 0.00319321 -0.00367258
C -1.77629583 27.91784916 21.53049085 -0.00448729 -0.00126833 -0.00221965
C 16.43675638 3.50403235 5.25744860 -0.00718165 -0.00117016 0.00256738
C 13.40503206 8.81214160 1.13278466 -0.00203138 -0.00122827 -0.00753195
C 19.88219518 5.88037198 1.00238843 0.00012096 -0.00281221 0.00170436
C 22.87229950 0.90038328 5.07089398 0.00115885 -0.00078690 0.00088883
C 17.70865532 3.54740665 4.56722068 -0.00553287 0.00907045 0.00169623
C 25.37818222 8.44777804 1.82594677 0.00382318 -0.00062938 0.00380355
C 18.65205071 5.75186569 1.61213938 -0.00046706 -0.00672327 -0.00416438
C 11.02538934 1.41794717 4.47193444 -0.00884870 0.00334325 0.00838854
C 18.63027621 2.57006393 4.89105882 -0.00045317 0.00419374 -0.00162832
C 24.46043931 7.47778792 1.46211628 0.00612492 -0.00121730 0.00605965
C 17.62982466 6.65650376 1.26113199 -0.00247837 0.00789979 -0.00222420
C 11.97937699 2.34582667 4.83317151 0.00609513 -0.00571544 -0.00126417
C 18.52002263 1.77641691 6.11045550 -0.00258214 -0.00148346 0.00286670
C 24.64471052 6.58732056 0.41717979 0.00075966 0.00135030 -0.00435577
C 17.83257356 7.60038607 0.25674450 -0.00436426 -0.00197214 -0.00483603
C 11.85157856 3.12743096 6.02021722 0.01051645 0.00168373 0.00533937
C 19.94320386 2.14510899 0.50600605 0.00387828 0.00504434 -0.00135367
C 22.63136742 6.91129343 5.47759069 0.00022468 0.00283118 0.00337922
C 16.11743470 7.55393927 5.51325957 -0.00062869 0.00532782 -0.00041917
C 13.64992377 2.83968380 0.48331271 -0.00282753 -0.00120398 0.00673005
C 18.92636866 2.97751084 0.07802948 -0.00487015 -0.00095156 0.00230560
C 10.52898218 7.99297241 5.87708697 0.00266939 -0.00366617 0.00470756
C 17.16558097 6.75655980 5.99239604 -0.00586975 0.00654990 0.00079848
C 25.62611812 1.96952187 0.00249583 0.00128329 0.00353758 0.00513568
C 15.21196175 4.88902989 3.60027239 -0.00140332 0.00375931 0.00143430
C 14.57568714 0.39415858 2.64119669 -0.00462088 -0.00106309 0.00299768
C 21.18633176 4.45216763 2.55701465 0.00248658 -0.01084147 -0.00307816
C 21.26136207 9.15934738 3.50673279 0.00576614 -0.00831836 -0.00393773
C 14.06765917 5.90702413 3.53438744 0.00720102 -0.00125167 -0.00062835
C 15.78189516 1.27099624 2.86657026 0.00651993 -0.00373389 0.00677538
C 22.45460448 3.71254987 2.85324880 0.00022698 0.00731947 -0.00260845