2880
Time=71000.00000007 pbc="T T T" Lattice="39.23457816 0.00000000 0.00000000 0.00000000 28.82107038 0.00000000 -12.01987899 0.00000000 24.36876927" energy=-18397.39959610 virial="38.52550618 3.78483493 -44.02500810 3.78483493 -13.72218001 10.01530259 -44.02500810 10.01530259 6.64043855" stress="0.00397296 0.00021848 -0.00163048 0.00021848 0.00197785 0.00029654 -0.00163048 0.00029654 0.00284185" Properties=species:S:1:pos:R:3:vel:R:3
C 3.26041657 3.65777526 5.16186962 0.00424869 -0.00445737 0.00740293
C 0.36329437 8.53184814 0.89812201 -0.00762140 -0.00568961 -0.00169520
C 6.83431690 6.01013068 1.03692088 -0.00663834 -0.00234205 -0.00083632
C 9.92900092 1.12798611 4.90811404 -0.00713452 -0.00153508 0.00376076
C 4.39210418 3.38209892 4.37264576 0.00127700 0.00223379 -0.00434517
C 12.22544217 8.17312024 1.72762551 -0.00181873 0.00481920 -0.00051800
C 5.56759731 6.01381384 1.63803633 0.00383652 0.00124193 -0.00253078
C -1.89684101 1.17193639 4.74717817 0.00152349 -0.00473381 -0.00722465
C 5.43174306 2.60553958 4.83909075 -0.01201984 -0.00235183 0.00059769
C 11.17590061 7.44077340 1.21449011 0.00191316 -0.00351951 -0.00535339
C 4.58388650 6.84197556 1.15004581 0.00286207 -0.00052523 -0.00317037
C -1.01863605 2.12961577 5.13287186 0.00103356 -0.00675756 -0.00547762
C 5.41138950 2.05810640 6.16046797 -0.00331139 -0.00634164 0.00438083
C 11.41469941 6.64799217 0.09365966 -0.00676066 0.00504704 -0.00599928
C 4.83042043 7.76134321 0.07673570 -0.00514381 -0.00384862 -0.00215908
C -1.34891863 2.99950509 6.17904933 -0.00123507 -0.00374089 -0.00019620
C 6.87183482 2.16191345 0.44703998 -0.00279410 -0.00298875 0.00702567
C 9.63199164 6.87192700 5.59483743 0.00759706 -0.00776103 -0.00121798
C 3.15445495 7.76108887 5.69013379 -0.00073453 -0.00466909 0.00430414
C 0.39365234 2.64518240 0.45153778 0.00276558 0.00026263 -0.01158296
C 5.89887774 3.10816140 0.06839896 0.01176376 0.00002967 0.00212546
C -2.59809759 7.66329639 5.88745809 0.00001005 0.00660100 -0.00966230
C 4.10029154 6.91477138 6.16266577 -0.00247336 -0.00135779 -0.00724222
C 12.47893972 1.79240629 0.19398696 0.00858475 -0.00676016 -0.00215963
C 2.10932303 4.99681558 3.52321747 0.00227900 0.00125763 -0.00815001
C 1.56310192 0.16807342 2.58666962 0.00059438 0.00562680 0.00820008
C 8.05212338 4.65251759 2.68998765 -0.00150288 0.00472117 0.00224564
C 8.31675160 9.26851063 3.62057118 0.00028147 -0.00073807 0.00669179
C 1.16821636 6.15805828 3.28825420 0.00403837 -0.00045334 0.00039587
C 2.62014268 1.25759251 2.81889998 -0.00209981 -0.00306083 -0.00503471
C 8.99060402 3.45032734 2.88181065 0.00744176 -0.00217251 -0.00038296
C 6.91546309 8.63386422 3.60531039 -0.00192180 -0.00555349 -0.00538760
C 0.06854814 3.67809552 11.14520884 -0.00243069 -0.00233115 -0.00156373
C -2.79016533 8.45286938 7.00309574 -0.00198793 0.00110178 0.00159733
C 3.83403747 6.06844594 7.29500408 0.00129175 -0.00121113 0.00079402
C 6.60348788 1.11197612 11.01780008 -0.00184346 0.00159796 -0.00683332
C 1.29361201 3.77860420 10.54211991 0.00533804 -0.00238107 0.00099066
C 9.29366418 8.56479303 7.71491477 -0.00316044 -0.00452713 -0.00200010
C 2.72294023 6.31159706 8.09443119 -0.00366103 0.00312753 -0.00277009
C 34.00369622 1.19163740 10.40330754 0.00165889 -0.00634480 0.00006430
C 2.27008136 2.82313062 10.80629723 -0.00113321 -0.00116415 -0.00556905
C 8.24932511 7.74995955 7.33709043 0.00421732 0.00139742 -0.00064719
C 1.75280654 7.16335855 7.58223501 0.00711171 0.00161543 0.00188462
C -4.27834791 2.12946081 10.83313443 -0.00022944 0.00165982 -0.00168273
C 2.07642245 1.80847941 11.75222276 -0.00159622 -0.00031932 0.00389785
C 8.42888558 6.75338337 6.36194303 -0.00161814 0.00107399 -0.00253559
C 1.89161830 7.86010285 6.39259069 0.00151503 -0.00198057 -0.00188510
C -4.45689941 2.83152137 12.08437391 0.00253556 -0.00504948 0.00442268
C 4.17424392 2.10113549 6.81939268 0.00400329 0.00373783 0.00348075
C 6.45249077 6.93007773 11.80830983 -0.00191063 -0.00027961 -0.00924898
C 0.02613397 7.53864942 11.56906558 -0.00419744 0.00285129 0.00390493
C -2.65475967 3.02080607 6.63844171 -0.00265837 0.00253585 -0.01159932
C 3.11802749 2.83145950 6.33787341 -0.00077435 0.00328946 -0.00118415
C -5.51664126 7.76346505 11.80956624 0.00184192 -0.00141866 -0.00779683
C 0.96288142 6.70847070 12.08903445 -0.00644524 0.00886110 -0.00220647
C 9.71633472 1.96045362 6.02605959 -0.00173945 -0.00020937 0.00113462
C -1.19255055 5.27232691 9.75951728 0.00379001 -0.00326733 -0.00047664
C -1.27940229 0.36697812 8.71653935 -0.00793413 -0.00133719 0.00511287
C 5.16256387 4.71002939 8.83347000 0.00846053 -0.00390697 -0.00789093
C 5.37184504 9.34173506 9.83165560 -0.00077084 -0.00594364 0.00190157
C -2.49232903 5.96901686 9.64758274 -0.00425631 -0.00120629 0.00148221
C -0.14228611 1.30498964 8.87786168 0.00764838 0.00317642 0.00075906
C 6.48134777 4.05172432 9.05082459 0.00610561 0.00037463 -0.00080634
C 4.19552330 8.47263590 9.68131600 -0.00104349 0.00524954 -0.00037878
C -3.04819322 3.60658577 17.50388258 -0.00025496 -0.00040217 -0.00277411
C -5.67746938 8.46477294 13.05465399 -0.00525456 0.00348128 0.00070186
C 0.68781508 5.88883439 13.15892529 -0.00829448 -0.00439138 0.00340673
C 3.54719367 1.14702782 17.07803815 0.00274725 0.00343729 -0.00104786
C -1.82264185 3.61865275 16.83680858 0.00282613 -0.00707852 -0.00009247
C 6.12279506 8.58169115 14.03543351 0.00091691 0.00255444 -0.00383041
C -0.54883072 5.93023621 13.76037437 0.00110669 0.00249426 -0.00336481
C 30.87741191 1.08479605 16.48161508 -0.00844454 -0.00327188 0.00575563
C -0.85188214 2.68914633 17.16662484 0.00469189 0.01370380 -0.00582257
C 5.10178994 7.72476479 13.64608089 -0.00221963 0.00279245 0.00265721
C -1.53598404 6.78885332 13.27784990 -0.00139978 0.00417901 0.00224325
C -7.48977466 2.12175067 16.91773638 -0.00189341 -0.01351743 -0.00668507
C -1.09827123 1.81257267 18.32756169 -0.00369472 -0.00221680 -0.00084193
C 5.20989926 6.91551586 12.47967991 -0.00643837 -0.00438594 -0.00585597
C -1.21301598 7.64519207 12.23501037 -0.00306834 -0.00381601 -0.00035191
C -7.70667191 2.94263693 18.00421387 0.00071522 0.00565040 -0.00156287
C 0.96199435 1.87417960 12.57245100 0.00240119 0.00497886 0.00062400
C 3.40378463 6.67641588 17.74052819 0.00130053 -0.00217334 -0.00022659
C -2.83251863 7.63049431 17.82752083 -0.00518769 0.00371517 0.00610909
C -5.74522776 2.77479962 12.72911485 0.00272450 0.00826846 0.00432824
C -0.08968570 2.70517942 12.18432489 -0.00114427 -0.00681623 0.00151329
C -8.54324799 7.48892043 18.08481679 -0.01044407 -0.00198840 -0.00307811
C -1.90421407 6.72878032 18.23716961 -0.00340930 0.00922093 0.00431808
C 6.47159872 2.10314591 12.04821042 0.00184532 0.00224118 -0.00491697
C -4.23885835 4.89846218 15.86297696 0.00125289 0.00247582 -0.00543529
C -4.67601327 0.27813238 14.86827364 -0.00054489 0.00574107 0.00558942
C 1.97592985 4.65837406 14.89083040 -0.00738453 -0.00511571 0.00429604
C 2.43970120 9.41031041 15.58221875 -0.00446308 0.00318886 -0.00326459
C -5.36313663 5.89496550 15.60216488 0.00082399 0.00282259 0.00028975
C -3.60549240 1.29969590 15.09559691 0.00597964 -0.00170093 0.00403791
C 3.19958090 3.85909156 14.97356054 -0.00703487 -0.00050880 -0.00884171
C 1.12574050 8.77461947 15.35754190 -0.00220674 -0.00027603 -0.00359962
C -5.87828571 3.92520301 23.30173488 -0.00583234 0.00095449 0.00390943
C -8.74985984 8.36857046 19.17537547 -0.00218712 0.00674993 -0.00092058
C -2.16951726 5.85539007 19.30450356 -0.00121973 0.00389350 -0.00121957
C 0.62828819 0.95933731 23.42208731 -0.00435718 -0.00482315 -0.00005906
C -4.66351167 3.88578203 22.60955423 -0.00272932 -0.00191074 -0.00201266
C 3.19512522 8.41223956 19.97858339 0.00137041 -0.00172105 -0.00761618
C -3.41398040 5.86914385 19.83661971 0.00014019 0.00276356 -0.00126630
C 27.87293251 1.21785901 22.45410348 -0.00443976 -0.00293641 0.00034561
C -3.75814161 2.93983818 22.99468399 0.01159637 -0.00613164 0.00113467
C 2.24177417 7.44355514 19.73547132 0.00443774 -0.00422492 0.00662047
C -4.39243578 6.75899932 19.41183774 0.00035604 0.00004893 0.01024802
C -10.27289742 1.91956710 22.95081712 -0.00166539 -0.00301089 -0.00110891
C -4.02307542 2.00830621 24.01682703 0.00185344 -0.00183575 -0.00024457
C 2.28951061 6.63286171 18.59521164 -0.00182333 -0.00265455 -0.00231313
C -4.13677422 7.59890131 18.34301824 -0.00418133 0.00070392 -0.00744514
C -10.40011074 2.68079827 24.08963235 -0.00512034 0.00059072 0.00151275
C -2.30648277 1.94424535 19.06285293 -0.00393519 0.00178580 0.00587845
C 0.59374737 6.75316007 23.72169485 -0.00001526 -0.00726108 0.00016160
C -5.87905542 7.83053887 23.91845247 0.00694598 -0.00084479 0.00310071
C -8.90688338 2.72688813 18.69880101 0.00310572 0.00691218 -0.00233815
C -3.26811320 2.89875593 18.64290458 -0.00323759 -0.00080585 0.00207262
C -11.48454440 7.72806679 24.18683845 0.00127280 -0.00062832 -0.00104001
C 7.11528831 6.93326651 0.04406519 0.00099605 0.00109663 -0.00166196
C 3.37330897 2.08554735 18.11819439 -0.00288440 -0.00110183 0.00935355
C -7.15451069 5.23992870 21.74313640 -0.00705530 0.00307756 0.00024887
C -7.24298836 0.00110559 20.73471029 -0.00221346 0.00718000 0.00794180
C -1.07492217 4.48249994 21.04414684 0.00380491 -0.00025603 0.00372535
C -0.72208061 9.15536817 21.91972370 -0.00032021 -0.00422926 -0.00490157
C -8.57515493 5.82295143 21.66157689 -0.00959850 0.00382349 0.00831884
C -5.99004241 0.89136411 20.62648943 -0.00123452 -0.00393356 -0.00249166
C 0.08077053 3.58418196 21.39794425 0.00221278 0.00356148 0.00218363
C -2.01492945 8.46909192 21.65223119 -0.00682677 0.00570574 0.00376987
C 3.43062443 13.28624792 5.29796519 -0.00157395 -0.00096722 -0.00148163
C 0.73489418 18.00927008 1.26529912 0.00282429 -0.00123845 0.00181437
C 7.07738677 15.47841856 1.14595992 -0.00617002 -0.00106438 -0.00129693
C 9.62728154 10.68246472 5.07552770 0.00584665 0.00973481 -0.00085628
C 4.59783015 13.14234965 4.57664901 0.00219682 0.00442682 -0.00335981
C 12.62275374 17.73271116 1.77876714 -0.00109481 0.00069409 0.00304450
C 5.78471470 15.58553606 1.72409088 -0.00025148 0.00520929 0.00026714
C 37.00882753 10.66824354 4.31317037 0.00088373 -0.00002558 -0.00887872
C 5.51800604 12.13594321 4.91419792 0.00260705 0.00143966 0.00056452
C 11.60897235 16.82060020 1.46136949 -0.00124410 -0.00077979 0.00208022
C 4.87476012 16.47020275 1.29032188 -0.00447119 -0.00175663 -0.00387225
C -1.15682552 11.54469814 4.66769232 0.00057751 0.00356306 -0.00307882
C 5.27656243 11.30031306 6.02040444 0.00206423 -0.00407605 -0.00464281
C 11.72904988 16.08861193 0.25520567 -0.00073191 -0.00581014 -0.00574541
C 5.15130604 17.33546829 0.21008872 -0.00069716 0.00024447 0.00522701
C -1.21277963 12.31348720 5.86049633 -0.00031105 0.00867174 0.00460496
C 6.67847947 11.52124301 0.54735285 -0.00292575 0.00151872 0.00498429
C 9.65802046 16.32615612 5.48853487 -0.00017057 0.00183168 -0.00314209
C 3.27333811 17.17993190 5.68823505 0.00421236 -0.00542306 -0.00238639
C 0.17025165 12.41415680 0.51677782 0.00066499 0.00193446 0.00528861
C 5.77731152 12.53264321 0.26207063 -0.00327102 -0.00806058 0.00313502
C -2.38849591 17.21659354 6.01741301 -0.00125195 -0.00325159 0.00145448
C 4.27521614 16.33407226 6.06838836 0.00467713 0.01571124 -0.00815472
C 12.60409943 11.19721001 0.24599112 0.00238875 -0.00273198 -0.01105724
C 2.24847793 14.65336490 3.74811099 -0.00674878 0.00197267 -0.00891915
C 1.62111575 9.86917878 2.47331986 0.00512488 -0.00012439 -0.00924196
C 8.23540880 13.90534216 2.54657791 -0.00570134 -0.00455235 0.00022568
C 8.48230231 18.95980972 3.60913692 -0.00121071 -0.00492887 0.00693586
C 1.05755302 15.48298299 3.65619025 0.00529933 0.00640375 0.00169287
C 2.79564544 10.77073693 2.70387799 0.00224297 -0.01152730 -0.00141825
C 9.63502780 13.21112839 2.58111336 0.00215455 -0.00423583 -0.00335100
C 7.27568554 18.16659431 3.34390025 -0.00413978 0.00097671 -0.00266862
C -0.03074766 13.49493819 11.33841365 0.00083601 -0.00311862 0.00111278
C -2.72289258 18.11302698 7.02003797 0.00001700 0.01179727 0.00265310
C 4.08687634 15.52443986 7.21811766 0.00426115 0.00376233 0.00035484
C 6.53755649 10.82742066 11.29996970 0.00130739 -0.00240715 0.00251610
C 1.17156477 13.32299227 10.58859649 0.00012700 -0.00209517 0.00126793
C 9.31077321 17.90158303 7.72972194 -0.00122156 -0.00382833 -0.00134547
C 2.88506646 15.60222796 7.92548693 0.00155018 0.01110585 -0.00180929
C 33.76943907 10.85721972 10.48920999 0.00241334 0.00282930 0.00470552
C 1.98983230 12.24445351 10.82103127 -0.00403474 0.00645886 0.00188660
C 8.30187847 17.07650155 7.34349432 -0.00262827 -0.00741612 -0.00556911
C 1.82581814 16.40470425 7.46730583 0.00450598 -0.00497876 -0.00065302
C -4.45595018 11.71610905 10.85989929 0.00416009 -0.00589468 -0.00334021
C 1.81886497 11.44416323 11.98519107 0.00429947 0.00070397 -0.00309077
C 8.46281929 16.30168399 6.17468477 -0.00431106 0.00091775 0.00394345
C 1.95873755 17.19993439 6.32949529 0.00307808 0.00635965 -0.00045820
C -4.66517644 12.49185674 12.01815932 -0.00640670 -0.00277873 0.00727354
C 4.03931652 11.48488400 6.71246381 0.00143516 0.00993907 0.00001199
C 6.59446723 16.55627565 11.57548013 -0.00324541 0.00122943 -0.00157675
C 0.22894903 17.30102787 11.76286742 0.00380005 0.00482690 0.00024582
C -2.40819698 12.34375549 6.55805443 -0.00512709 -0.00901879 -0.00173642
C 3.17745504 12.44146274 6.37298902 -0.00205511 -0.01362740 0.00291992
C -5.33969711 17.26578475 12.28586160 -0.00122555 0.00471862 -0.00580493
C 1.18150155 16.43115155 12.23348412 -0.00135877 -0.00011051 0.00517889
C 9.46109653 11.63687217 6.05785658 0.00616060 -0.00506108 -0.00373403
C -1.39299928 14.56960146 9.67376139 0.00698751 -0.00110197 -0.00586702
C -1.70761273 9.81923720 8.74226475 0.01048770 0.00657470 -0.00331379
C 5.09900775 14.07042053 8.82135532 0.00438052 -0.00274084 -0.00626440
C 5.42323250 18.92888085 9.73579335 0.00142421 0.00417566 -0.00525238
C -2.26429260 15.73245253 9.42508770 -0.00435230 -0.00901808 0.00653496
C -0.45686497 10.47092623 9.22989258 -0.00145474 -0.00346211 0.00636695
C 6.14850994 12.96452647 8.97258599 0.00285058 0.00446931 0.00211075
C 4.19118415 18.12173754 9.49860452 -0.00036380 -0.00652985 -0.00108659
C -2.72959891 13.41033932 17.49264592 -0.00431281 0.00096249 -0.00068918
C -5.63372513 18.00346904 13.38436405 -0.00413646 0.00120569 0.00114565
C 0.99714022 15.55835017 13.28043677 0.00195885 0.00594580 0.00149521
C 3.63622919 10.62676943 17.33800602 -0.00363163 -0.00013131 -0.00621981
C -1.49696469 13.22189468 16.82040976 -0.00438437 0.00108677 0.00704124
C 6.46972101 18.03188823 13.89585181 -0.00810703 0.00253808 -0.00300627
C -0.24301651 15.72624365 14.04002127 -0.00591334 -0.00002820 -0.00544788
C -8.06428010 10.64638621 16.66551121 -0.00713913 0.00298198 -0.00084392
C -0.52073631 12.43608137 17.35735847 0.00357897 -0.00118706 -0.00241109
C 5.38453750 17.30609022 13.50498871 -0.00486879 -0.00717511 -0.00234682
C -1.20177555 16.53752024 13.52545559 -0.00453512 -0.00247143 -0.00003604
C -7.09045794 11.41687120 17.21045052 0.00274158 -0.01246938 -0.00112292
C -0.81531738 11.52234571 18.39200171 -0.00589152 -0.00238069 0.00319479
C 5.40943046 16.42173915 12.36809697 0.00117674 -0.00404065 -0.00661525
C -1.04494263 17.34419000 12.35081500 0.00428961 -0.00374687 0.00065738
C -7.22495187 12.30094662 18.30699002 0.00399758 -0.00586340 -0.00194718
C 0.61863237 11.60387600 12.80535259 -0.00757968 -0.00502115 0.00269409
C 3.67849909 16.17107849 17.66997563 0.00234435 -0.00228092 0.00386593
C -2.50987141 17.11965629 17.89048944 0.00328835 0.00059318 -0.00318614
C -5.75247440 12.24297946 12.86938890 0.00546614 -0.00519052 0.00342537
C -0.24680935 12.61503389 12.39999875 0.00582502 0.00302575 -0.00190597
C -8.23709384 17.26241377 18.41233086 0.00538120 0.00177913 -0.00025265
C -1.59568485 16.15476941 18.25557644 0.00520732 0.00646155 -0.00294657
C 6.38118683 11.67606148 12.44189802 -0.00214662 0.00232947 -0.00456532
C -3.95852625 14.47423383 15.75511411 -0.00200524 0.01069309 -0.00342589
C -4.42789658 9.77430958 14.60055832 0.00230295 0.00098048 0.00452064
C 2.03473511 13.90308680 14.74903399 -0.00511383 0.00202187 0.00000915
C 2.59483352 18.91162286 15.68418820 0.00113492 -0.00714357 -0.00068461
C -5.21644818 15.21772682 15.54565881 -0.00329961 -0.00306129 -0.00136359
C -3.09097335 10.28741252 14.90544943 -0.01054609 0.00003158 -0.00247595
C 3.05020959 12.89334297 15.02333783 -0.00133788 0.00470257 -0.00576731
C 1.35868917 18.08641967 15.50067440 0.00339774 0.01188194 0.00326187
C -5.97870263 13.37815799 23.54290695 -0.00194095 -0.00356077 0.00244383
C -8.45818251 18.15351337 19.43594248 -0.00671619 -0.00018557 -0.00007346
C -1.77444191 15.45255633 19.43000549 -0.00338981 -0.00010819 0.00332981
C 0.68497255 10.40824159 23.49508809 -0.00122870 -0.00623258 -0.00422403
C -4.78989128 13.23792045 22.82014734 0.00118825 -0.00445012 -0.00426343
C 3.40995850 18.12975756 19.80727037 0.00704365 0.00767675 -0.01020459
C -3.01867731 15.55595646 20.05255683 -0.00206436 0.00979342 -0.00500749
C 27.80973677 10.75324702 22.77331158 -0.00396428 0.00063557 -0.00083734
C -3.84859113 12.29113701 23.24124749 0.00386076 0.00007707 0.00261419
C 2.48080924 17.12187320 19.50970319 0.00074121 -0.00801920 -0.00432630
C -3.99398737 16.41005779 19.64846142 0.00228916 -0.00525721 0.00299838
C -10.41394425 11.69744775 23.14921217 -0.00161672 0.00886467 0.00694154
C 7.96970087 11.46708392 0.01855981 -0.00020907 -0.00511736 -0.00181371
C 2.48707489 16.24441834 18.37584610 -0.00290208 -0.00396405 0.00002300
C -3.73692537 17.29668760 18.56111681 0.00082814 0.00148906 -0.00170631
C -10.61088293 12.48310285 24.28209748 -0.00119530 -0.00741051 0.00145218
C -2.03665588 11.58363995 19.00830406 -0.00158629 0.00353357 -0.00214868
C 0.87476277 16.08014150 23.87528940 -0.00176078 -0.00351795 -0.00387809
C -5.64692563 17.30492934 23.98664639 0.00724583 0.00131171 -0.00015982
C -8.49829803 12.38142062 18.90817436 -0.00018543 0.00370633 -0.00238238
C -2.94525848 12.57083309 18.59663688 0.00368346 -0.00678021 0.00956462
C 0.89873543 17.23930745 0.07620900 0.00486632 0.00669381 -0.00282575
C 7.41359164 16.43917744 0.17121694 -0.00104109 0.00290961 -0.00194827
C 3.43746639 11.38774646 18.47045141 -0.00288349 -0.00048728 -0.00710590
C -7.27182414 14.77560463 21.95377038 -0.00077714 0.00587465 0.00261153
C -7.67315874 9.89500026 20.72517687 0.00206178 -0.00518772 -0.00272812
C -0.78079181 13.88856700 21.06474059 0.00060359 -0.00351520 -0.00471934
C -0.58840192 18.91562605 22.13683295 -0.00350990 0.00117834 0.00467936
C -8.57707263 15.52526005 21.80368746 -0.00293358 0.00022576 0.00648722
C -6.36774561 10.71227825 20.97103891 0.00267422 0.00279105 -0.00182988
C 0.33298601 12.91927390 21.17614812 -0.00022265 -0.00203025 0.00522739
C -1.99236971 18.57439251 21.95617729 0.00251662 -0.00096886 -0.00149584
C 3.25485450 22.93498841 5.23184153 -0.00130046 0.00482049 0.00035121
C 0.30065169 27.69115551 0.94910626 0.00157069 -0.00245582 0.00466039
C 6.71776237 25.29881587 0.98991182 -0.00084019 0.00566713 -0.00474579
C 9.62802574 20.51066360 4.99524021 -0.00465112 -0.00258453 -0.00134132
C 4.51594345 22.99492936 4.62223023 -0.00479171 -0.00114829 0.00065966
C 12.35652616 27.28616954 1.60883710 -0.00425388 -0.00357284 -0.00412004
C 5.47438108 25.35361814 1.68477509 0.00476034 -0.00270688 -0.00163042
C -2.14374728 20.77258318 4.44820621 0.00359714 0.00023073 0.00026011
C 5.48617879 22.22562829 5.16325357 0.00412716 0.00304543 -0.00181223
C 11.31216220 26.48289636 1.27111937 -0.00412726 0.00295524 0.00632021
C 4.44188650 26.21668957 1.27595332 -0.00162411 -0.00149354 0.00239439
C -1.19630557 21.63299206 4.91741554 0.00037363 0.00181870 0.00277723
C 5.26988415 21.27717285 6.19824155 0.00200827 -0.00191249 0.00052094
C 11.30170682 25.79335076 0.03591661 -0.00023227 -0.00607923 0.00128048
C 4.70104731 27.10746928 0.20027620 -0.00404983 -0.00089468 -0.00642697
C -1.39294389 22.22011922 6.16394669 -0.00583427 0.00604058 0.00012953
C 7.14536250 21.31244718 0.78091837 -0.01068568 0.00028932 -0.00016939
C 9.68430250 26.00055779 5.41160634 -0.00248092 0.00459161 -0.00673744
C 3.18149352 26.98476691 5.68972172 -0.00066038 -0.00601534 -0.00779022
C 0.38804216 21.88608560 0.71656522 -0.00201364 0.00251228 -0.00851398
C 6.14158908 22.18699278 0.37672848 0.00365876 0.00088172 -0.00295606
C -2.31411139 26.91851076 6.02898227 -0.00934234 0.00208742 -0.00422145
C 4.15605573 26.07782161 6.08355913 -0.00099003 0.00332516 0.00270843
C 12.79583625 20.90749391 0.48584741 -0.00063074 -0.00780280 -0.00515421
C 1.83313210 24.31416461 3.79165143 0.00172727 0.00059374 -0.00012370
C 1.75675730 19.71213440 2.68608974 0.00099819 0.00348016 0.00431628
C 7.88544885 23.94884298 2.63644634 -0.00816743 0.00570660 0.00611967
C 8.63913690 28.48612642 3.37849767 0.00273794 0.00003524 -0.01163185
C 0.50908607 24.94131524 3.77779275 0.00989955 0.00079453 0.00354108
C 2.86413328 20.79498272 2.84728956 0.00816889 -0.00558389 0.00142748
C 9.16591943 23.19431858 2.82251346 -0.00064760 0.00487077 0.00458996
C 7.38941953 27.68681143 3.38558508 0.00349170 0.00409928 -0.00419755
C 0.08944608 22.81060089 11.24784613 0.00425576 -0.00426094 -0.00173400
C -2.46428886 27.78511347 7.11270148 0.00194019 -0.00887503 0.00713216
C 3.98501872 25.18867699 7.12725087 -0.00112710 -0.00226938 -0.00530866
C 6.55952104 20.36579728 11.24697752 0.00179394 0.00250628 0.00482424
C 1.23754537 22.82073383 10.45243095 -0.00027536 0.00524532 0.00014164
C 9.37397362 27.61396972 7.58323557 -0.00433580 -0.00042684 -0.00457149
C 2.71067584 25.26613338 7.74413370 0.00271181 -0.00076217 -0.00395957
C -5.27791816 20.22949489 10.78029279 0.00406212 -0.00389884 0.00182668
C 2.29167196 22.03190228 10.89366246 -0.00210803 -0.00604073 -0.00049349
C 8.38669487 26.77004262 7.20253306 -0.00080427 0.00265370 -0.00052634
C 1.72891055 26.12404821 7.35493777 -0.00929362 -0.00041996 -0.00033779
C -4.29576303 21.12929963 11.17906142 0.00005306 -0.00346554 0.00157171
C 2.21418899 21.17056614 11.99488108 0.00311461 0.00377950 -0.00450695
C 8.49836163 25.92170060 6.12333335 0.00116744 -0.00352550 -0.00551005
C 1.92118846 26.93707437 6.25621665 -0.00119197 0.00512864 -0.00355651
C -4.44997593 21.96181956 12.22740692 -0.00177146 -0.00267592 0.00071164
C 3.96705751 21.13708144 6.74779979 0.01169826 0.00628187 0.00301970
C 6.59538640 26.26751059 11.50757532 -0.00484335 -0.00836476 -0.00841870
C 0.05035111 26.82387242 11.61099937 0.00001012 -0.00273669 0.00249898
C -2.64376761 22.03330500 6.83480377 0.00197756 0.00520511 0.00327992
C 2.93225764 21.93426009 6.26010246 0.00132508 0.00753856 -0.00337427
C -5.41644610 26.74056356 12.24600209 0.00210679 -0.00617911 -0.00294765
C 1.02867680 25.93890509 11.94468941 0.01196717 0.00020935 -0.00825098
C 9.50707748 21.22143409 6.23106517 0.00841444 -0.00444233 0.00409740
C -1.26951302 24.33690347 9.74932209 0.00314805 0.00324240 0.00818290
C -1.47125876 19.41404878 8.61820988 -0.00238188 0.00488331 0.00873544
C 5.21564479 23.84211939 8.69812622 0.00544020 0.00533444 -0.00016217
C 5.43097874 28.45010644 9.49780185 0.00602842 0.00178170 -0.00180943
C -2.61411456 25.00821329 9.63499112 -0.00255941 -0.00051923 0.00120293
C -0.26332492 20.26721700 8.88795343 -0.00761087 -0.00273385 -0.00140049
C 6.37088426 22.97654699 9.02535917 0.01204860 -0.00175872 0.00320100
C 4.19196884 27.66359203 9.31399708 0.00059647 0.00160397 0.00074478
C -2.81646704 22.97087389 17.43680354 0.00463034 0.00084921 0.00824692
C -5.74673565 27.63663361 13.31005103 0.00487761 -0.00359005 0.00645231
C 0.89623159 25.13235273 13.11996261 0.00311323 0.00155510 0.00208786
C 3.76410092 20.39502608 17.23962057 0.00484095 -0.00024934 0.01437825
C -1.66336928 22.79645930 16.62506013 0.00508182 -0.00496089 0.00071672
C 6.32605096 27.79816182 13.83452542 0.00025441 0.00471612 -0.00446617
C -0.31775795 25.18412939 13.81664674 -0.00574593 -0.00294593 -0.01052514
C 30.92365128 20.39934922 16.70148759 0.00519545 -0.00090433 -0.00596624
C -0.70269837 21.81787920 16.98289586 -0.00132220 0.00643389 0.00762635
C 5.28340819 27.00605219 13.38236373 -0.00521651 -0.00729196 -0.00686810
C -1.31694763 26.04297421 13.47781972 0.00435055 -0.01184458 0.00519956
C -7.30798394 21.26658289 17.13932509 -0.00502128 -0.00739435 -0.00079194
C -0.79809127 21.14971326 18.19066861 0.00364435 -0.00654538 0.00291204
C 5.40406891 26.18357049 12.24245258 -0.00042307 0.00356124 0.00357583
C -1.22223145 26.81785963 12.30820050 0.00356763 -0.00303603 -0.00436713
C -7.35224448 22.04774498 18.27513800 0.00502938 0.00531355 0.00448146
C 0.99744550 21.19635577 12.74476058 -0.00188203 0.00491668 -0.00075773
C 3.70389078 26.06874627 17.57012550 0.00167580 0.00471593 0.00227802
C -2.71483653 26.81041219 17.82767286 0.00921894 0.00186110 0.00155505
C -5.71534582 22.00259852 12.95594451 0.00257165 -0.00461280 -0.00729605
C -0.08120776 21.91437150 12.30693622 -0.00049629 -0.00608921 -0.00686689
C -8.48154409 26.51048396 18.26449356 -0.00406933 0.00117095 0.00290623
C -1.78642798 25.96382096 18.29551920 -0.00180761 0.00014817 0.00737411
C 6.37444656 21.26128783 12.27332983 0.00795595 0.00064556 -0.00785847
C -4.00519776 24.37654613 15.83074644 0.00819674 0.00588449 0.00187720
C -4.39480196 19.31399319 15.03072748 0.00535425 0.00264506 0.00277289
C 2.04780204 23.72995763 14.67988904 0.00157764 -0.00322812 -0.00281393
C 2.27605382 28.65233178 15.52003343 -0.00121476 0.00262349 -0.00442161
C -5.04348412 25.41119162 15.59126367 -0.00926289 0.00203914 0.00670262
C -3.22160844 20.12508261 15.24246390 -0.00330076 0.00221596 0.00254797
C 3.32848295 22.96519528 14.86392868 -0.00142867 -0.00182309 0.00287078
C 1.04902127 27.74808237 15.36418302 0.00638320 -0.00375629 0.00699142
C -5.70212521 22.94012310 23.56505749 -0.00453435 0.00143130 0.00783814
C -8.61932083 27.40190104 19.34020524 0.00429930 -0.00558799 -0.00219962
C -1.89398289 25.17240939 19.52326607 -0.00119105 0.00094020 -0.00347812
C 0.82836286 20.11886133 23.67573608 -0.00540171 -0.00045762 0.00143084
C -4.46959158 22.89940102 22.92705885 -0.00154215 0.00433541 -0.00089371
C 3.18985757 27.61983269 19.85757657 0.00149191 -0.00131559 0.00498655
C -3.11309960 25.22826853 20.20421804 -0.00174431 0.00877669 -0.00427648
C -11.04187534 20.35166396 22.96851471 0.00566870 -0.01031679 0.00978749
C -3.43264146 22.22542136 23.51614660 -0.00009215 -0.00059794 0.00473447
C 2.21250605 26.72765733 19.38131171 0.00548186 0.00395502 0.00015521
C -4.11979785 26.06991590 19.79920286 -0.00797630 -0.00283312 0.00284259
C -10.21721525 21.44120773 23.20322305 0.00429076 -0.00854442 0.00102576
C 8.37434795 21.30619442 0.22569618 -0.00039877 -0.00086893 -0.00955993
C 2.48100262 26.07594402 18.18718389 0.00146022 0.00295789 0.00126036
C -3.97806623 26.78428476 18.60517161 -0.00004493 -0.00827027 0.00598819
C -10.47232483 22.22129193 24.34661875 0.00219199 0.00244257 0.00970291
C -1.95650466 21.35926029 19.04138292 0.00827519 0.00569051 -0.00523542
C 0.35376939 25.84062437 23.55789467 0.00444593 -0.00184511 0.00202468
C -6.15957505 26.86066505 23.76510958 0.00197655 0.00069420 0.00556946
C -8.52953999 21.93404804 19.07226804 0.00380006 0.00220562 0.00293236
C -2.94758947 22.22441478 18.61903075 -0.00787774 -0.00013623 0.00047585
C -11.52367129 26.83811168 24.25504134 -0.00533740 0.00745445 -0.00021018
C -5.10008975 26.14067760 24.24556261 0.00458354 0.00323514 -0.00003790
C 3.58030043 21.19970684 18.43938137 -0.00011627 0.00235431 -0.00229010
C -6.96111887 24.07944634 21.81881637 -0.00560320 -0.00145012 -0.00113179
C -7.24718194 19.61776507 20.96563392 0.00388508 -0.00271561 -0.00319255
C -0.74746343 23.77578462 21.05834199 0.00163179 0.00387016 0.00148587
C -0.63767287 28.45749880 21.84278830 -0.00656208 -0.00750865 0.00672602
C -8.09948239 25.07680962 21.56209024 -0.00848764 -0.00053755 -0.00308771
C -6.06447850 20.54804297 20.94875023 0.00240603 0.00826002 0.00286740
C 0.61826519 23.19329233 21.30042188 -0.00344130 0.00490391 0.00138174
C -1.86808346 27.58345590 21.69650713 0.00835828 0.00153322 -0.00087076
C 16.45036351 3.69031622 5.01654691 -0.00417314 0.00120492 -0.00864890
C 13.42016577 8.26611998 1.00468378 0.00178414 0.00188177 0.00403678
C 19.98670041 5.91123425 0.85590512 0.00728197 -0.00026131 -0.00372334
C 22.72862949 1.08849201 5.02813962 -0.00248849 0.00544987 -0.00310627
C 17.64209750 3.54403875 4.34437829 -0.01090265 0.00475155 -0.00162364
C 25.28085217 8.02746863 1.70889944 0.00194450 0.00409379 0.00390411
C 18.75586686 5.99471564 1.57176462 0.00138483 0.00286143 0.00856106
C 11.15463186 1.16439530 4.24752577 0.00406284 -0.00114806 -0.00039876
C 18.57789186 2.69619159 4.80433894 0.00413042 -0.00333169 -0.01226602
C 24.35511290 7.04883884 1.34974019 0.00409071 0.00254908 -0.00382339
C 17.92268640 7.01249320 1.24671147 -0.00123802 -0.00035721 0.00132585
C 12.08750372 2.02971885 4.63782628 -0.00278338 -0.00735281 0.01541376
C 18.45276200 1.96397703 6.07991930 0.00529488 0.00485514 -0.00114021
C 24.51006420 6.35647076 0.13990485 -0.00530545 0.00134538 0.00157170
C 18.12795078 7.83119087 0.11618182 0.00168788 -0.00282079 0.00350147
C 12.00170817 2.78348627 5.82025850 0.00053263 -0.00526057 -0.00201320
C 19.92540166 2.04695493 0.36184689 -0.00784817 -0.00051148 0.00497869
C 22.60340204 6.73344275 5.53299051 0.00371539 0.00263808 -0.00178797
C 16.20140160 7.51059749 5.53100599 -0.00111418 -0.00067014 -0.00457964
C 13.46208431 2.64547194 0.60076055 0.00093072 0.00316260 -0.00066381
C 6.99464227 3.00322715 24.33179353 -0.00099269 -0.00178223 -0.00842654
C 10.66790641 7.64656719 6.03619254 0.00383529 0.00388926 0.00241785
C 17.24991333 6.69795886 5.87394607 -0.00151255 -0.00976928 0.00167434
C 25.60363361 1.88563356 0.06547158 -0.00377985 -0.00250221 -0.00322226
C 15.40531152 5.17430368 3.39400635 -0.00106974 0.00619168 0.00065855
C 14.84123873 28.81784069 2.30056670 -0.00534057 -0.00142637 0.00100723
C 21.20777744 4.40700389 2.36627427 0.00243345 -0.00259858 0.00391595
C 21.39983443 9.32141898 3.45853642 -0.00901001 0.00151486 -0.00445834
C 14.22537525 6.05281365 3.03521135 -0.00135773 0.00741025 -0.00249124
C 16.00029051 0.94162920 2.43327188 -0.00191543 0.01439725 -0.00069636