2880
Time=20999.99999999 pbc="T T T" Lattice="39.34444961 0.00000000 0.00000000 0.00000000 28.93205816 0.00000000 -12.01918649 0.00000000 24.36596142" energy=-18401.79151475 virial="26.36369459 12.38837835 -44.61897003 12.38837835 47.72619278 36.15350933 -44.61897003 36.15350933 15.97590614" stress="0.00343554 0.00045195 -0.00157628 0.00045195 0.00418283 0.00129249 -0.00157628 0.00129249 0.00302561" Properties=species:S:1:pos:R:3:vel:R:3
C 3.03533442 3.84688008 5.19776969 0.00194884 0.00286505 0.00174775
C 0.13111936 8.47724511 0.84680058 0.00501393 0.00668900 0.00130629
C 6.72217653 5.94177371 1.05462961 -0.00222662 0.00232307 0.00171675
C 9.64913283 1.18087838 5.29324095 -0.00056742 0.00434326 0.00137301
C 4.18210760 3.64018795 4.47306865 0.00524083 0.00389696 0.00185459
C 12.15243632 8.55254185 1.78877192 0.00181299 0.00661459 0.00130230
C 5.44592474 5.97872106 1.74041262 0.00149475 -0.00065203 -0.00527420
C 37.08507880 1.16508088 4.30661211 -0.00293859 0.00163130 0.00992600
C 5.15457098 2.71892189 4.80525835 0.00081012 -0.00312574 0.00107509
C 11.07302540 7.80157284 1.40527878 -0.00283465 0.00203126 0.00279970
C 4.52947049 6.83472689 1.28450217 0.00046498 0.00384548 0.00364876
C -1.33481986 2.09958374 4.69253862 -0.00525992 0.00327849 0.00629379
C 4.96917692 1.86490961 5.94841242 0.00732203 0.00644832 -0.00222665
C 11.24502657 6.93984014 0.30117454 -0.00538040 0.00244318 0.00200297
C 4.69584375 7.68656817 0.12463347 -0.00184722 -0.00594880 -0.00898172
C -1.51193453 2.87058947 5.86909062 0.00282586 0.00356560 -0.00148274
C 6.76193144 2.02839845 0.40724906 -0.00232220 -0.00076806 -0.00158408
C 9.84089740 6.99097029 5.63677870 0.00548714 0.00033259 0.00390121
C 3.24057031 7.50949596 5.56655857 -0.00522929 0.00071382 0.00364819
C 0.33756398 2.59948320 0.68073414 0.00402497 0.00227299 0.00143770
C -6.19147795 2.96271434 24.35019926 -0.00985082 0.00411604 0.01017597
C -2.15650885 7.67271943 5.97288281 -0.00275305 -0.00110209 -0.00268146
C 4.24017592 6.68592359 6.07897421 -0.00335797 0.00384595 -0.00002271
C 12.39286346 1.94016970 0.30113174 -0.00058678 -0.00118223 -0.00335646
C 1.71844208 5.16921579 3.60055669 0.00050288 -0.00757567 0.00074252
C 1.90062879 0.18593698 2.43848706 0.00357309 0.00071711 0.00420225
C 7.98754079 4.57949516 2.63973544 -0.00242463 0.00293753 -0.00372530
C 8.61063859 9.48566893 3.61123461 0.00454861 -0.00326997 0.00286930
C 0.48815910 6.06491368 3.55181867 0.00899766 0.00009973 0.00215257
C 3.17037054 0.86541795 2.71868300 0.00018118 0.00357103 -0.00280112
C 9.12987750 3.65788321 2.86376421 -0.01232728 0.00090021 -0.00356763
C 7.25422997 8.78337222 3.51392248 0.00157844 -0.00006090 -0.00160835
C 0.25930694 3.80624324 11.30756868 -0.00281896 0.00232096 -0.00108846
C -2.40872714 8.55265919 7.05046371 -0.00195580 0.00722834 0.00327413
C 3.98192805 5.86662625 7.13601626 -0.00397509 0.00050362 -0.00249646
C 6.67331950 1.16769079 11.16324964 -0.00219653 -0.00681434 -0.00108799
C 1.48880586 3.78337419 10.61735621 0.00478182 -0.00015415 0.00529627
C 9.23240151 8.26256892 8.09278574 0.00215229 -0.00628650 -0.00097007
C 2.73962246 5.95480515 7.76255558 0.00212464 -0.00008727 0.00433417
C 34.06217882 1.38605592 10.60097372 -0.00149348 0.00136442 0.00482228
C 2.46905747 2.85410385 10.98102127 0.00350974 0.00078560 0.00068021
C 8.32829077 7.43688107 7.54714722 0.00429104 0.00108724 -0.00074938
C 1.79654320 6.88629978 7.43981330 0.00116349 -0.00235492 -0.00099955
C -4.23415514 2.09771654 11.12885089 0.00351529 0.00496104 0.00648245
C 2.32585058 2.01625456 12.08892945 0.00310525 -0.00117395 -0.00196788
C 8.64655591 6.69078099 6.38687578 -0.00735953 0.00167952 0.00392276
C 2.03143364 7.67579019 6.25918799 -0.00742222 -0.00020233 -0.00969676
C -4.37432875 2.98208740 12.18065619 0.00308066 -0.00269709 -0.00686715
C 3.76660102 2.00660311 6.66773136 0.00568935 -0.00381571 0.00474142
C 6.59523679 6.68745068 11.84139077 0.00844526 0.00342027 0.00570988
C 0.39360105 7.76290336 11.60759800 0.00046122 0.00234761 0.00383888
C -2.73955295 2.72084380 6.52861123 -0.00533560 -0.00186250 -0.00319961
C 2.83700702 2.89585216 6.23073589 0.00022247 -0.00278575 -0.00105286
C -5.29655414 7.94173930 12.07372246 -0.00224212 0.01046772 -0.00576214
C 1.23547418 6.85026010 12.15216000 -0.00469497 -0.00471676 0.00558934
C 9.48115762 2.00364678 6.46275361 -0.00665634 -0.00386783 0.00275381
C -1.06394125 5.06967301 9.61547223 0.00305971 0.00124839 -0.00917552
C -1.20170318 0.44926000 8.72176108 0.00378753 0.00428717 0.00049559
C 5.13102380 4.56116098 8.80562365 -0.00206892 0.00463545 0.00112583
C 5.49343791 9.19124396 9.55569990 -0.00571409 0.00416883 0.00523696
C -2.38809744 5.70857298 9.54259372 -0.00140930 -0.00217361 -0.00730114
C -0.03676607 1.34479509 9.01347059 -0.00360885 -0.00685626 0.00027197
C 6.34291539 3.60269958 8.93915506 0.00133834 -0.00910183 -0.00224015
C 4.24622217 8.38549072 9.28454314 0.00366606 0.01065764 0.00402067
C -2.96065662 3.70244431 17.38378722 0.00761869 -0.00005854 0.00005720
C -5.43512246 8.73302582 13.23067105 -0.00371802 -0.00651359 -0.00333770
C 0.94161994 5.98057712 13.30510460 -0.00232141 0.01017584 -0.00335960
C 3.51330259 1.10470396 17.34690527 0.00012061 0.00568228 -0.00357151
C -1.68056000 3.73583004 16.74623773 -0.00212213 -0.00568824 0.00165771
C 6.01046085 8.55271425 13.76283562 0.00435992 -0.00046545 -0.00603621
C -0.32736246 6.22528050 13.92770097 -0.00881572 -0.00278072 -0.00133444
C -8.08971718 1.08370516 16.73935601 -0.00126633 0.00035255 0.00689944
C -0.74108199 2.81143566 17.13533380 0.00156852 -0.00143938 0.00034678
C 5.02243903 7.69962876 13.34611732 -0.00308529 0.00959868 0.00234814
C -1.24203708 7.04729454 13.31740724 0.00310854 -0.00253359 -0.00278848
C -7.06612300 1.85992407 17.16563608 0.00305352 0.00352474 -0.00683345
C -1.02112078 1.93198991 18.17638873 -0.00574461 0.00788625 -0.00491821
C 5.29545416 6.69457283 12.43503229 0.00755759 -0.00272699 -0.00385693
C -0.89983466 7.86026424 12.15930652 -0.00097252 -0.00205661 -0.00033094
C -7.24635571 2.79666229 18.19464895 0.00193423 0.00061483 -0.00202087
C 1.08117896 1.99704799 12.70085548 -0.00808543 0.00104154 -0.00591996
C 3.69877214 6.92298995 17.75000218 -0.00023228 0.00997456 -0.00339459
C -2.81570278 7.56103352 17.56971479 0.00059331 0.00251230 -0.00219563
C -5.56082456 2.86721357 12.88161343 0.00309332 -0.00016019 0.00410895
C 0.04654778 2.86401918 12.29285109 0.00000011 0.00715125 0.00359864
C -8.34997419 7.67639694 18.20506913 -0.00043383 -0.00407248 -0.00506191
C -1.91388998 6.62628768 18.00585622 -0.00222999 0.00094142 -0.00049635
C 6.44881992 2.05328443 12.17963866 0.00196531 0.00371759 -0.00047280
C -3.94903892 5.16276436 15.68407983 0.00431445 -0.00722544 -0.00121205
C -4.25360806 0.03711668 14.70969950 -0.00464516 0.00074723 -0.00366583
C 2.01706060 4.48373839 14.94509528 0.00297137 -0.00333024 0.00177096
C 2.44366905 9.29113039 15.72057702 0.00635803 0.00307529 -0.00415756
C -5.08527797 6.08949828 15.46585434 -0.00080577 -0.00295817 -0.00324225
C -2.96449440 0.88503258 14.73098732 -0.00375816 0.00637517 0.00231436
C 3.17860025 3.54408139 15.15477521 -0.00341803 0.00016814 0.00292110
C 1.19907479 8.49496190 15.50776683 0.00627329 0.00216351 -0.00370651
C -5.90010628 3.85380623 23.33073026 -0.00551097 -0.00064186 0.00341462
C -8.53692439 8.58907727 19.22304812 0.00443097 -0.00318602 -0.00693164
C -2.08556281 6.00550229 19.26959954 0.00122169 -0.00071037 -0.00152329
C 0.47854077 1.12761756 23.49619071 0.00807258 -0.00313017 0.01005399
C -4.62425007 3.94414095 22.77032441 0.00453693 0.00115065 0.00293638
C 3.22075616 8.51118022 20.04058966 -0.00965995 -0.00430044 -0.00365779
C -3.35759794 6.02807361 19.88988197 0.00421427 -0.00411821 0.00061629
C 27.96021276 1.04543206 22.82717367 0.00209770 0.00853986 -0.00392982
C -3.70629115 2.92760042 23.13661387 -0.00380659 -0.00451337 -0.00509152
C 2.24940852 7.62202917 19.59166138 0.00245588 -0.00197825 -0.00298340
C -4.34261026 6.78709814 19.34702084 0.00498378 0.00318836 0.00452964
C -10.31907151 1.82556360 23.22699019 -0.00155211 -0.00774395 0.00365092
C -3.92493208 2.07715176 24.20418980 0.00257447 -0.00083850 -0.00033594
C 2.45454362 6.81954479 18.46230115 0.00172044 -0.00202262 0.00121852
C -4.14533119 7.55709811 18.20009531 0.00060269 -0.00347741 -0.00258735
C -10.45156666 2.62447615 24.34103061 0.00681328 -0.00073254 0.00338068
C -2.30013451 1.93537256 18.86365506 0.00393654 -0.00580560 -0.00160008
C 0.42742630 6.89507451 23.95256220 -0.00411150 0.00001459 0.00435631
C -6.10504362 7.61675010 23.78525660 0.00055421 0.01095646 0.00204617
C -8.40561624 2.67865474 18.96748707 -0.00343134 -0.00258177 -0.00235804
C -3.20562550 2.87438237 18.50737597 -0.00138379 0.00121167 0.00367204
C -11.72360332 7.47009537 24.25486930 -0.00136156 -0.00331872 -0.00703905
C -5.13229995 6.80094714 24.32981955 0.00349908 -0.01190077 0.00455986
C 3.32727227 1.89906564 18.46023363 -0.00800414 0.00569039 0.00413053
C -7.21784030 5.14306727 21.76658272 -0.00387749 0.00887749 -0.00583347
C -7.35589555 0.41578265 20.92421766 -0.00037377 -0.00048846 -0.00069736
C -0.93710736 4.65085056 20.86422726 -0.00623827 -0.00270408 0.00958289
C -0.94596531 9.30498949 21.80267024 -0.00742291 0.00783951 -0.00080597
C -8.46547892 5.81740083 21.51574562 0.00219139 -0.00232602 0.00514214
C -6.18465331 1.33022991 21.23535751 -0.00343551 -0.00074570 0.00104172
C 0.19312386 3.75177536 21.00643431 0.00156860 -0.00469388 -0.00020518
C -2.35289268 8.62931902 21.71688816 0.00570565 0.00573996 0.00287948
C 3.01648363 13.34499498 5.01924982 -0.00233296 0.00153955 0.00538733
C 0.26057005 18.13213476 0.96893677 0.00423099 -0.00009874 0.00313015
C 6.86762917 15.48960628 0.99935493 0.00319605 -0.00132490 0.00293635
C 9.98353971 10.64889014 5.17927254 0.00106264 -0.00530561 -0.00355512
C 4.25648637 13.19802774 4.32572816 0.00466100 0.00042561 0.00225509
C 12.27047627 18.13291108 1.70266979 0.00060629 0.00856176 0.00088991
C 5.60506635 15.57955911 1.61047213 0.00592294 0.00053098 0.00302924
C 37.02273207 10.68146415 4.51825733 0.00570588 -0.00701964 -0.00884827
C 5.21810085 12.41462710 4.80078215 -0.00591447 0.00329653 -0.00685907
C 11.23398805 17.37885069 1.24527433 -0.00403329 0.00302842 0.00068972
C 4.71711552 16.55905687 1.28492412 0.00504574 0.00615851 -0.00291603
C -1.30231592 11.58254083 4.75481887 -0.00525385 -0.00143362 0.00055114
C 5.07721648 11.69794172 6.01742243 0.00178214 -0.00021634 -0.00528867
C 11.36613261 16.58572146 0.11678936 0.00651384 -0.00578934 0.00111700
C 4.99912679 17.49384039 0.23875208 -0.00528188 0.00300866 -0.00210653
C -1.39286545 12.45700677 5.88265307 0.00086730 0.00254393 0.00074665
C 6.69771701 11.77616158 0.52323890 0.00318448 -0.00351975 0.00392331
C 9.85051764 16.47589950 5.63873654 -0.00026389 -0.00183806 0.00397985
C 2.93846101 17.13429509 5.17287536 -0.00367921 0.00163028 0.00157087
C 0.31625602 12.27249571 0.35874808 0.00273651 -0.01384865 -0.00266715
C 5.81579405 12.75047232 0.10854665 -0.00416057 0.00204864 -0.00634373
C -2.21798185 17.25238724 5.96798759 0.00035867 -0.00343722 0.00231011
C 4.01227230 16.32240496 5.57979338 -0.00092862 -0.00013726 -0.00219357
C 12.18361769 11.53351187 0.06791975 0.00144513 0.00479633 -0.00224687
C 1.80081847 14.77199909 3.37389573 0.00552854 -0.00524897 -0.00161561
C 1.38041800 9.83621410 2.48873460 -0.00483277 -0.00470151 -0.00506233
C 8.15319385 14.11758475 2.54844738 -0.00398979 0.00367198 -0.00508091
C 8.18275832 19.13614086 3.83197781 -0.00398654 -0.00107414 0.00295258
C 0.48478204 15.47726031 3.18407640 0.00386142 -0.00353839 0.00108817
C 2.54879840 10.80503115 2.60502104 -0.00009951 -0.00360312 0.00101627
C 9.41574675 13.35481241 2.72143210 -0.00228220 -0.00316885 -0.00367416
C 6.81566143 18.54506093 3.78339255 -0.00456955 0.00059693 -0.00020006
C 0.31595678 13.38035565 11.19357290 -0.00214419 -0.00253799 -0.00075177
C -2.50532137 18.09173349 7.01027074 -0.00070063 -0.01086569 0.00666187
C 3.86444156 15.56589690 6.78490880 0.00161756 -0.00347041 -0.00696516
C 6.78460377 10.64632005 11.08320540 -0.00245602 0.00186332 -0.00441745
C 1.49358594 13.26161507 10.43710148 -0.01062165 0.00064479 0.00238881
C 9.33324745 18.04463328 7.88939167 -0.00133115 -0.00361096 0.00203786
C 2.66486549 15.55196037 7.49083414 -0.00132059 0.00102246 -0.00673867
C -4.98439979 10.95420736 10.30087665 0.00290589 -0.00069624 -0.01081837
C 2.46514755 12.41866001 10.89070774 0.00481920 -0.00117582 0.00283546
C 8.42266918 17.10169223 7.44598013 0.00240965 0.00240323 0.00207330
C 1.65895514 16.36944949 7.14407887 0.00386217 -0.00148637 0.00666863
C -3.99132742 11.75278865 10.79485520 -0.00104814 0.00191252 -0.00445112
C 2.37025246 11.72094147 12.13285213 -0.00112411 -0.00047143 -0.00497603
C 8.59779811 16.39431238 6.23736589 -0.00043572 -0.00719829 -0.00095859
C 1.76996326 17.15722030 6.00960609 0.00290500 -0.00669001 -0.00398905
C -4.12806148 12.44037684 12.02037447 -0.00506444 0.00060963 -0.00008985
C 3.83811582 11.85753464 6.74927636 0.00210543 -0.00499380 -0.00322462
C 6.84167803 16.45816235 11.78881906 0.00217070 0.00266312 0.00143629
C 0.38512035 17.33430823 11.73014268 0.00351394 0.00619498 0.00745281
C -2.59218820 12.43263250 6.61874265 -0.00052159 0.00397796 0.00283282
C 2.80500473 12.56112215 6.16198589 0.00089263 -0.00380029 0.00013374
C -5.38414165 17.47409699 12.16907762 -0.00206453 0.00126336 -0.00215286
C 1.39008324 16.39199891 12.11112286 0.00457219 0.00037161 -0.00418043
C 9.68644972 11.60297249 6.15781594 -0.00672021 -0.01258504 -0.00416389
C -1.01389882 14.65559878 9.61763041 0.00685708 -0.00886465 -0.00230908
C -1.37818538 10.15964219 8.48934777 -0.00436285 -0.00108227 -0.00379787
C 5.27716958 14.32643409 8.44134943 -0.00009902 -0.00459188 0.00217420
C 5.53073598 18.78189121 9.52728805 -0.00011958 0.00338306 0.00606332
C -2.29951719 15.47295127 9.57572039 0.00115884 0.00029635 0.00421167
C -0.11491340 10.94040969 8.69882951 0.00016302 0.00325283 0.00322885
C 6.51250611 13.44047924 8.50714405 -0.00594136 -0.00169893 -0.00296617
C 4.51192986 17.76882545 9.25985178 0.00848792 0.00321822 0.00353951
C -2.76663709 13.53744214 17.31973440 -0.00121221 -0.00158279 0.00832947
C -5.52342553 18.24344793 13.36982885 0.00442930 0.00365693 -0.00398859
C 1.16232815 15.52933921 13.15808451 -0.00276177 0.00145772 -0.00370782
C 3.62772116 10.63248627 17.38402767 0.00595442 -0.00553799 0.00097963
C -1.56342561 13.37302200 16.63211588 -0.01116758 0.00027950 -0.00585604
C 6.23818038 18.08245297 13.93998983 0.00669991 -0.00165827 -0.00295001
C -0.06712361 15.55031777 13.87375982 -0.00324351 0.00141931 0.00201689
C -8.13659652 10.92116658 16.56605501 -0.00192159 -0.00033115 0.00072468
C -0.69459991 12.42072266 17.05110340 -0.00526811 0.00342893 0.00612593
C 5.29857480 17.11548475 13.46772683 -0.00495201 0.00386482 0.00280561
C -1.03020097 16.41389774 13.38754791 0.00673075 -0.00251132 0.00095451
C -7.19504037 11.84723949 17.01473646 0.00471783 0.00259022 -0.00268504
C -0.95841974 11.62269006 18.20644997 -0.00432916 0.00728858 -0.00369327
C 5.58548639 16.24074208 12.38900339 0.00007868 -0.00327736 -0.00267745
C -0.82690385 17.30407050 12.29789203 -0.00257005 0.00291015 0.00366810
C -7.39527324 12.65943361 18.13207582 0.00217272 -0.00331962 -0.00036933
C 1.19161382 11.90251033 12.83044928 0.00041616 0.00671109 -0.00870709
C 3.74566809 16.34341918 17.78432468 -0.00236371 -0.00525965 0.00607360
C -2.85205984 17.34863273 17.90672957 -0.00334794 0.00331943 0.00314965
C -5.33667832 12.33611589 12.68493161 -0.00612752 0.00578790 0.00161216
C 0.15886625 12.65964058 12.34655555 0.00035009 0.00702785 -0.00097113
C -8.43638784 17.54589355 18.00658090 0.00130285 0.00226864 -0.00261405
C -1.88899975 16.44298707 18.26422269 0.00071589 0.00134338 0.00668701
C 6.58397597 11.33595274 12.25980810 0.00359352 0.00227106 0.00172024
C -4.13087484 14.70821902 15.63114090 0.00453817 -0.00099003 -0.00738379
C -4.05800267 10.03147264 14.69091385 -0.00411101 0.00234558 -0.00271511
C 2.21357824 14.10619913 14.73449344 0.00279796 -0.00811386 0.00181481
C 2.53346147 18.74339880 15.75868979 0.00205721 0.00516035 -0.00183052
C -5.52082482 15.24332022 15.38879989 -0.00010201 -0.00012632 0.00576994
C -2.77596457 10.78283651 14.78229063 0.00458625 -0.00885134 0.00124465
C 3.42898708 13.25713091 15.10310758 -0.00040213 0.00207348 0.00383283
C 1.27730480 17.95600575 15.38331164 0.00139352 -0.00091797 -0.00281809
C -5.92770044 13.50129956 23.27038812 0.00907833 0.00312930 0.00685778
C -8.68802883 18.41109810 19.15190579 -0.00257611 -0.00131882 -0.00352589
C -2.12765410 15.67694592 19.39290519 -0.00230949 -0.00380963 0.00265395
C 0.38240856 10.77199588 23.27082284 0.00190693 -0.00232713 0.00235853
C -4.67550630 13.30813319 22.61955934 -0.01274619 0.00066959 0.01017670
C 3.09616063 17.98155525 19.91017987 0.00229930 -0.00714055 -0.00344673
C -3.32001073 15.79822637 20.11578612 -0.00228738 0.00343984 0.00093945
C -11.14937868 10.67928043 22.63125483 -0.00722372 0.00608089 0.00348634
C -3.77459201 12.39566299 23.19185382 0.00084025 -0.00703258 -0.00171655
C 2.14060827 17.11507821 19.35545488 0.00300749 -0.00622990 0.00177133
C -4.20902583 16.79472357 19.76740012 -0.00140154 0.00795943 0.00540198
C -10.14607829 11.50439408 23.10217070 -0.00064039 -0.00444229 0.00296599
C -4.11893209 11.54644446 24.19263444 0.00884073 -0.01073369 0.00445892
C 2.47561818 16.21131430 18.34555323 0.00211790 0.00247897 0.00517853
C -3.97523409 17.59193384 18.66874337 0.00145042 -0.00149643 0.00032471
C -10.42831392 12.31905422 24.19257860 0.00577899 0.00591374 0.00422889
C -2.25563059 11.70004191 18.79973487 -0.00423176 -0.00567196 0.00317169
C 0.55814686 16.65341631 23.74775867 0.00300801 0.00279263 -0.00622184
C -5.81480286 17.29412090 23.92673515 -0.00155485 0.00013886 -0.00312756
C -8.64125805 12.44035716 18.78310781 0.00416884 0.00485317 0.00773643
C -3.00573677 12.71937125 18.44035084 0.00785269 -0.00518069 -0.00289255
C -11.47595607 17.31575597 24.15706072 0.00216372 -0.00963417 -0.00022962
C -4.87534260 16.42429195 24.36105796 -0.00183039 0.00048014 0.00200031
C 3.51328929 11.46864557 18.58241414 0.00097481 0.00182619 -0.00220821
C -7.00538092 14.99158222 21.61447186 0.00346124 0.00200607 -0.00487375
C -7.41086537 10.05101872 20.83163806 -0.00354318 0.00281525 -0.00681141
C -0.93333300 14.17964886 20.90471383 -0.00074394 0.00813182 -0.00597511
C -0.79382834 19.22305757 21.88112585 0.00148362 -0.01011501 -0.00236031
C -8.21565987 15.82557727 21.50189407 -0.00857932 0.00701312 0.00371807
C -6.19409740 10.82341623 21.09025261 -0.00259701 -0.00359357 -0.00167014
C -0.01388882 12.97932672 20.96125792 0.00380987 0.00199955 -0.00433119
C -2.03234360 18.41618195 21.91804197 0.00128880 -0.00748150 -0.00142419
C 2.99482543 23.07321007 5.12097680 -0.00383782 -0.00511453 -0.01039847
C 0.54296000 27.77764981 0.90625133 0.00260155 -0.00860802 0.00221456
C 7.18576478 25.43433725 1.04521380 0.00255418 0.00756506 0.00213175
C 9.64928779 20.34344853 5.38289613 -0.00347654 -0.00026270 0.00772172
C 4.22577401 22.86304636 4.45796194 -0.00528676 -0.00768563 -0.00217867
C 12.26218261 27.76161054 1.61026145 0.00602797 0.00213639 -0.00301670
C 5.87413749 25.37954483 1.57588752 0.00049352 -0.00688934 0.00692806
C 37.21013777 20.60380244 4.26387394 -0.00375679 0.00024374 0.00170986
C 5.23122267 22.06237994 4.94984984 0.00249559 -0.00094621 -0.00350633
C 11.33588049 26.89063229 1.23347565 -0.00357635 -0.00618234 -0.00580691
C 4.92409213 26.34571459 1.16166333 -0.00387697 0.00197316 0.00010758
C -1.27071468 21.57266671 4.66750538 0.00078301 0.00447232 -0.00063495
C 4.99875270 21.21139811 6.05208657 0.00401465 -0.00112050 -0.00409322
C 11.46764596 26.05145661 0.12704454 0.00043610 -0.00194275 -0.00315144
C 5.23028130 27.30100482 0.14058235 0.00048840 0.00046885 0.00051427
C -1.58846150 22.41730512 5.71745743 0.00487338 -0.00347260 -0.00319849
C 6.84427970 21.42459639 0.55050387 -0.00243928 -0.00088328 0.00412318
C 9.63925438 26.26707926 5.57308087 0.00375115 0.00448335 -0.00409745
C 3.23773962 26.88523785 5.43976315 -0.00026314 -0.00603897 0.00022452
C 0.48026927 22.34446072 0.40186578 -0.00049225 -0.00991265 -0.00335780
C 5.89937638 22.31526846 0.05721295 0.00176264 -0.00228805 0.00321261
C -1.94278199 27.11788879 6.04955080 0.00380430 -0.00118564 0.00234756
C 4.10014039 25.90705553 5.90116423 -0.00134633 0.00839924 0.00081420
C 12.43520169 21.28563589 0.31919042 -0.00038607 0.00121795 -0.00242280
C 1.96237565 24.51760020 3.46234007 0.00723461 -0.00118242 -0.00678200
C 1.45325837 19.60055047 2.53823685 -0.00075126 0.00082566 -0.01208480
C 8.12912782 23.90893536 2.70925324 0.00086236 -0.00113722 0.00346287
C 8.33198919 28.80395815 3.81421847 -0.00155076 -0.00069166 -0.00020063
C 1.05246400 25.70824850 3.41185180 0.00729935 0.01097550 0.00073496
C 2.76686187 20.36527381 2.65931290 0.00346307 0.00656955 0.00631878
C 9.32254788 23.02427246 3.05090875 0.00491359 0.00390231 0.00301155
C 7.17112414 27.95138957 3.69552065 0.00404463 -0.00245841 -0.00505260
C 0.05225220 22.86879536 11.31151460 -0.00005485 0.00830406 0.00091172
C -2.23059291 27.93165686 7.18149379 -0.00139885 -0.00594867 -0.00651855
C 3.88801134 25.26560679 7.11042523 -0.00067647 0.00021104 0.00861230
C 6.59735531 20.21622858 11.16074281 -0.01156826 0.00386881 -0.00446599
C 1.26723190 22.80384336 10.55198469 0.00594447 0.00418205 0.00766507
C 9.38388944 27.61629551 7.92281078 0.00506528 0.00042829 0.00193854
C 2.64725586 25.29592188 7.69689668 -0.00856398 0.00736200 -0.00800285
C -5.03680940 20.55599114 10.48222261 0.00851269 -0.00434291 -0.00577274
C 2.25379834 21.93557524 10.99524296 -0.01003513 0.00160430 -0.00075926
C 8.38187771 26.77970470 7.54794177 0.00493851 -0.00457060 -0.00852924
C 1.73835102 26.34869313 7.26578296 -0.00516870 0.00383431 -0.00237612
C -4.13106921 21.43050965 10.95894824 0.00199346 0.01000464 0.00542717
C 2.06392395 20.99912440 12.00018681 0.00384449 -0.00019335 -0.00068665
C 8.53384727 25.98430245 6.34626473 0.00235697 -0.00441370 -0.00504805
C 2.11296804 27.22209633 6.20803444 -0.00613385 0.00633157 0.00738933
C -4.43088950 22.27093090 12.04338344 -0.00031617 0.00850088 -0.00264631
C 3.81048933 21.40934996 6.77603429 0.00275548 -0.00459566 -0.00370584
C 6.82492484 26.11943457 11.86359143 -0.00000746 -0.00592128 0.00459299
C 0.41708674 26.85669641 11.74161415 0.00038056 -0.00171312 -0.00144703
C -2.84495022 22.29539104 6.35857021 -0.00320216 0.00766923 0.00473868
C 2.85656403 22.29469711 6.31110842 0.00122619 0.00033811 0.00388367
C -5.47422611 27.15282120 11.84539240 0.00315042 0.00071772 0.00182362
C 1.38299736 25.91514890 12.17607746 0.00127653 -0.00664974 0.00446572
C 9.49024785 21.29457528 6.39347947 -0.00177151 0.00356990 0.01017815
C -1.17639234 24.33086134 9.82814493 -0.00172793 0.00570825 -0.00347897
C -1.38344024 19.72372359 8.45435394 -0.00490992 0.00359065 0.00139234
C 5.06478931 23.94140698 8.78259689 0.00110749 -0.00091432 0.00620283
C 5.57722066 28.53625545 9.64037275 -0.00374764 0.00352368 -0.00615059
C -2.32681565 25.24790509 9.72758904 -0.00373699 -0.00191148 -0.00186841
C -0.07836633 20.40484717 8.70232737 0.00396548 0.00351029 -0.00241564
C 6.12578117 22.93677348 8.90040902 -0.00095609 0.00048167 -0.00751354
C 4.59365209 27.49901960 9.53211112 -0.00161327 -0.00286332 0.00072728
C -2.84609411 23.11468977 17.37671408 -0.01217592 0.00120596 0.00057331
C -5.56332770 27.82289783 13.12732541 0.00044640 -0.00701581 0.00032380
C 1.02193689 25.07412841 13.22836025 -0.00378557 0.00612999 -0.00347817
C 3.53897753 20.16606635 17.39332997 0.00304383 -0.00137345 -0.00229324
C -1.71318187 22.87562492 16.55847137 0.00179786 -0.00475897 0.00185775
C 6.34882570 27.95597436 13.93325034 0.00134951 -0.00074027 0.00327813
C -0.25756512 25.23916391 13.79012413 -0.00740570 -0.00129204 -0.00531727
C 31.13245733 20.53682816 16.61398555 0.00772483 0.00182881 0.00056235
C -0.76256808 21.97078050 16.96303448 0.00265464 -0.00735256 0.00592071
C 5.35790175 27.06497123 13.53510584 -0.00052148 0.00018060 -0.00066431
C -1.20694226 26.13872295 13.33362766 -0.00316181 -0.00755871 0.00826216
C -7.28507602 21.51448684 16.90623140 -0.00210490 -0.01237197 -0.00862844
C -0.96444292 21.12246474 18.05632850 -0.00078512 0.00223411 -0.00154612
C 5.53672374 26.10278032 12.51531128 -0.00892282 0.00060254 0.00170746
C -0.83060731 27.03367227 12.31529373 0.00701660 -0.00501053 -0.00672119
C -7.63841640 22.49841087 17.90578096 0.00224330 -0.00760746 0.00200406
C 0.83674960 21.08765868 12.72841539 -0.00065813 -0.00232350 0.00677525
C 3.67180346 26.21077009 17.63655460 0.00271567 -0.00685323 -0.00886055
C -2.67826110 26.90486311 17.80636888 -0.00299089 0.00493794 -0.00115185
C -5.61166034 22.00361050 12.71150689 0.00224845 -0.00117970 0.00228849
C -0.08777668 21.97384202 12.39440205 -0.00131888 0.00395188 0.00494561
C -8.14196901 26.99609985 18.19440947 -0.00331960 -0.00322192 0.00396059
C -1.78712863 25.86659050 18.15406433 0.00505354 -0.00014730 0.00114028
C 6.21919920 21.12684836 12.12649582 -0.00102640 0.00685918 -0.00535753
C -4.11378845 24.46765948 15.76226438 -0.00075689 -0.00810782 0.00313491
C -4.38398971 19.71837797 14.90895672 -0.00475738 -0.00329048 0.00181517
C 2.05781313 23.68156603 14.85773067 0.00152963 -0.00047414 -0.00096699
C 2.37730333 28.67462142 15.76795875 -0.00382833 -0.00256457 -0.00445065
C -5.33955862 25.32762395 15.51166842 -0.00020718 0.00125997 0.00138985
C -3.25879939 20.67218604 14.96369343 0.00281556 0.00068590 0.00136238
C 3.30039496 22.91525080 15.17979452 0.00337822 -0.00418179 -0.00510689
C 1.38452441 27.57674644 15.56530322 -0.00213547 -0.00692544 0.00267615
C -5.82579159 23.14682167 23.35329249 0.00231699 -0.00898530 0.00305081
C -8.32464531 27.77515133 19.32248032 0.00359453 -0.00102753 0.00030917
C -1.95604412 25.16129700 19.38171682 0.00024678 -0.00051288 0.00136199
C 0.59255864 20.48765757 23.50228420 -0.00749306 0.00294330 0.00385286
C -4.54341234 23.00223259 22.79127658 -0.00495735 -0.00064631 -0.00564047
C 3.20887320 27.84127146 19.83605394 -0.00028617 -0.00777842 0.00807591
C -3.20019141 25.23098662 20.05403117 0.00140180 0.00498347 -0.00354513
C -11.00071623 20.57256218 22.67235734 -0.00120294 -0.00018400 -0.00069686
C -3.50862372 22.20463149 23.34693306 0.00735263 -0.00277618 -0.00096698
C 2.23845932 26.97900833 19.38600315 -0.00072974 0.00500762 -0.00389556
C -4.13991756 26.13707976 19.61016959 -0.00148716 0.00142409 0.00817454
C -10.14073602 21.59146209 22.98802070 -0.00048555 -0.00321651 -0.00261605
C 8.18717740 21.32613268 0.03470393 0.00030366 0.00845699 0.00665251
C 2.45457784 26.08908495 18.34466309 0.00893657 0.01026913 -0.00081813
C -3.92094165 26.96157932 18.49779139 -0.00215279 -0.00704485 -0.00036949
C -10.37661417 22.48876942 23.98420660 -0.00106172 0.00491471 0.00125851
C -2.05568368 21.46055973 18.90579692 -0.00441355 -0.00551018 0.00740420
C 0.64777168 26.19544973 23.72301111 -0.00254018 -0.00168204 0.00266037
C -5.52543229 27.18679885 23.88907020 -0.00137960 -0.00291626 0.00308691
C -8.88588700 22.37489190 18.53979845 0.00430949 -0.00849948 0.00156763
C -3.05670965 22.33896710 18.54819144 0.00528917 0.00361716 -0.00199382
C -11.42632707 26.94566398 24.09319412 -0.00056235 0.00618488 -0.00196783
C -4.64248955 26.20782256 24.25202488 -0.00227069 0.00398872 -0.00117998
C 3.38445939 20.95996559 18.57010399 -0.00311494 0.00320971 -0.00384862
C -7.01753924 24.26132107 21.63511787 0.00290875 0.00015821 -0.00358967
C -7.56796606 19.66771323 20.82879369 -0.00524391 0.00390778 -0.00388126
C -0.69868384 23.78801625 20.89136415 0.00906125 0.00254439 0.00120373
C -0.65880456 28.85575780 21.78231973 -0.00463804 -0.00342757 -0.00338741
C -8.37914819 24.84500474 21.27167401 -0.00328014 -0.00041809 -0.00450312
C -6.52599325 20.64837977 21.13656431 -0.00425915 0.00456723 0.00206785
C 0.32221116 22.72258672 21.18168137 0.00436837 0.00029573 0.00229319
C -1.80696031 28.08555873 21.39754172 0.00059969 0.00335754 0.00545948
C 16.17054293 3.77702051 5.10486807 0.00429527 0.00289552 0.00177264
C 13.38942179 8.58245775 1.01278051 0.00004685 0.00018135 0.00302406
C 19.82650215 5.83169049 1.05772229 0.00157250 -0.00458170 0.00157788
C 22.91475074 0.97150204 5.20819144 0.00176264 0.00324971 -0.01212324
C 17.34323535 3.69195907 4.36524350 -0.00140398 -0.00224417 0.00633652
C 25.24595642 8.45024461 1.67681318 0.00653120 0.00113103 -0.00487938
C 18.58403051 6.00882110 1.65132720 0.00146973 -0.00306148 0.00041736
C 10.79475539 1.30251945 4.53844747 -0.00534190 0.00203600 0.00011910
C 18.29033728 2.76255463 4.70872727 -0.00496668 -0.00176528 0.00073495
C 24.29593629 7.61921376 1.14197084 -0.00223450 -0.00287619 0.00745891
C 17.62153476 6.80835458 1.15264360 0.00304411 0.00708442 -0.00425764
C 11.81206069 2.11794673 4.88404073 -0.01328775 -0.00903733 0.00423211
C 18.07119252 1.86535381 5.79787388 0.00160190 -0.00506835 0.00096293
C 12.48785000 6.91836118 24.31989254 0.00623203 -0.00685109 0.00502963
C 17.79422929 7.54455274 0.00367459 -0.00307405 -0.00118861 -0.00210529
C 11.67700752 2.89312513 6.06188554 -0.00047657 -0.00380652 -0.00087448
C 19.85363278 1.94649040 0.44284835 -0.00468940 0.00708092 0.00419011
C 22.65337682 6.81420189 5.48329401 0.00396304 0.00478296 -0.00506853
C 16.22479738 7.72570029 5.58966208 -0.00410235 0.00974103 -0.00240023
C 13.38138803 2.84890003 0.67456342 -0.00043830 -0.00123495 -0.00182345
C 18.90597804 2.86561251 0.08534232 -0.00339955 0.00085197 0.00064909
C 10.73543871 7.84660805 6.19031756 0.00117511 0.00890017 -0.00224721
C 17.19480695 6.77764614 5.92109494 0.00312293 0.00405476 0.00823554
C 25.48470196 1.93772358 0.23147178 -0.00562777 -0.00807755 -0.00381989
C 14.75017747 5.01051348 3.57919221 -0.00254811 0.00752363 -0.00180915
C 14.72102727 0.37483405 2.54391886 -0.00478655 0.00516285 0.01224611
C 21.01136666 4.37274287 2.51691390 0.00963311 -0.00505163 0.00191996
C 21.45131202 9.39915187 3.49096455 -0.00337407 0.00737300 -0.00165990
C 13.48681340 5.83778702 3.48874958 -0.00242435 -0.00255722 -0.00148837
C 16.01216483 1.05765404 2.75421663 -0.00103290 -0.00061558 0.00065538
C 22.15736915 3.36041450 2.68180855 0.00131189 -0.00246517 -0.00139141