2880
Time=43000.00000003 pbc="T T T" Lattice="39.24623034 0.00000000 0.00000000 0.00000000 28.87262423 0.00000000 -12.02743115 0.00000000 24.39940098" energy=-18397.03851104 virial="2.80371455 10.57923628 4.87944897 10.57923628 22.96631576 -23.40178881 4.87944897 -23.40178881 -18.83974205" stress="0.00264940 0.00032972 0.00020317 0.00032972 0.00333616 -0.00081716 0.00020317 -0.00081716 0.00179574" Properties=species:S:1:pos:R:3:vel:R:3
C 3.23349341 3.87594555 5.05995500 -0.00875121 -0.00054359 0.00372871
C 0.33918078 8.34976327 0.83447802 0.00085985 -0.00033044 -0.00257032
C 6.84670076 5.84270807 1.02623473 -0.00136901 -0.00207027 0.00339972
C 9.76717974 1.31091834 5.19246199 -0.00255693 0.00414813 0.00027013
C 4.45404510 3.76854362 4.37839608 -0.00554088 -0.00062563 0.00603517
C 12.07675480 8.30824746 1.56342754 0.00174472 0.00241893 -0.00606538
C 5.70055762 6.09373530 1.75419756 0.00368732 0.00160532 -0.00730339
C 36.97617703 1.40856792 4.38128920 -0.00428998 -0.00215189 0.00407253
C 5.33305338 2.83035528 4.88116399 0.00424240 -0.00546615 0.00395285
C 11.12306934 7.54607485 1.02279000 0.00111381 0.00085187 -0.00225148
C 4.81124368 7.09377638 1.32999841 0.00897508 0.00663305 0.00454680
C -1.21564543 2.21101553 4.86962290 -0.00212410 -0.00332799 0.00476591
C 5.13630742 1.98286392 6.06158305 0.00016555 0.00285924 0.00241475
C -0.73631766 6.78955714 24.21374801 0.00600641 0.00133489 -0.00056497
C 4.94162045 7.67894978 0.08352401 0.00762165 0.00276677 0.00698861
C -1.38803189 3.07534490 5.91189925 -0.00357191 0.00015981 -0.00083646
C 6.87779631 1.93241077 0.59079162 0.00226931 -0.00166398 -0.00192905
C 9.54288294 6.99182807 5.53410411 0.00534040 0.00241686 -0.00200734
C 3.31138641 7.77404444 5.69255930 -0.00406268 -0.00360937 -0.00138555
C 0.40526751 2.83001618 0.53793020 0.00283392 0.00022658 -0.00094878
C 5.84467234 2.78947556 0.11751089 0.00377831 -0.00482607 -0.00363516
C -2.33249968 7.76872932 5.88037910 0.00164706 0.00085349 -0.00235610
C 4.14464874 6.77642864 5.97693955 0.00106862 -0.00475336 -0.00157153
C 12.32670779 1.85193029 0.03422594 -0.00267379 -0.00021580 -0.00017767
C 1.98664959 5.24105198 3.53986863 0.00164971 -0.00096633 -0.00514198
C 1.69260397 0.26180197 2.46237004 -0.00157689 -0.00752893 -0.00750075
C 8.01687647 4.52348771 2.61249758 0.00116358 -0.00031469 0.00419321
C 8.42060645 9.42176465 3.48674701 -0.00007533 0.01371194 0.00263236
C 0.60268830 5.78486451 3.36171873 -0.00399423 0.00451497 -0.00218224
C 2.97923790 1.05878732 2.59733577 0.00212363 0.00134129 -0.00107859
C 9.17863478 3.50143270 2.87625485 -0.00107522 -0.00470537 -0.00431711
C 7.20633044 8.63304707 3.24930954 -0.00023765 -0.00507619 0.00059471
C 0.10080016 3.64167806 11.16176546 0.00376775 0.00196661 0.00095540
C -2.54571734 8.57047225 7.04033143 0.00737007 0.00142923 -0.00538305
C 3.91563455 5.95260017 7.11626330 0.00874763 -0.00396339 -0.00652932
C 6.72951807 1.33012760 11.16845602 -0.00577087 -0.00088068 0.00051204
C 1.28754587 3.47313768 10.43895731 0.00364380 0.00346608 0.00558762
C 9.27263163 8.64255355 7.75545790 0.00515372 -0.00174892 -0.00284830
C 2.66344653 6.07225573 7.73707033 0.00476933 -0.00044042 -0.00643843
C 34.11533995 1.21940700 10.35794393 0.00614653 -0.00491313 0.00856836
C 2.28581858 2.58992273 10.82308317 -0.00322935 0.00290543 0.00184711
C 8.19278019 7.86783972 7.33017664 -0.00238110 0.00262680 -0.00755481
C 1.68046146 6.96302691 7.25951346 0.00065637 0.00084628 -0.00279297
C -4.24122847 2.23491029 10.72173767 0.00055440 0.00076615 0.00413408
C 2.10004062 1.71995172 11.95007721 -0.00164747 0.00450008 -0.00665966
C 8.27174191 7.01077928 6.19928268 -0.00371589 0.00460859 0.00386315
C 2.01336095 7.91411983 6.30185220 0.00433864 -0.00222692 0.00373308
C -4.43995632 3.04818236 11.90841936 0.00322545 -0.00104925 0.00152700
C 3.83274540 1.99932486 6.60153853 0.00694829 -0.00110818 0.00800705
C 6.75984196 6.68606208 11.73320693 0.00173627 0.00478977 0.00670587
C 0.17794905 7.43521926 11.53324928 0.00551408 0.00876221 -0.00441391
C -2.58282852 2.92662369 6.70776826 0.00288702 -0.00404540 0.00026651
C 2.96648588 2.93473073 6.08958304 0.00444272 -0.00125463 -0.01156807
C -5.10021427 7.93911725 11.88853719 0.00455329 -0.00523167 0.00281157
C 1.08306997 6.44816911 11.95472579 -0.00232514 -0.00375865 0.00968215
C 9.60852836 2.15416957 6.31161121 -0.00169480 -0.00007325 -0.00039641
C -1.00617880 5.13584357 9.57115503 0.00410331 0.00310623 -0.00104293
C -1.22535685 0.29954238 8.56799169 0.00434851 -0.00349095 -0.00733939
C 5.13529812 4.60475350 8.72548544 -0.00276383 0.00135015 -0.00030513
C 5.49193768 9.24553556 9.87131502 0.00517271 -0.00083224 0.00294937
C -2.38508992 5.65704211 9.26421195 -0.00478186 -0.00346538 -0.00849138
C -0.07316532 1.25272970 8.88889280 0.00360199 -0.00396641 0.00210428
C 6.31178293 3.70360976 8.99755113 -0.00294051 -0.00790261 0.00229136
C 4.44867550 8.17192026 9.84690461 -0.00692084 0.00093890 -0.00241751
C -2.95939619 3.53783869 17.25697632 -0.00142707 -0.00052627 0.00377016
C -5.35896821 8.75551527 12.97422402 -0.00552097 -0.00571724 0.00197453
C 0.91215299 5.75354336 13.20547002 -0.00283956 0.00478105 -0.00122617
C 3.52886762 1.10939737 17.28004918 -0.00211230 -0.00128806 -0.00117395
C -1.67325685 3.55024186 16.66373487 0.00100932 0.00184738 -0.00472442
C 6.23393932 8.33944205 13.94008296 -0.00296823 0.00368329 -0.00030980
C -0.27321230 5.86397150 13.87080048 -0.00327441 0.00102493 0.00193521
C 30.98133188 1.28104237 16.37235539 -0.00348649 -0.00242946 0.00402475
C -0.71129525 2.64424967 17.01656732 -0.00178542 -0.00091963 0.00324755
C 5.31549270 7.43728433 13.48760641 -0.00065030 -0.00549357 0.00363171
C -1.25692893 6.68423031 13.35972966 -0.01060859 0.00101855 0.00466233
C -7.32373851 2.16914589 16.87187976 -0.00056616 -0.00191183 0.00552453
C -0.87317346 1.78147371 18.06451053 -0.00146374 -0.00346786 0.00227159
C 5.57149078 6.53794330 12.39840898 -0.00285863 0.00294264 0.00901180
C -1.06350131 7.49796529 12.24251234 0.00249861 -0.01078455 0.00274087
C -7.73076765 2.98297578 17.95424084 0.00153474 0.00681185 -0.00272760
C 0.90864364 1.86638578 12.62767036 0.00219073 0.00259263 0.00154772
C 3.82015895 6.43120109 17.90015218 -0.00705612 -0.00058280 0.00395627
C -2.82973713 7.56356011 17.58982978 -0.00214200 0.00219663 0.00017374
C -5.64679813 2.72921105 12.64960233 0.00214604 -0.00069085 0.00674270
C -0.03998365 2.86799306 12.34015816 0.00636646 -0.00811400 0.00123875
C -8.13464990 8.11600761 18.03990756 0.00235289 -0.00738475 -0.00292665
C -1.91439054 6.66938347 18.08436689 -0.00758326 -0.00561168 0.00044279
C 6.48376513 2.14326076 12.25878667 -0.00173856 0.01462840 0.00160016
C -4.32334010 5.17392787 15.90048494 -0.00329421 0.00673719 0.00174122
C -4.49528749 0.13565481 14.61493115 0.00217964 0.00029002 0.00394625
C 2.04490289 4.35265275 14.79322354 0.00209557 -0.00081854 -0.00467393
C 2.28289232 9.08035314 16.00145895 -0.00514872 -0.00340166 -0.00061691
C -5.48113916 6.17294746 16.03238783 -0.00306305 0.00021336 -0.00421157
C -3.21792316 0.93421622 14.80507171 -0.00421920 -0.00308007 0.00624646
C 3.16801613 3.34758674 15.14531358 -0.00869105 -0.00129492 -0.00199845
C 1.04780649 8.23759339 15.84000078 0.00086343 -0.00103954 -0.00078310
C -5.87136552 3.59463146 23.40322552 -0.00505498 -0.00214697 0.00319837
C -8.36234170 8.84660666 19.22445612 -0.00305323 0.00206603 0.00146196
C -2.24674397 5.92460132 19.28241492 0.00179998 -0.00566242 0.00960988
C 0.54668720 1.08974850 23.31532600 -0.00367950 -0.00101996 0.00100273
C -4.68471005 3.53381936 22.70703764 0.00392087 0.00348914 -0.00927840
C 3.24642210 8.23722495 19.91426343 0.00227401 -0.00570894 -0.00573942
C -3.45380810 6.19861433 19.94027327 0.00680381 -0.00104093 -0.00024938
C -11.11671679 1.27932079 22.68046812 -0.00346327 -0.00358013 0.00498070
C -3.73107745 2.62485957 23.13740805 0.00060579 -0.00406794 0.00281899
C 2.35231029 7.25396248 19.60180873 0.00618581 -0.00040387 0.00082388
C -4.33032216 7.10114106 19.41276343 -0.00072808 0.00038659 0.00059119
C -10.15806724 2.17032515 23.06303709 -0.00934589 -0.00461890 0.00025018
C -3.93730597 1.84763309 24.31127318 -0.00086198 -0.00467106 -0.00451076
C 2.61480492 6.36859312 18.56806744 0.00582554 -0.00029617 -0.00444766
C -4.05073379 7.87293453 18.28667716 0.00067075 0.00064589 -0.00198905
C -10.40212984 2.94397860 24.23974212 0.00378308 0.00777976 0.00515831
C -2.18953265 1.68991193 18.60664871 0.00319133 0.00659642 0.00368236
C 0.58530568 6.83180687 23.63259572 -0.00397412 0.00149010 -0.00692356
C -5.94059889 7.44740345 23.73124389 0.00721011 -0.00766856 -0.00300587
C -8.93350668 2.80633552 18.62590253 0.00592127 0.00530790 -0.00062090
C -3.18882730 2.51798714 18.18436651 0.00587961 -0.00258707 0.00219208
C -11.49582082 7.49017847 24.19823280 0.00110607 -0.00190076 0.00115584
C -4.98847898 6.59275621 24.18490660 0.00421150 -0.00063176 -0.00218622
C 3.31539991 1.91677386 18.40889904 0.00303899 -0.00420043 0.00126413
C -6.95430705 5.04486010 21.77216397 0.00538981 0.00051592 -0.00460156
C -7.60353957 0.36998112 20.65128118 0.00947138 -0.00033970 -0.00088435
C -1.21355606 4.39418663 20.83079535 -0.00277820 0.00675780 -0.00014631
C -0.55925180 9.29794173 21.70635723 -0.00006720 -0.00307918 0.00141934
C -8.10448255 5.97035468 21.52274965 0.00189946 0.00758123 -0.00361183
C -6.46313081 1.41544231 20.77965936 -0.00125072 -0.00480598 -0.00448252
C 0.08150012 3.73281462 21.28827256 0.00308086 -0.00000608 0.00005890
C -1.91899009 8.64684283 21.47211378 -0.00249141 0.00293135 -0.00023033
C 2.87932151 13.31506141 5.13625909 -0.00410754 -0.00502747 0.00259118
C 0.32763850 18.05371002 1.01517373 0.01262321 0.00086995 -0.00134754
C 7.11916388 15.62877212 1.16090390 -0.00223033 0.00062406 0.00151850
C 9.52081972 10.83384742 5.07783725 0.00924923 0.00362535 -0.00387341
C 4.06279132 13.24696212 4.38609838 -0.00188684 0.00539731 -0.00139378
C 12.43635777 18.15135735 1.75140443 -0.00215275 0.01037214 0.00307263
C 5.90282665 15.89861633 1.78009206 0.00599801 -0.00157907 0.00206795
C -2.12415706 11.20993571 4.44765135 0.00890729 -0.00408799 0.00606334
C 5.01702427 12.33732473 4.71199083 -0.00293985 -0.00388234 0.00026344
C 11.38650707 17.33972300 1.42145700 -0.00419599 0.00307686 -0.00913301
C 5.06143465 16.85504674 1.38232030 -0.00285178 0.00283114 0.00205295
C -1.21763728 12.18017047 4.94279345 0.00140829 0.00067287 0.00395041
C 4.84031450 11.44864108 5.78935966 -0.00572540 -0.00148371 0.00154735
C 11.56735655 16.39529825 0.34634046 -0.00204141 -0.00586946 0.00140201
C 5.27105752 17.43213377 0.13714210 0.00446255 -0.00139015 -0.00864772
C -1.42350404 12.78823935 6.19443155 -0.00064362 0.00287644 0.00454287
C 7.01000606 11.55192314 0.56760422 -0.00245270 -0.00377650 0.00900613
C 9.70957814 16.37818218 5.86920251 0.00363984 -0.00249455 -0.00163666
C 3.31603533 17.20295545 5.72710161 -0.00081003 -0.00394068 -0.01223031
C 0.31767102 12.26240439 0.49907346 -0.00124576 0.00422129 -0.00233888
C 6.04121559 12.48495926 0.26424229 0.00638853 0.00191776 -0.00112608
C -2.52931778 17.34033990 6.02306001 0.00607699 0.00395511 0.00047795
C 4.21477372 16.19846648 6.06400078 -0.01061759 -0.00210382 0.00494259
C 0.52317015 11.47970225 24.35315356 -0.00238527 -0.00627475 0.00018251
C 1.63236128 14.71412033 3.58159868 0.00484338 0.00155850 -0.00684212
C 1.50084844 9.80010544 2.41770762 -0.00122700 0.00281337 -0.00151394
C 8.07707197 14.19152192 2.89460505 -0.00398760 0.00150392 0.00516775
C 8.80055765 19.03607990 3.50467652 -0.00051040 -0.00045644 0.00187806
C 0.43412518 15.55277310 3.43578334 0.00013713 -0.00044641 0.00100039
C 2.76634634 10.70550443 2.52073916 -0.00589506 0.00427120 0.00448263
C 9.29922510 13.39427769 3.23965815 -0.00012126 -0.00654306 0.00214912
C 7.66095841 18.01093535 3.32194402 0.00209218 0.00526786 0.00678631
C 0.07829479 13.22344474 11.24493455 -0.00188960 0.00100495 -0.00184111
C -2.73452075 18.12299700 7.16455831 0.00110142 0.00643861 -0.00119316
C 3.84594496 15.35801212 7.14606756 -0.00671542 0.00340936 -0.00512767
C 6.71283510 10.63722282 11.34700326 0.00432681 -0.00347661 0.00130134
C 1.33758596 13.11905795 10.60014733 0.00026518 -0.00828164 -0.00224304
C 9.25721086 18.37762724 7.63074696 -0.00133187 0.00288052 -0.00063312
C 2.65452890 15.62626958 7.87001704 0.00262989 0.00070842 -0.00517482
C -5.14273296 10.82961309 10.54049865 -0.00022108 0.00100164 0.00102560
C 2.17917230 12.12183110 10.95969319 0.00489682 -0.00138653 0.00384297
C 8.22480279 17.56608655 7.29403690 0.00364117 -0.00054328 0.00749444
C 1.72377357 16.55586886 7.43057200 -0.00259820 -0.00305638 0.00216535
C -4.15016868 11.66185660 11.01079570 -0.00994001 -0.00303115 0.00772022
C 1.96577014 11.36060743 12.14262595 -0.00137305 0.00181348 0.00428500
C 8.40406165 16.60327835 6.32303418 0.00093164 -0.01279834 -0.00021334
C 2.08111689 17.40537633 6.38128017 -0.00334465 -0.00084600 0.00181813
C -4.40612260 12.47228754 12.11937819 0.00227354 -0.00950493 -0.00563462
C 3.56182692 11.39702132 6.40880760 0.00372363 0.00370506 0.00239756
C 6.66372371 16.46004455 11.27269889 -0.00315292 -0.00291035 0.00189201
C 0.12261196 17.08128307 11.69173167 0.00318123 0.00161393 0.00441364
C -2.68523301 12.52779519 6.80942464 -0.00139879 0.00202723 -0.00564662
C 2.64804434 12.37014865 6.11552655 0.00409377 -0.00050880 -0.00860610
C -5.49925458 17.08918425 11.90825318 -0.00124047 0.00267032 0.00223468
C 1.08297304 16.16286007 12.10835990 -0.00154768 -0.00567587 0.00426663
C 9.33174055 11.64511094 6.23070430 0.00097280 -0.00757106 0.00250755
C -0.97128107 14.91261453 9.83150883 0.00428899 -0.00151001 -0.00177125
C -1.35672454 9.77147860 8.73212543 0.00118374 0.00212076 0.00191741
C 4.71750151 13.73398415 8.70337528 0.00804760 -0.00534511 0.00140075
C 5.41160134 19.21546408 9.49613185 -0.00792380 -0.00225581 -0.00397821
C -2.15319860 15.80572837 9.73223373 -0.00099193 -0.00742636 -0.00016837
C -0.17484990 10.60720530 8.94605338 0.00526174 -0.00668264 -0.00139394
C 5.75098292 12.70064988 8.86005905 -0.00627917 0.00100492 0.00502029
C 4.20386503 18.36407255 9.15303311 0.00176678 -0.00607877 -0.00408642
C -2.57753696 13.33432687 17.50127228 -0.01099871 0.00637908 -0.00798920
C -5.68250645 17.98093177 12.95813319 0.01178539 0.00045479 0.00072785
C 0.88091884 15.37258179 13.24246096 -0.00367282 0.00236730 -0.00688399
C 3.50289506 10.46897285 17.50800779 -0.00036644 0.00134570 0.00430707
C -1.28645530 13.26104064 16.95879902 -0.00088870 0.00310303 -0.00125653
C 6.20059648 17.87539305 13.63662244 -0.00067544 0.00288853 -0.00923156
C -0.28781092 15.46118640 13.93310383 0.00352703 0.00096458 0.00691103
C 30.92488268 11.07421339 16.42016723 -0.00258535 0.00151958 0.00037421
C -0.41819619 12.31379547 17.47345474 0.00437706 -0.00621491 -0.00670234
C 5.28063262 16.96157478 13.17590703 0.00354389 -0.00422898 0.00161099
C -1.26041033 16.37455869 13.53280409 0.00241679 0.00300382 0.00046652
C -7.32476840 11.96122659 16.71756995 0.00455478 0.00500644 -0.00568907
C -0.78884035 11.46921134 18.58612599 -0.00093981 -0.00315057 -0.00182642
C 5.49270131 16.22937695 11.97597578 -0.00178710 0.00418792 0.00150426
C -0.99939945 17.24815321 12.45249687 0.00098054 -0.00175458 -0.00318269
C -7.35006879 12.73680285 17.90187872 -0.00088382 -0.00035070 -0.00379859
C 0.77736010 11.53375487 12.79841257 0.00198736 -0.00245478 0.00092352
C 3.64268981 16.59510829 17.93557504 -0.00139834 -0.00620545 -0.00446724
C -2.98156559 17.19294162 17.69407445 -0.00889626 0.00434432 0.00376100
C -5.70261841 12.47756089 12.65690081 0.00230795 -0.00272121 0.00184189
C -0.18543242 12.41217569 12.34615943 0.00135647 0.00501101 0.00491772
C -8.30791814 17.11542879 18.04228582 0.00309379 -0.00354591 -0.00578595
C -1.93603967 16.49613194 18.21135260 0.00430966 -0.00009487 0.00064537
C 6.52598270 11.53013264 12.43443828 0.00113129 -0.00038556 -0.00622903
C -3.68949332 14.57442425 15.79337426 -0.00116176 0.00038369 0.00066451
C -4.37157426 9.99265511 14.75528028 0.00063303 0.00094354 0.00380373
C 2.27684933 14.08820683 14.87444657 -0.00366694 0.00402752 0.00672548
C 2.62564335 19.05107289 15.58836897 0.00006865 -0.00147058 -0.00122760
C -4.87604679 15.39514996 15.54701494 -0.00284791 -0.00428093 -0.00019596
C -3.09112145 10.65460451 15.24377527 -0.00009974 0.00387882 0.00266323
C 3.55977292 13.43537756 15.05438092 0.00347568 -0.00143607 0.00475590
C 1.40089526 18.18296976 15.43699368 -0.00025736 -0.00490742 0.00124259
C -5.72917492 13.46824671 23.72279988 0.00388934 -0.00173034 -0.00046862
C -8.59295842 17.82013665 19.21792478 -0.00054728 0.00442537 0.00493371
C -2.08891462 15.75646868 19.44189307 -0.00020146 0.00012220 0.00577792
C 0.67690430 10.63952934 23.26223560 -0.00422305 -0.00097212 0.00996266
C -4.55426116 13.45132184 22.97586998 -0.00804124 -0.00438015 0.00072629
C 3.23519739 18.34139587 19.99396228 -0.00348268 -0.00548461 0.00083030
C -3.34104199 15.81363909 20.09545418 -0.00380572 0.00016559 -0.00461532
C 28.00829043 10.72439792 22.60000501 0.00236351 0.00073658 0.00798439
C -3.60072833 12.51500629 23.25167103 0.00121721 -0.00826604 0.00529775
C 2.23707846 17.40936124 19.69725532 0.00076991 -0.00181728 -0.00552515
C -4.26212923 16.77270523 19.66936287 -0.00227063 -0.01134709 0.00480279
C -10.31019558 11.67776863 23.06255171 -0.00488701 -0.00276541 0.00035387
C -3.75077276 11.55014405 24.27058613 0.00129525 -0.00634810 -0.00452927
C 2.41424344 16.54553124 18.65645117 -0.01162505 0.00165553 -0.00162024
C -4.15676904 17.39933079 18.44501382 0.00175037 0.00115208 -0.00380418
C -10.48915031 12.44599939 24.24354813 -0.00999185 -0.00117837 0.00091919
C -2.06800239 11.69232476 19.17812425 0.00114161 0.00712302 -0.00841011
C 0.77660943 16.47021276 24.00956221 0.00168266 0.00020789 0.00094555
C -5.40372934 17.27307257 23.90907910 -0.00831983 -0.00122030 -0.00178078
C -8.60663665 12.84325104 18.60335595 -0.00064239 0.01055607 0.00497370
C -2.94957185 12.62244982 18.64611182 -0.00551873 0.00748766 -0.00150486
C -11.51497812 17.16266493 24.33279574 0.00274162 0.01323352 0.00456983
C 7.48121169 16.32424907 0.02073496 -0.01600870 0.00124361 -0.00371757
C 3.31453263 11.44645398 18.49685613 0.00116555 0.00100236 -0.00974962
C -7.05605262 14.73914425 22.06544029 -0.00399376 0.01041356 -0.00174799
C -7.41639702 10.22679589 20.86707214 -0.00350095 0.00399132 -0.00080989
C -0.94649669 14.38723470 21.08224901 0.00939398 0.00041348 -0.00243962
C -0.50537192 19.14996446 21.95685241 0.00123616 -0.00512421 -0.00053296
C -8.38861593 15.46879085 21.92752532 0.00295950 0.00933093 -0.00653859
C -6.21467714 11.08728552 20.98562439 -0.00472996 -0.00781103 -0.00375113
C 0.23479066 13.38608570 21.12789263 0.00044565 0.00310114 -0.00511934
C -1.56023673 18.05125447 21.78017377 -0.00051684 0.00585759 -0.00034812
C 3.33358728 22.67560520 4.97784705 -0.00646852 0.00087021 0.00283200
C 0.55562171 27.73503480 0.89342406 0.00284259 -0.00017341 0.00165084
C 6.91476195 25.09117595 0.89433762 -0.00548066 0.00116047 -0.00663702
C 9.80294469 20.59598158 4.96953938 -0.00298464 -0.00435192 0.00461151
C 4.52846447 22.62411559 4.26355416 -0.00567699 -0.00205307 0.00228860
C 12.32199933 27.79955883 1.59938183 0.00399981 -0.00717898 0.00583090
C 5.68744855 25.32172746 1.54777305 -0.00301984 -0.00133381 -0.00393333
C -1.99298661 20.74750736 4.34508371 0.00332115 -0.00291112 0.00415280
C 5.54799589 21.74915442 4.61693350 -0.00461724 -0.00918532 -0.00267154
C 11.32435801 27.08584449 1.05007482 0.00093932 -0.00026937 0.00703782
C 4.81953316 26.28054052 1.09778625 -0.00055789 0.00112031 0.00117767
C -1.07781375 21.73404308 4.66760368 -0.00453818 0.00193891 0.00284577
C 5.39117501 20.88278727 5.74705214 0.00104150 0.00310095 0.00593283
C 11.51938616 26.10506225 0.02679947 -0.00318168 0.00273860 0.00576537
C -6.92663628 26.97073675 24.34870275 -0.00619681 -0.00578508 0.00223633
C -1.24476090 22.57022508 5.77915311 0.00022572 0.00250862 0.00520096
C 6.90175273 21.27937472 0.35327044 0.00022740 -0.00300311 0.00781876
C 9.63336288 26.26208165 5.46237234 -0.00272680 -0.00282463 0.00142974
C 2.89745325 26.75151172 5.21203096 -0.00601445 -0.00046829 0.01125440
C 0.35907693 21.99008304 0.55111720 -0.00438972 -0.00035331 -0.00527612
C -6.18898947 22.09487157 24.37267891 -0.00215343 0.00020272 -0.00153159
C -2.29795847 27.26415511 5.74426476 0.00542650 -0.00361343 -0.00184807
C 3.89557191 25.82618453 5.58723686 -0.00356053 -0.00060976 0.00000942
C 12.51618953 21.42340914 0.21822538 -0.00451948 0.00235877 -0.00606356
C 2.12638101 24.07100880 3.43055775 -0.00616801 -0.00778582 -0.00950660
C 1.65707779 19.41973354 2.53282112 -0.00592757 -0.00322715 0.00430230
C 8.16123229 23.82597659 2.54799790 -0.00260922 0.00675522 -0.00291965
C 8.48155279 28.70000207 3.65229316 0.00227243 0.00110243 -0.00489831
C 0.84121901 24.84372141 3.14717513 -0.00147890 -0.00442643 -0.00054822
C 2.78081937 20.44213460 2.66127256 -0.00113818 0.00106760 0.00070997
C 9.46942127 23.29741546 2.97689247 -0.00061325 -0.00036183 -0.00037147
C 7.15625866 28.00649890 3.43462269 0.00500029 0.00760894 0.00337402
C 0.14951099 22.92760777 11.30881120 0.00007254 -0.00998999 -0.00247947
C -2.43352761 27.97979951 6.92215988 0.00671565 -0.00181989 0.00326323
C 3.77260479 25.21232649 6.81559047 0.00197426 0.00261170 -0.00072604
C 6.66666877 20.42306486 11.12491323 -0.00109048 0.00068545 -0.00276218
C 1.28809235 22.77437335 10.53961552 -0.00165701 0.00169081 -0.00270126
C 9.21030652 27.49183825 7.91793676 0.00011663 0.00646633 -0.00753516
C 2.67694255 25.36088953 7.65833220 -0.00303290 0.00021365 0.00468666
C -5.15932348 20.39185312 10.48719551 -0.00655091 -0.00408771 -0.00198684
C 2.35777100 21.96636635 10.94676124 -0.00081289 -0.00428162 0.00162990
C 8.22443339 26.73060165 7.39185594 0.00102083 -0.00264654 -0.00435221
C 1.66977734 26.19091567 7.22307842 -0.00460732 0.00150241 0.00823764
C -4.25843028 21.31412104 10.97627978 -0.00329020 -0.00323354 0.00553947
C 2.26845711 21.22877204 12.12860601 -0.00262579 -0.00540828 -0.00217876
C 8.41688116 26.10718523 6.12815018 0.00404411 -0.00219268 0.00322946
C 1.82491835 26.98389651 6.07004957 0.00311598 0.00200696 0.00367228
C -4.40172019 22.04210892 12.15518113 -0.00043393 0.00626703 0.00090159
C 4.28171083 21.15911783 6.57640705 -0.00245085 0.00972057 0.00729850
C 6.77874991 26.13120372 11.71337907 -0.00023390 0.01206202 0.00044773
C 0.16516778 26.89545495 11.58460093 -0.00370190 0.00743544 -0.00671410
C -2.42356246 22.38078490 6.54922024 -0.00206036 0.00976503 0.00004031
C 3.23488406 21.86921040 6.15767186 -0.00295799 -0.00099168 0.00533907
C -5.56236011 26.87333106 11.95296265 0.01170777 0.00274362 0.00279360
C 1.15914762 26.08025629 11.91757834 -0.00168042 0.00133044 0.00435271
C 9.57426599 21.46426827 6.05466412 -0.00045952 -0.00278689 0.00516941
C -1.20452451 24.16203053 9.69093867 0.00076167 -0.00413338 0.00157602
C -1.54938814 19.62670613 8.67993450 0.00203908 0.00318228 0.00478591
C 4.96379482 23.90600045 8.43771784 0.00935131 -0.00084888 0.00268541
C 5.64583321 28.68336435 9.58661425 -0.00194584 -0.01464422 0.00085455
C -2.57303741 24.73195863 9.56015713 0.00250626 0.00267724 -0.00042558
C -0.48134364 20.64500005 8.78435368 -0.00833625 0.00268344 -0.00164129
C 5.99973546 22.86242305 8.75001530 0.00340357 0.00434730 0.01233188
C 4.43377159 27.86444750 9.37209924 -0.00127860 -0.00429216 -0.00792478
C -2.81897256 22.96498024 17.28272661 -0.00109414 0.00328248 -0.00609876
C -5.74622470 27.63928155 13.08102959 -0.00515750 0.00243921 -0.00310097
C 0.94631918 25.21948157 13.01803636 -0.00243958 0.00404138 0.00137132
C 3.63610398 20.60478405 17.10003560 0.00506524 0.00114754 -0.00263694
C -1.60498567 22.92794553 16.62661604 0.00064439 -0.00141455 -0.00091331
C 6.25400403 27.81370341 13.82309317 0.00148242 -0.00011242 0.00468900
C -0.26598196 25.14448211 13.70524660 0.00159310 0.00432503 0.00374872
C -8.00563198 20.29046501 16.70448760 -0.00220283 0.00652762 0.00226303
C -0.56837670 22.18423504 17.15622258 0.00369007 -0.00318245 0.00003057
C 5.30591551 26.98460626 13.37503265 0.00370302 -0.00067737 -0.00211667
C -1.27607128 25.98828115 13.25196154 -0.00018470 -0.00133529 -0.00784431
C -7.08576961 21.10170808 17.24519627 -0.00361777 -0.00127179 -0.00038355
C -0.77375525 21.27502113 18.23774688 -0.00707949 0.00106021 0.00323930
C 5.50301515 26.12762639 12.23742824 -0.00198435 -0.00960354 -0.00411291
C -1.15067381 26.81207358 12.15109937 0.00098061 0.00620189 0.00568878
C -7.30924991 21.95788914 18.34804361 -0.00403692 -0.00451115 0.00350090
C 1.08362535 21.39903302 12.92587957 0.00245537 -0.00192111 -0.00649900
C 3.79272055 26.17099898 17.67339587 -0.00300327 0.00327646 -0.00065704
C -3.13380044 26.77128022 17.47916204 -0.00348268 -0.00019696 -0.00246399
C -5.65792938 21.83908278 12.77919454 0.00459010 -0.00076087 -0.00024439
C 0.01211299 22.11763980 12.43068131 0.00221283 0.00065269 -0.00415334
C -8.51163712 26.77053039 18.08048760 -0.00536913 0.00538309 -0.00718507
C -2.03721312 26.14717674 18.03520782 0.00502873 0.00279080 -0.00116132
C 6.42980239 21.23219501 12.27654829 0.01455015 0.00089910 -0.00324460
C -4.08962340 24.28419182 15.67577582 -0.00013152 -0.00954923 -0.00539687
C -4.53553896 19.35095272 14.69368602 0.00115574 -0.00499458 0.00722770
C 2.17800485 23.93490592 14.57830797 -0.00687322 0.00095638 0.00090653
C 2.47235279 28.59707590 15.66826837 0.00199107 -0.00360285 0.00510947
C -5.29079801 25.16286963 15.38693752 -0.00061155 -0.00339596 0.00272964
C -3.28829029 20.21397594 14.89791499 -0.00462381 0.00632383 0.00173214
C 3.48762095 23.28457499 14.77956360 -0.00537439 0.00412065 0.00556621
C 1.23807485 27.82340172 15.48698195 0.00113454 -0.00112790 0.00202800
C -5.95496232 22.95625296 23.32783896 0.00026496 0.00572760 0.00254348
C -8.74189130 27.67466116 19.11985857 0.00165187 -0.00281933 0.00107181
C -2.17666545 25.29859306 19.13213223 -0.00189375 -0.00602141 0.00233347
C 0.70201302 20.44239062 23.56755223 -0.00284636 0.00048779 -0.00180289
C -4.70443306 22.88453682 22.59391023 0.00080218 0.00044651 -0.00131739
C 3.29701727 27.52377000 20.08229459 -0.00817143 -0.01525170 -0.00575312
C -3.44321683 25.29957129 19.82057673 0.00252200 0.00110899 -0.00207610
C 27.97911322 20.36137178 22.76363010 -0.00691901 0.00112700 0.00016139
C -3.71650145 22.10130943 23.00845843 0.00222047 0.00076217 -0.00098173
C 2.36917490 26.59360019 19.61224832 0.00778059 0.00395642 -0.00307816
C -4.51168445 26.02590344 19.35880589 0.00428134 -0.00195916 0.00138782
C -10.31129399 21.26109514 23.07815195 -0.00075278 0.00411898 -0.00608528
C -3.83712129 21.26048837 24.13953475 0.00083914 0.00460085 -0.00049002
C 2.56555278 25.89695962 18.38657666 0.01121292 -0.00167975 -0.00048710
C -4.34802024 26.84740972 18.23906288 -0.00478897 0.00845352 0.00328022
C -10.46604652 22.04644393 24.22422613 0.00207256 -0.00553235 -0.00449881
C -2.00904008 21.30467198 18.87574133 -0.00234055 -0.00306926 0.00071231
C 0.71897768 26.24931175 23.76048261 0.00495068 0.00630950 -0.00903067
C -5.77880297 26.71138914 23.62980992 0.00040147 0.00010566 0.00009110
C -8.51919941 21.72858792 19.00883835 0.00297584 -0.00052676 0.00109099
C -3.03175020 22.15230963 18.36458393 -0.00565365 -0.00137646 -0.00007840
C -11.36414112 26.96615794 24.11412433 0.00238155 -0.00240556 0.00436333
C -4.80837253 25.91103831 24.20061421 0.00102717 -0.00732702 0.00024945
C 3.45131306 21.34665726 18.29892220 -0.00731613 0.00103234 -0.00541340
C -7.31835544 24.34269089 21.86365930 0.00359947 0.00455784 0.00478128
C -7.54059493 19.30199839 20.83077762 -0.00317081 0.00152573 -0.00157972
C -0.96768369 23.88562660 20.75618629 -0.00032983 0.00702242 -0.00690827
C -0.57891854 28.51540690 21.75764810 -0.00052000 0.00322847 0.00199233
C -8.61908224 25.15022040 21.83919118 0.00051182 0.00291986 -0.00506612
C -6.35546197 20.18811120 21.06753574 -0.00332187 -0.00073882 -0.00071294
C 0.14471521 22.87678578 20.73174018 -0.00367864 0.00718086 -0.00123011
C -1.78110638 27.65157616 21.61131545 -0.00020454 0.00434174 -0.00227237
C 16.21503140 3.86258865 5.28320056 0.00044178 -0.00328126 -0.00136072
C 13.25834928 8.44780085 0.86388485 -0.00005120 -0.00060646 -0.00281912
C 20.00646093 5.95443776 1.15415552 0.00597670 0.00352128 0.00406824
C 22.64655999 1.07060749 5.28079086 0.00633785 0.00031318 -0.00163343
C 17.52773902 3.85125824 4.70345000 -0.00770349 -0.00797553 -0.00064893
C 25.18035944 8.45074553 1.59060422 0.00788504 -0.00635675 -0.00284052
C 18.83107402 6.14633742 1.81635789 0.00397764 0.00805891 -0.00812161
C 10.94947882 1.37622921 4.42401882 0.00324775 0.00090567 -0.00292501
C 18.48753283 3.01311000 5.24956763 0.00617603 -0.00566272 0.00711861
C 24.13196453 7.58809686 1.21150664 -0.00015278 0.00292551 0.00363682
C 17.88039089 7.06864027 1.35792478 -0.00025812 0.00126527 -0.00553034
C 11.94879862 2.28694325 4.78656243 0.00613116 -0.00463654 -0.00969202
C 18.27898918 2.12054705 6.32517199 0.00749836 0.00034430 -0.00447576
C 24.30642444 6.73185500 0.08502016 0.00230769 0.00051599 0.00581325
C 18.00127978 7.78542903 0.20816311 -0.00154153 0.00780185 0.00408704
C 11.68196085 3.25059062 5.75231466 -0.00162987 -0.00282974 0.00333965
C 19.90920454 2.02378034 0.98609638 -0.00098967 0.00507452 0.00152217
C 22.74202140 6.62824560 5.68930487 -0.00561770 -0.00378828 -0.00287865
C 16.31049186 7.91274415 5.70832611 -0.00358328 -0.00772442 -0.00239239
C 13.31616549 2.61059584 0.53343598 -0.00164122 0.00339050 0.00028478
C 18.95112195 2.90469809 0.56818874 -0.00166986 0.00574121 0.00426217
C 10.66240470 7.70907937 5.96872186 -0.00868950 0.01401727 -0.00076649
C 17.33736134 7.11350348 6.09668013 -0.00494606 -0.00006334 -0.00210325
C 25.59631992 1.76717682 0.24007756 0.00139241 0.00889966 0.00730328
C 15.04926865 5.06432261 3.52584486 -0.00346121 -0.00044916 -0.00411697
C 14.57146527 0.53946832 2.42297583 0.00570628 0.00049923 0.00168108
C 21.21280514 4.46381515 2.66240625 -0.00120441 -0.00712809 -0.00853929
C 21.59318850 9.33429893 3.58958404 -0.00153420 0.00438463 -0.00024179
C 13.82261460 5.90205665 3.26635136 0.00469559 0.00180520 0.00409788
C 15.67288945 1.46356676 2.63482735 -0.00696832 0.00567143 0.00045296
C 22.39974960 3.58065256 2.77286311 0.00432656 -0.00006745 0.00627061