2880
Time=81000.00000008 pbc="T T T" Lattice="39.30859663 0.00000000 0.00000000 0.00000000 28.87663349 0.00000000 -12.00524146 0.00000000 24.30945395" energy=-18395.48823500 virial="-31.44065982 26.90622037 -24.05610449 26.90622037 33.57226366 23.59643469 -24.05610449 23.59643469 -11.44659437" stress="0.00148408 0.00103533 -0.00081847 0.00103533 0.00373391 0.00085521 -0.00081847 0.00085521 0.00213048" Properties=species:S:1:pos:R:3:vel:R:3
C 3.17640856 3.78788118 5.09160427 0.00359915 -0.00345034 -0.00840751
C 0.46677361 8.57092254 1.01036860 -0.00653313 0.00023797 -0.00323122
C 6.79353406 6.03677744 1.11560601 0.00320722 0.00661705 0.00105508
C 9.69115752 1.18099696 5.20084738 -0.00277511 0.00821684 0.00732786
C 4.46146976 3.75831747 4.53150809 0.00054141 -0.00116764 -0.00030845
C 12.27756988 8.32398298 1.66508881 -0.00708128 -0.00443710 0.00301922
C 5.60615585 6.19599810 1.84842390 0.00039059 0.00067386 0.00520090
C 36.82632062 1.20468735 4.25624756 0.00225351 -0.00019065 -0.00034756
C 5.44825903 2.96107197 5.04450988 0.00041347 0.00715954 0.00361934
C 11.31033954 7.41762049 1.20673281 -0.00200550 -0.00963985 0.01089754
C 4.58745907 6.96213090 1.30779161 0.00075507 -0.00230838 0.00007869
C -1.52062670 2.12525418 4.69276697 -0.00053459 -0.00150807 -0.00319888
C 5.14010935 2.07821254 6.07943668 -0.00267995 -0.00086202 -0.00337350
C 11.54080675 6.58129698 0.12291787 -0.00442843 -0.00011928 0.00376352
C 4.75114786 7.71768028 0.12468541 0.00524118 -0.00113274 -0.00032344
C -1.63047603 2.84636260 5.84479882 -0.00299258 0.00058408 0.00521417
C 6.69709463 2.13554445 0.79775019 0.00076187 0.00203721 0.00112700
C 9.54456287 6.98385198 5.47674728 -0.00182206 -0.01205647 0.00528330
C 3.01476555 7.81471028 5.73080793 0.00236991 0.00173989 0.00593772
C 0.16519497 2.71720954 0.53437028 0.00017528 0.00593884 -0.00304753
C 5.72111414 2.97877057 0.35569271 0.00074128 -0.00680936 -0.00025989
C -2.35872517 7.94421966 6.07020036 -0.00246540 0.00471151 0.00280292
C 3.98886992 6.96626716 6.18444198 -0.00034432 0.00222682 -0.00180706
C 12.43705148 2.03514613 0.20228837 -0.00097039 -0.00110782 -0.00267577
C 1.94521805 4.92759575 3.33904560 0.00304881 -0.00077249 -0.00301725
C 1.38004249 0.35915411 2.19926329 0.00007959 0.00183272 0.00069038
C 7.94477547 4.61167831 2.65449281 0.00174191 0.00203079 -0.00426286
C 8.52453049 9.41551330 3.49870552 0.00322362 -0.00627459 -0.00649700
C 0.67973487 5.61942412 2.96375961 0.00360709 0.00165369 0.00386515
C 2.40072638 1.50778423 2.24994712 -0.00104398 0.00088923 0.00004073
C 9.17478693 3.84786508 2.86351331 0.00154027 -0.00276445 0.00369830
C 7.43087939 8.39513738 3.41301061 0.00642447 0.00050826 -0.00234390
C 0.24714344 3.59257737 11.41683512 -0.00419455 0.00526975 -0.00345082
C -2.55500324 8.64776251 7.30464828 0.00128818 -0.00812880 -0.00015334
C 3.79906232 6.01736424 7.15025351 0.00016242 -0.00233016 0.00370833
C 6.70672355 1.35915401 11.24685174 -0.00103245 0.00382883 0.00394811
C 1.53238212 3.48217477 10.71417005 0.00134503 0.00054387 0.00556010
C 9.33689318 8.53067419 7.77028550 -0.00017407 -0.00333449 0.00346623
C 2.54235371 5.94649073 7.79825431 0.00293548 0.00622775 0.00527907
C -5.12350059 1.17982572 10.70451350 -0.00632765 0.00025852 -0.00606122
C 2.45392211 2.55651697 11.11070169 0.00052919 0.00225974 0.00478733
C 8.45651243 7.50238331 7.54983906 -0.00443143 -0.00393573 -0.00098457
C 1.59459022 6.93268826 7.41983474 -0.00058604 -0.00751769 0.00267378
C -4.10723055 1.96589130 11.17365575 0.00028045 0.00398733 0.00086631
C 2.28016375 1.79375287 12.28439069 0.00148337 0.00326106 0.00081034
C 8.49193049 6.73801971 6.38151757 0.00026829 0.00161912 -0.00611714
C 1.74397189 7.81064352 6.32165635 0.00323347 0.00228494 0.00452828
C -4.29559549 2.74108886 12.32943296 -0.00371482 0.00312197 -0.00197965
C 3.88495030 2.05349350 6.63079151 -0.00396329 0.00123309 -0.00233112
C 6.68589284 6.84057335 11.50014466 0.00165546 -0.00372196 -0.00071474
C 0.07803419 7.71760913 11.60437935 0.00213114 -0.00458119 0.00568574
C -2.88153872 2.73211426 6.51524222 -0.00644021 -0.00205430 0.00276921
C 2.92020304 2.93857058 6.19446463 -0.00925688 -0.00158428 0.00322574
C -5.35404336 7.52430900 12.16294497 -0.00373008 0.00658047 -0.00316958
C 1.08773768 6.83219835 11.94174761 0.00565813 -0.00604442 -0.00227996
C 9.48588261 1.98300068 6.28156972 -0.00030361 0.00390877 -0.00174253
C -0.84421461 4.90131012 9.76560564 0.00625262 -0.00676470 -0.00342398
C -1.57899925 0.41020447 8.60069189 0.00443254 0.00017078 0.00221527
C 4.95540148 4.59784671 8.66222087 0.00393125 0.00114317 -0.00134270
C 5.56318033 9.33424348 9.66775780 0.00282069 0.00375416 0.00146662
C -2.03364935 5.79132834 9.55495195 0.00821433 0.00308294 0.00285908
C -0.51929083 1.44124811 8.77771730 -0.00552399 0.00068143 -0.00165705
C 6.29943120 3.84156863 8.73217309 -0.00428594 -0.00140490 0.00402843
C 4.23476587 8.53249231 9.49162015 -0.00353574 0.00633102 0.00265346
C -3.05229844 3.74340909 17.33145053 0.00185089 -0.00018403 -0.00530927
C -5.56682897 8.41380337 13.17398607 0.00111861 -0.01048293 0.01087853
C 1.09891424 5.98535015 13.06874474 -0.00295797 0.00354541 0.00370636
C 3.60937380 1.18997043 17.36563933 0.00610411 0.00299118 -0.00189162
C -1.75032587 3.90186046 16.69724691 0.00966938 -0.00075234 0.00320511
C 6.48202294 8.29753959 13.80730399 -0.00086041 0.00146541 -0.01147336
C -0.12141570 6.02749549 13.77449683 0.00080639 -0.00713001 -0.00532461
C -8.10004574 1.12274974 16.71799224 -0.00655307 -0.00247752 -0.00093521
C -0.73766871 3.13599876 17.15050640 -0.00536138 -0.00154894 -0.00219018
C 5.37589346 7.55273093 13.38293088 -0.00276094 0.00069971 -0.00297509
C -1.23129433 6.83551845 13.37850081 -0.00109591 0.00051614 0.00358785
C -7.10687576 1.95653906 17.21069639 -0.00241268 -0.00162203 -0.00216253
C -0.93948592 2.17290731 18.13773681 -0.00262205 0.00147791 -0.00384960
C 5.55755695 6.68657446 12.31453753 0.00343006 0.00687532 -0.00154526
C -1.15217008 7.62344434 12.26396772 -0.00570689 0.00763863 -0.00063598
C -7.40148529 2.94426918 18.19860276 0.01039731 0.00056104 -0.00414617
C 0.99160008 1.84505351 12.90787789 0.00132612 -0.00147928 0.00198569
C 3.62472874 6.64403974 17.85297937 -0.00104057 -0.00243206 0.00293813
C -2.79442951 7.58571207 17.72852467 0.00536140 -0.00344808 -0.00501443
C -5.53632784 2.65040037 13.01138644 0.00408192 0.00071266 -0.00534439
C 0.12717397 2.86069212 12.60420164 -0.00385149 0.00650989 0.00168741
C -8.62233774 7.80503296 18.21070842 0.00455017 0.00659185 -0.00126268
C -1.86029893 6.76879480 18.26403590 -0.00047118 -0.00211908 0.00425689
C 6.64318173 1.92245785 12.51252819 0.00271972 -0.00083016 0.00541831
C -4.29569451 5.08644110 15.84245003 -0.00047084 -0.00151220 -0.00236315
C -4.54731672 0.12582474 14.69743154 0.00416040 0.00149884 -0.01054640
C 2.44917376 4.75374428 14.60158394 -0.00102782 -0.00251424 0.00257219
C 2.52767627 9.35602978 15.66418298 0.00311817 0.00319155 -0.00404670
C -5.54493717 5.86704583 15.70899931 -0.00157694 0.00287973 0.00272591
C -3.31489323 0.99706745 14.82316234 0.00038013 0.00092215 0.00266397
C 3.55417572 3.78523441 14.71671054 0.00598297 -0.00671204 0.00058699
C 1.45592223 8.33074328 15.47285459 0.00280590 0.00097927 -0.00003087
C -6.17889621 3.68190872 23.45657200 0.00057577 -0.00201518 0.00630605
C -8.76764869 8.79396959 19.24063786 0.00608189 -0.00100060 0.00601504
C -2.21954260 5.91628680 19.31894917 0.00701982 0.00153555 0.00748049
C 0.56257299 1.30444805 23.37333501 -0.00021156 -0.00012928 -0.00625281
C -4.98325021 3.53629730 22.68568656 0.00375004 0.00540424 -0.00000930
C 3.32594568 8.42219606 19.95759804 -0.00785621 -0.00474321 0.00442498
C -3.52941775 6.00431857 19.96780399 0.00385419 0.00961382 0.00333435
C 27.92120964 1.12616190 22.60470083 -0.00876344 0.00304612 0.00576084
C -3.96232033 2.73792061 23.13841703 -0.00309881 -0.00201280 -0.00827910
C 2.27161182 7.57030477 19.62534773 -0.00232753 0.00428815 0.00336388
C -4.38399590 6.95719545 19.47086967 0.00045928 0.00015171 -0.00240813
C -10.47774918 2.08058626 22.93043327 -0.00045673 -0.00690423 0.00269965
C 7.92325228 1.95077770 0.03980000 0.00313175 -0.00109234 0.00377674
C 2.36781446 6.74955856 18.46682362 0.00140280 -0.00020208 -0.00192082
C -4.04414996 7.77926492 18.36381161 -0.00140912 0.00165311 -0.00185404
C -10.65974704 2.92899003 24.03042699 -0.00122508 0.00201536 0.00106688
C -2.19716561 1.95517414 18.66645028 0.00185467 -0.00569412 0.00207356
C 0.74251760 6.66219343 23.69676011 -0.00483306 0.00653423 -0.00261832
C -6.03912084 7.58951014 23.70783045 0.00331276 0.00499922 0.00122547
C -8.65822584 2.89223560 18.72532798 0.00340577 -0.00305840 0.00557710
C -3.24228057 2.72992932 18.26286870 0.00767524 -0.00379331 0.00123713
C -11.25894581 7.70476290 24.26874461 -0.00135420 0.00041883 0.00354349
C -5.09170834 6.72730268 24.12884670 -0.00295788 0.00516897 -0.00255843
C 3.49856846 1.90407716 18.54581563 0.00003137 0.00184112 -0.00362747
C -7.24974882 5.21003184 21.97227851 0.00482739 0.00663972 -0.00682418
C -7.47287447 0.22170174 20.87926627 -0.00559577 0.01106064 0.00040579
C -1.05975326 4.57564349 20.96386243 -0.00368434 -0.00215159 -0.00149923
C -0.85529352 9.26007348 22.03193524 0.00117766 -0.00150342 0.00522301
C -8.44584386 6.05777345 21.75592843 -0.00070429 0.00660393 -0.00101847
C -6.16503796 1.07636255 21.25581926 0.00770675 0.00311093 -0.00088504
C 0.17438265 3.74703127 21.19495274 0.00318947 0.00203354 0.00059387
C -2.09153692 8.38479674 21.81432096 0.00765025 -0.00424239 -0.00447498
C 3.00797897 13.42007270 5.14851041 -0.00204284 -0.00192836 0.00306887
C 0.73194525 18.16329040 1.07074352 0.00269774 -0.00008038 0.00526463
C 6.88970050 15.63070446 1.00879742 0.00419647 -0.00208433 -0.00044724
C 9.64422368 10.85749832 5.15072367 -0.00219877 0.00077094 -0.00382841
C 4.28641856 13.37290446 4.43225233 -0.00489249 -0.00027432 -0.00115824
C 12.31307761 18.02523764 1.87926590 -0.00088857 0.00534054 -0.00411727
C 5.67951411 15.84102320 1.69600427 -0.00574698 0.00780059 -0.00137300
C -2.01783122 10.96307805 4.55828179 -0.00190277 0.00018186 -0.00459777
C 5.26814137 12.51877183 4.81717042 0.00934219 -0.00114512 0.00929635
C 11.38541740 17.12513098 1.42284930 0.00126083 0.00276338 -0.00336822
C 4.81323886 16.82908516 1.19998984 0.00430746 0.00505527 0.00030493
C -1.09056509 11.89060078 4.99949175 0.00321129 -0.00156130 -0.00521716
C 5.08953669 11.67673094 5.92311014 -0.00243654 -0.00041004 0.00266029
C 11.56594582 16.43113087 0.20599830 -0.00468304 0.00073904 -0.00826069
C 5.05324234 17.62999701 0.02312729 0.00441342 0.00229682 0.00115798
C -1.30775679 12.63708252 6.16863175 0.00002200 0.00175422 -0.00015872
C 6.54389919 11.61860532 0.58345964 0.00728078 -0.00036387 -0.00910155
C 9.68825910 16.42476085 5.58642630 0.00323910 -0.00046120 0.00170814
C 3.04278589 17.38130687 5.60008425 0.00384649 -0.00369668 0.00241337
C 0.15310314 12.55265659 0.52870050 -0.00041583 -0.00136552 0.00607950
C 5.70990143 12.62627785 0.11972097 0.00256082 0.00658113 -0.00108290
C -2.72630497 17.24594122 5.86340738 -0.00665783 -0.00957663 -0.00804372
C 4.03649827 16.51456949 6.00566494 0.00390982 0.00758409 -0.00214876
C 12.50242722 11.61539258 0.06408183 0.00769269 0.00166877 -0.00275656
C 1.81793532 14.84163337 3.51299175 -0.00389443 -0.00005224 -0.00179718
C 1.52910060 9.98537048 2.64832907 0.00121337 -0.00521535 0.00528696
C 7.94962327 14.29700011 2.76276565 -0.00454389 -0.00443104 -0.00881289
C 8.43163268 18.89773360 3.60618609 0.00340230 -0.00052209 -0.00575243
C 0.44235425 15.44568869 3.26776750 0.00178601 -0.00314212 0.00205724
C 2.65588714 11.02660807 2.69812931 0.00413214 -0.00532811 -0.00083105
C 9.01558452 13.35828199 3.17135808 0.00573514 -0.00550160 -0.00666476
C 7.19449558 17.92663561 3.47089970 0.00388720 -0.00395518 -0.00419712
C 0.00938255 13.41898936 11.42870720 -0.00672284 -0.00420191 0.00414555
C -2.77770195 18.17482044 6.91070513 -0.00076528 -0.00271931 -0.00516742
C 3.86969786 15.65340498 7.09963613 0.00132146 0.00641998 0.00146424
C 6.69708575 10.88333099 11.16464357 -0.00444601 0.00870927 -0.00142315
C 1.16215576 13.39616211 10.62678240 0.00842924 -0.00046566 0.00026933
C 9.32949018 18.19633421 7.73769611 0.00289696 0.00083429 -0.00031484
C 2.59089715 15.62183186 7.72930441 -0.00242998 -0.01328961 0.00200176
C -5.08110363 10.94664757 10.65422291 0.00401991 -0.00242568 -0.00031312
C 2.16630701 12.43450478 10.79269188 -0.00301797 0.00238891 0.00242384
C 8.39169361 17.24942404 7.44079642 -0.00493555 0.00563038 -0.00831649
C 1.62143970 16.54605360 7.33071918 -0.00685359 0.00555712 -0.00461632
C -4.22170316 11.97392733 11.00206382 0.00124288 -0.00051510 -0.00644124
C 2.06028629 11.68199203 11.98511706 -0.00613036 0.00038320 -0.00161622
C 8.55445775 16.37308753 6.36162258 0.00078848 0.00094544 -0.00013886
C 1.80868512 17.43378429 6.24245188 0.00320450 0.00407662 -0.00297117
C -4.40903907 12.64006231 12.19958042 -0.00058716 0.00352309 0.00374093
C 3.92395113 11.83755840 6.64669486 -0.00622709 0.00452407 -0.00168957
C 6.96749051 16.35752157 11.69115353 -0.00274189 -0.00316359 -0.00667106
C 0.19146488 17.41766278 11.66831677 0.00165753 0.00203609 0.00002564
C -2.60628649 12.58703511 6.72915681 -0.00026953 -0.00342295 -0.00640155
C 2.90210255 12.61732917 6.28268265 -0.00300896 -0.00491468 0.00153459
C -5.40728512 17.35008537 12.10822733 -0.00580954 0.00566817 -0.00311753
C 1.16939174 16.58746760 12.13303547 -0.00760598 -0.00217191 -0.00532807
C 9.53824539 11.79935456 6.19570741 0.00107094 -0.00015790 -0.00427744
C -1.24089698 14.88644270 9.86183513 0.00492526 0.00579004 0.00683638
C -1.45268439 10.18448418 8.82567385 -0.00174631 -0.00230082 -0.01102075
C 5.13588822 14.20914468 8.57315531 -0.00410174 0.00095575 0.00470918
C 5.43677452 19.05725853 9.67645770 -0.01061836 -0.00033068 -0.00249984
C -2.47037030 15.66786083 9.92002716 -0.00243573 -0.00168600 -0.00205001
C -0.28815164 11.12575442 8.94785690 0.00250981 0.00031862 0.00543666
C 6.24324428 13.27777025 8.58609023 0.00355488 -0.00231187 0.00345913
C 4.18836917 18.12550574 9.60387217 0.00407350 -0.00120264 0.00502042
C -2.88921267 13.44892997 17.30119004 -0.00591840 0.00003645 -0.00261195
C -5.69290113 18.28853603 13.08141250 0.00440482 0.00020740 -0.00922511
C 0.95098952 15.77947365 13.26828221 -0.00498486 0.00180091 0.00400345
C 3.77909744 10.38012748 17.40155078 -0.00218597 -0.00347806 0.00289539
C -1.63045941 13.26098551 16.68033890 -0.00765541 -0.00402520 -0.00353899
C 6.37081601 18.16356232 13.79524677 -0.00227852 0.00338355 0.00814436
C -0.28547578 15.87875307 13.94101028 0.00299758 -0.01107761 -0.00037090
C 31.05891843 10.78964156 16.46922656 0.00038685 0.00498832 -0.00537980
C -0.67002043 12.35136152 17.15768068 0.00287934 0.00331119 -0.00233450
C 5.40510269 17.32074235 13.29253460 -0.00331471 -0.00439276 0.00135446
C -1.24132209 16.76411875 13.52119262 -0.00005530 -0.00178049 -0.00933507
C -7.26098870 11.61133063 17.00235618 -0.00735100 0.00076222 0.00269562
C -0.88893613 11.47899662 18.25769071 -0.00457525 -0.00185442 0.00499856
C 5.63559207 16.37659608 12.28111102 0.00177840 -0.00683331 -0.00057649
C -0.98714524 17.61895662 12.38942364 0.00130664 0.00152724 0.00288982
C -7.54164867 12.48934344 18.01873201 0.00425953 0.00074768 -0.00593612
C 0.91933944 11.76394033 12.83655514 -0.00649074 -0.00257634 0.00671005
C 3.75997100 16.56922254 17.74191546 -0.00610551 -0.00382524 0.00362843
C -2.72746510 17.31718647 17.66480833 -0.00457181 -0.00240342 -0.00557427
C -5.63191726 12.38364080 12.88395369 -0.00514809 0.00070584 -0.00161839
C -0.05671119 12.67595599 12.61406416 -0.00469615 0.00607594 -0.00334358
C -8.31366339 17.37210766 18.24809324 -0.00121948 -0.00145608 0.00322026
C -1.74861317 16.41134935 18.11231609 -0.00594772 0.00220502 0.00229595
C 6.51478175 11.66756978 12.31329289 0.00641143 -0.00411108 -0.00005593
C -4.11170938 14.94344232 15.76554286 -0.00656489 -0.00212113 0.00374851
C -4.34363258 9.72110569 14.73692447 0.00862165 -0.00105658 -0.01039643
C 2.18200616 14.35643541 14.82491971 -0.00102225 0.00962065 -0.00682943
C 2.73660373 19.08904255 15.57805546 -0.00049821 0.00585292 0.00503972
C -5.38830929 15.72452064 15.72524304 0.00195605 0.00112973 -0.00490028
C -3.04158116 10.32031064 15.16310291 0.00124426 -0.00796728 0.00135168
C 3.42068745 13.57786441 14.99976747 0.00130326 -0.00398061 -0.00320563
C 1.53392353 18.26925734 15.42712918 -0.00120673 0.00234006 0.00664076
C -5.97912939 13.40014228 23.33263341 -0.00596396 -0.00707767 -0.00082302
C -8.43090581 18.28464671 19.31519530 -0.00359166 0.00078562 0.00298392
C -1.99010484 15.59685198 19.18672677 -0.00719477 0.00232450 0.00455234
C 0.58660802 10.65255128 23.35179539 -0.00858363 0.00476187 -0.00165615
C -4.70608432 13.24210185 22.75808103 0.00162573 -0.00327872 0.00126648
C 3.12142460 18.21489009 19.83671125 0.00286502 -0.00814791 -0.00592580
C -3.22028102 15.74565704 19.84815724 0.01012087 -0.00587257 0.00187526
C 28.04398421 10.69378534 22.74094062 0.00071441 0.00141228 -0.00924759
C -3.96403473 12.12037798 23.03727976 -0.00119667 -0.00763775 -0.00227686
C 2.24270775 17.23489107 19.47775357 -0.01159354 -0.00034799 0.00215664
C -4.19393660 16.64967877 19.43700340 -0.01017851 0.00429864 -0.00184014
C -10.34548205 11.67879549 23.11470452 -0.00234522 0.00196012 0.00171007
C -4.27979892 11.33852578 24.19883455 0.00822985 0.00469918 -0.00522330
C 2.44947876 16.37467355 18.35627774 0.00693953 -0.00016747 -0.00579793
C -3.94932871 17.38998371 18.28067890 0.00301278 -0.00044853 -0.00472692
C -10.58815915 12.55846994 24.25909656 0.00039381 -0.00588578 0.00491330
C -2.15600127 11.65696260 18.86119519 0.00713153 0.00850368 0.00237840
C 0.72241422 16.62275984 23.78438637 0.00935634 -0.00103351 -0.00344613
C -5.73658067 17.38233011 23.64097354 -0.00690953 0.00281749 -0.00368419
C -8.79535266 12.49859040 18.70887323 -0.00352073 0.00356044 -0.00187082
C -3.06402555 12.63132903 18.48633894 0.00115496 0.00446442 -0.00215141
C -11.05208205 17.28265592 24.27977633 -0.00072724 -0.00168043 -0.00005288
C -4.83441852 16.38802847 24.16576001 -0.01158967 0.00193038 -0.00027831
C 3.49533203 11.28095086 18.43877641 0.00006094 0.00233395 0.00208338
C -6.95239395 14.83715453 21.58342921 -0.00410231 0.00321572 -0.00176389
C -7.38793992 9.90573334 20.85744604 0.00561931 -0.00042541 -0.00828980
C -0.90587784 14.04925805 20.67989942 -0.00551045 -0.00553010 0.00244078
C -0.66285128 18.93923774 21.95487253 -0.00209690 0.00508965 -0.00568575
C -8.18216052 15.69758595 21.31748273 -0.00145592 -0.00325080 -0.00388014
C -5.96313627 10.47927453 21.09421737 -0.00020342 0.01166143 0.00757733
C 0.34102184 13.26567941 20.89850796 -0.00220365 -0.00315237 -0.01085730
C -1.83733462 17.99360365 21.87541623 0.00546334 0.00035512 0.00098258
C 2.93512999 23.07238700 5.14543857 0.00114844 0.00176076 0.00713059
C 0.27780550 27.53311196 0.82685929 -0.00101572 -0.00090920 0.00264312
C 7.04377582 25.22300712 1.14422592 0.00440057 0.00301803 0.00261412
C 9.58667350 20.34107783 5.17908748 -0.00399926 -0.00041153 -0.00210251
C 4.19457242 23.01730896 4.49679654 -0.00399580 0.00200368 0.00347180
C 12.31714697 27.89207666 1.66512360 -0.00073483 -0.00165113 0.00729920
C 5.83719198 25.34258567 1.80510342 0.00097378 0.00051891 -0.00244232
C 36.82352325 20.44712198 4.31269749 -0.00453317 0.00094636 -0.00043741
C 5.19257770 22.09981733 4.83015489 0.00273534 0.00040883 -0.00176108
C 11.37964824 26.98714747 1.33712487 0.00350214 -0.00106607 -0.00575655
C 5.03462262 26.42146853 1.47515847 0.00679714 -0.01115148 -0.00383586
C -1.43630423 21.19276860 4.78037399 -0.00191973 -0.00593166 0.00451997
C 4.98671340 21.25189537 5.90367582 -0.00283990 0.00468139 0.00532818
C 11.50661200 26.16282485 0.24002438 -0.00365659 0.00502295 -0.00696768
C 5.21912672 27.25271297 0.34643586 -0.00701677 0.00008720 0.00579034
C -1.52953833 22.05494529 5.90192817 -0.00454055 -0.00281666 -0.00933176
C 6.94035480 21.23818788 0.57116092 0.00652079 -0.00263107 -0.00496928
C 9.72908162 26.09455116 5.60296200 0.00217744 -0.00768832 0.00657325
C 3.29460109 27.28699965 5.46564380 0.00400216 -0.00242562 -0.00167442
C 0.62475902 21.83856475 0.87638350 -0.00320017 -0.00264024 0.00027785
C 5.96125489 22.15640674 0.21214688 -0.00772087 0.00137632 -0.00086472
C -2.41196068 27.05165814 5.94953954 -0.00311152 -0.00330215 0.00069847
C 4.12539454 26.29861328 5.76005868 0.00281431 -0.00263066 -0.00598100
C 12.62231341 21.37927626 0.09445050 -0.00792287 0.00143854 0.00250525
C 1.90449644 24.55450460 3.50851557 -0.00409181 -0.00175317 -0.00778972
C 2.04299655 19.54456042 2.61015288 -0.00317630 -0.00826654 -0.00297779
C 8.35349165 23.84176020 2.70048645 -0.00496325 0.00495189 0.00761504
C 8.63768855 28.76963773 3.45451740 0.00398290 0.00092643 0.00392060
C 0.75421635 25.45444773 3.42457828 -0.00777440 0.00572706 -0.00480716
C 3.33572132 20.34361636 2.82335756 0.00191803 0.00978938 0.00096232
C 9.62307695 23.05324923 2.71381191 0.00362927 -0.00538932 0.00030111
C 7.49107370 27.87476066 3.08329821 -0.00565571 -0.00901473 0.00675379
C 0.06679480 23.01699100 11.09972858 -0.00514204 -0.00865928 0.00319304
C -2.72155768 27.87925199 7.01684460 0.00392152 0.00214633 0.01029295
C 3.95638717 25.40768055 6.83744636 0.00742887 0.00152750 0.01123761
C 6.71778072 20.55111020 11.14963934 -0.00240121 -0.00157827 -0.00180293
C 1.33434255 23.22498369 10.47453187 -0.00483778 -0.00138787 -0.00237603
C 9.37593338 27.80844330 7.82453266 -0.00039902 -0.00198080 0.00085892
C 2.73245743 25.58931756 7.58022303 0.00003066 0.00037550 0.00659095
C 34.07106394 20.42236256 10.34639531 0.00873565 -0.00019281 -0.00364172
C 2.31897722 22.36443794 10.86668486 0.00567888 0.00382981 -0.00234959
C 8.34505896 26.96760078 7.40044445 0.00283622 0.00025115 0.00330138
C 1.81732807 26.54781697 7.18817208 -0.00347169 -0.00397558 0.00251708
C -4.30541469 21.28417327 10.74792759 -0.00049188 0.00455658 0.00313667
C 2.28984596 21.52205085 11.95606395 -0.00470446 0.00490473 -0.00576561
C 8.46940613 26.17864029 6.25336247 0.00015802 -0.00005347 -0.00326806
C 2.00761700 27.37402552 6.08520100 -0.00344826 -0.00109629 0.00635041
C -4.54430256 22.14218640 11.83302877 -0.00412228 -0.00534004 -0.00054107
C 3.74574225 21.34814702 6.57076782 -0.00091067 0.00795991 0.00583930
C 6.47633495 26.31109965 11.44209994 0.00335750 0.00228063 -0.00391249
C -0.16294395 27.00225777 11.69334569 -0.00077230 -0.00189581 -0.00086181
C -2.74369117 22.10923813 6.56999876 0.00693544 -0.00325816 0.00347015
C 2.81002482 22.25210962 6.24611402 -0.00565728 -0.00731537 -0.00167920
C -5.49237984 26.54659378 12.04579847 0.00590251 0.00053310 0.00333027
C 0.90049208 26.23547782 12.13103596 0.00480816 -0.00209678 -0.00015684
C 9.29933754 21.17023112 6.23393976 0.00329321 0.00379616 -0.00389656
C -1.28509676 24.35714693 9.52379596 -0.00716839 -0.00236726 0.01158352
C -1.48847287 19.52577273 8.33272450 0.00341871 -0.00094947 0.00720229
C 5.10993731 23.99093014 8.38844651 -0.00348097 0.00034658 -0.00845193
C 5.47167095 28.69718592 9.80781962 0.00245493 -0.00625966 -0.00009196
C -2.71449769 24.99908290 9.43109257 -0.00658719 0.00660187 -0.00256806
C -0.39703328 20.57523202 8.42749499 -0.00291133 0.00394861 -0.00190040
C 6.33735337 23.08706628 8.71669370 -0.00122320 -0.00223168 -0.00440000
C 4.36710350 27.76860937 9.66258158 -0.00376510 0.00166332 -0.00353410
C -2.93270591 22.69747722 17.44696878 -0.00210939 -0.00858994 -0.00086169
C -5.61170418 27.33301000 13.21791993 -0.00098200 0.00288299 0.00108737
C 0.71254550 25.18858407 13.09502370 0.00842252 -0.00477894 0.00230967
C 3.83079452 20.49569571 17.10942267 -0.00484580 -0.00733706 -0.00170709
C -1.75217358 22.62778593 16.74028859 0.00447242 0.00080946 -0.00665558
C 6.17988913 27.56907893 13.89703246 0.00396823 -0.01463242 0.00271846
C -0.59160593 25.03062967 13.62443075 -0.00184059 -0.00550883 0.00171083
C -8.17670042 20.40395997 16.63099746 0.00323509 0.00120120 0.00412209
C -0.69738207 21.80010451 17.04533845 0.00113986 0.00512585 0.00145202
C 5.24740380 26.70933128 13.46163061 0.00183670 0.00364959 -0.00440683
C -1.62277722 25.88020128 13.28204411 0.00173628 0.00269877 0.00227257
C -7.21072845 21.30924572 16.97436612 0.00620994 -0.00257203 0.00439033
C -0.80681655 20.92453332 18.09934619 0.00091848 0.00690337 0.00560888
C 5.28521584 26.18365355 12.14870399 0.00083327 0.00367180 0.00385130
C -1.45170512 26.88540126 12.27645823 -0.00235647 -0.00329306 -0.00813226
C -7.42818936 22.26263368 17.96116675 -0.00024996 0.00183769 -0.00702387
C 1.01915517 21.39825731 12.62099570 -0.00268342 0.00143179 -0.00059939
C 3.79184018 25.97423377 17.56196544 -0.00075005 0.00217498 0.00243022
C -2.90437852 26.58759655 17.60323665 0.00400167 0.00416671 0.00119555
C -5.79582262 22.18310536 12.46326066 -0.00410725 -0.00200166 -0.00666675
C -0.05642260 22.18230607 12.20233722 -0.00067858 -0.00151237 -0.00333934
C -8.51191899 26.94451526 18.12027349 0.00709507 0.01814094 0.00083289
C -1.91978463 25.71556536 17.93958669 -0.00285905 0.00176536 0.00174609
C 6.47130471 21.41923188 12.20505286 -0.00979371 -0.00598562 0.00021345
C -4.10629609 24.17355332 15.89536072 -0.00287776 0.00299791 0.00343938
C -4.49425257 19.75139965 14.59134383 -0.00255231 0.00054081 0.00752668
C 1.79440820 23.75522267 14.61578677 0.00003803 0.00356233 -0.00438506
C 2.30322772 28.60205168 15.83153439 -0.00380621 0.00105235 -0.00295332
C -5.35668336 25.00995393 15.83059232 -0.00011477 0.00394417 -0.00426374
C -3.15837873 20.31513544 14.83903166 -0.00008441 -0.00050973 0.00706501
C 2.85418595 22.68895368 14.79472169 -0.00059937 -0.00286836 0.00376222
C 0.94197990 28.02832771 15.90409057 0.00217295 0.00616061 0.00370431
C -5.85826093 23.03442330 23.41477162 0.00409780 0.00411166 -0.00394678
C -8.73586386 27.77773212 19.25471849 -0.00069064 -0.00306305 -0.00395529
C -2.10584832 24.91920579 19.08306881 0.00423021 -0.00000805 0.00414141
C 0.69998832 20.55080089 23.28643368 0.00622670 -0.00899758 -0.00013537
C -4.66850263 22.91112183 22.74371851 -0.00275972 -0.00403209 0.00074433
C 3.40414189 27.56197110 19.81037494 -0.00639916 0.00647413 -0.01248503
C -3.26150839 25.10837925 19.85779642 0.00098494 -0.00353766 0.00743633
C -11.06501620 20.57495113 22.79100029 0.00487863 0.00592116 -0.00215265
C -3.66616620 22.02986372 23.06661702 0.00364772 -0.00151078 -0.00261280
C 2.36865594 26.76719148 19.36206580 0.00629055 0.00307449 -0.00049301
C -4.19924150 26.04304352 19.57153022 -0.00358617 0.00362261 -0.00242578
C -10.12066027 21.50817931 23.20521656 -0.00744293 -0.00433839 -0.00438795
C -3.82761856 21.19719278 24.20142270 -0.00272655 -0.00610254 -0.00189266
C 2.58673281 25.93106404 18.25014338 0.00131024 0.00743195 -0.00227257
C -4.08271508 26.70171868 18.34239940 -0.00583906 -0.00138266 0.00040496
C 1.77428506 22.20653474 0.07540495 -0.00290670 -0.00800117 -0.00379179
C -2.01732151 20.95162824 18.82499439 0.00102503 -0.00424261 0.00549552
C 0.70151812 26.26784614 23.79889622 0.00822194 -0.00096002 0.00009276
C -5.54897553 27.09017682 23.93920312 0.00302285 -0.00227735 0.00570001
C -8.68903996 22.32558784 18.69771342 0.00897291 -0.00125263 0.00308258
C -3.07578468 21.81081376 18.52463089 0.00027603 -0.00021038 0.00149814
C -11.50560210 26.68906404 24.05697559 -0.00028655 -0.00621336 -0.00075313
C 7.25544050 26.04061070 0.01217472 -0.00473247 -0.00088029 0.00772586
C 3.65012112 21.28891998 18.24095056 -0.00199551 0.00940835 -0.01042260
C -7.06242495 24.40750981 21.78879928 0.00193799 -0.00041630 -0.00462923
C -7.28037771 19.94363092 20.62489191 -0.00458429 0.00021945 0.00512394
C -0.84383619 23.86418068 20.82345041 -0.00581608 -0.00226344 -0.00256658
C -0.52305517 28.70870518 21.71202656 0.00086961 -0.00144562 0.00240715
C -8.25813759 25.38594849 21.67351610 0.00368729 0.00964951 -0.00091150
C -6.01327851 20.66436301 20.64356570 0.00902285 -0.00112395 0.00490250
C 0.39294076 23.05752503 21.14109650 0.00171914 0.00061267 0.00293370
C -1.50653530 27.52597385 21.60856433 -0.00116275 0.00432458 -0.00654917
C 16.12688739 3.75374027 5.12301679 -0.00062065 0.00104317 -0.00241392
C 13.52678272 8.44089278 1.00718986 -0.00504206 -0.00655226 -0.00849715
C 20.11986993 5.86990565 0.89865815 -0.00147528 -0.00553530 0.00411801
C 22.74944074 1.03332758 5.20842968 -0.00755951 0.00018628 -0.00327616
C 17.29889029 3.53304206 4.32064341 0.00427384 0.01077058 -0.00129711
C 25.38429913 8.70474503 1.42424577 -0.00021776 -0.00115774 0.00168061
C 18.84746049 5.93349887 1.58274756 -0.00799356 0.00545155 0.00461242
C 11.03747447 1.29846535 4.56149682 0.00184585 0.00666032 0.00560629
C 18.22230911 2.56345465 4.73882079 -0.00184277 0.00247541 0.00306954
C 24.49638520 7.72502904 0.98069750 -0.00275105 -0.00024553 0.00260497
C 17.95800334 6.91422286 1.28422768 0.00205230 0.00226550 -0.00130388
C 12.05874765 2.00015287 5.15397610 -0.00459087 -0.00244649 -0.00002095
C 17.97835908 1.69703970 5.77289198 0.00161289 -0.00403653 -0.00227307
C 12.81984246 6.84733942 24.25464973 0.00419703 0.00875102 0.00470782
C 18.14521126 7.69653247 0.10129676 0.00298226 0.00354670 -0.00152024
C 11.79560533 2.79192424 6.31474084 -0.00080067 -0.00064940 -0.00271708
C 19.83233974 1.99035120 0.51836942 0.01335712 -0.00315019 0.00089886
C 22.95497128 6.69784573 5.50028276 -0.00537231 0.00929552 -0.00242936
C 16.25004198 7.56058958 5.39560415 -0.00617827 -0.00318279 -0.00993194
C 13.49097696 2.77100149 0.77024519 -0.00075523 -0.00023648 0.00313128
C 18.86626457 2.87169442 0.02369995 -0.00140276 -0.00157266 0.00037916
C 10.51689198 7.82547881 5.88412917 -0.00193991 -0.00491407 0.00212560
C 17.18045434 6.69542099 5.91395076 -0.00340547 0.00474882 -0.00362593
C 25.66019648 1.90342383 0.14188601 0.00020063 -0.00120368 -0.00020093
C 14.88347415 5.11475422 3.60554390 0.00163295 0.00056117 -0.00249992
C 14.72963601 0.37877668 2.60838839 -0.00217815 -0.00068124 -0.00591807
C 21.17561048 4.35771729 2.51126606 -0.00418689 0.00519180 -0.00267914
C 21.60733329 9.47047324 3.56194424 -0.00264534 0.00720200 0.00611616
C 13.61473679 5.81077686 3.39650925 0.00244117 0.00351170 -0.00287951
C 15.92746554 1.08199573 2.89725452 0.00692411 -0.00029020 0.00457364