2880
Time=29000.00000000 pbc="T T T" Lattice="39.20477759 0.00000000 0.00000000 0.00000000 28.78987649 0.00000000 -12.01846215 0.00000000 24.36302468" energy=-18400.15091455 virial="66.74140853 -21.90458510 -36.77450738 -21.90458510 28.99525703 -0.51226044 -36.77450738 -0.51226044 33.90724633" stress="0.00499553 -0.00085324 -0.00138219 -0.00085324 0.00357295 0.00002588 -0.00138219 0.00002588 0.00366229" Properties=species:S:1:pos:R:3:vel:R:3
C 3.27615478 3.72990101 5.15129160 0.00422148 0.00266607 -0.00522082
C 0.25260026 8.55040501 1.03626893 -0.00044734 -0.00867755 0.00638975
C 6.88844870 5.93379809 1.03246772 -0.00083604 -0.00100063 0.00325255
C 9.38837910 1.21309876 5.07792571 -0.00216724 0.00177421 0.00169929
C 4.54001902 3.66026099 4.50028779 0.00492346 -0.00003881 0.00034667
C 12.24784527 8.38779114 1.77946622 -0.00735186 -0.00912343 0.00306701
C 5.64463443 6.03084315 1.71956361 0.01095480 -0.00323435 -0.00518269
C -2.03922350 1.17460477 4.31795152 -0.00004897 0.00110326 0.00044403
C 5.42464698 2.67069761 4.88227666 0.00459456 -0.00157832 -0.00709515
C 11.22307403 7.58799811 1.26080442 -0.00081361 0.00652298 -0.00078998
C 4.67160018 6.94954631 1.30839471 0.00685660 0.00893384 0.00125988
C -1.13964494 2.20114635 4.66781512 0.00476723 -0.00143637 0.00459305
C 5.20964821 1.91696432 6.08240118 0.00339607 -0.00515765 0.00777813
C 11.31490137 6.85891921 0.06587818 0.00130409 -0.00054676 0.00160158
C 4.75186778 7.73512798 0.11132919 0.00374445 -0.00219307 -0.00797795
C -1.29527415 2.94959056 5.77009571 -0.00113217 0.00727153 0.00328769
C 6.81069162 2.20901085 0.69280334 0.00172580 -0.00735565 0.00683744
C 9.87978849 6.78197913 5.52864856 -0.00240645 0.00398503 0.01012211
C 3.21329444 7.39680553 5.59950053 0.00003139 -0.00752727 -0.01190173
C 0.38205318 2.48759348 0.66526471 -0.00092388 -0.00640631 0.00007437
C 5.87749604 3.02926095 0.23292052 -0.00092316 -0.00007708 -0.00099442
C -2.27087407 7.85988417 6.12682274 0.00133229 -0.00417498 -0.00864481
C 4.24889744 6.62329095 6.04193927 -0.00312022 0.00233307 -0.00296694
C 12.28124994 1.81429042 0.14195013 0.00028011 -0.00097780 0.00348421
C 2.07631479 5.14764721 3.46462007 -0.00169797 0.00455498 0.00192759
C 1.55858931 0.40269420 2.38363665 -0.00462773 0.00144606 -0.00490763
C 8.19493663 4.61786200 2.61667214 -0.00010506 -0.00570026 -0.00036760
C 8.33146621 9.50545738 3.54083083 0.00123257 -0.00219991 -0.00887083
C 0.86070806 6.00263215 3.22406289 -0.00488682 0.00115183 0.00547802
C 2.78488470 1.21600174 2.74402315 0.00177976 -0.00109856 -0.00722021
C 9.30053860 3.67574061 2.84269970 -0.00059417 -0.00007839 -0.00248168
C 7.04354939 8.79807649 3.24818882 -0.00825856 -0.00811599 0.00644835
C 0.04239838 3.78329583 11.21997482 0.00519346 -0.00422349 0.00344616
C -2.48153256 8.68547190 7.23430260 -0.00384333 0.00315053 0.00030774
C 4.09487404 5.76763729 7.14098982 0.00260427 0.00028325 0.00239866
C 6.63407028 1.07813407 11.36520860 0.00371526 -0.00435551 0.00568562
C 1.29263604 3.74396662 10.56076957 -0.00521329 0.00369915 -0.00886805
C 9.30700175 8.48314142 7.64961470 -0.00112354 0.00130797 -0.00609928
C 2.83184995 5.74043019 7.78015998 -0.00078338 -0.00478974 -0.00042814
C -5.07365550 1.42359479 10.55385808 -0.01006826 0.00794254 0.00743692
C 2.33037097 2.92869893 10.98865104 -0.00006798 0.00494278 -0.00255799
C 8.35804106 7.55992707 7.17750223 -0.00708569 0.00651120 0.00406514
C 1.83947210 6.69814394 7.46655902 -0.00298401 -0.00423794 0.00463328
C -4.09315183 2.26470386 11.03130726 0.00481774 -0.00093849 -0.00375830
C 2.15449544 2.23801204 12.24148457 -0.00648647 0.00645176 -0.00531775
C 8.55821590 6.70823124 6.10418598 0.00530997 0.00656305 -0.01489452
C 1.98734387 7.48110703 6.32622293 -0.00062011 -0.00337597 0.00207214
C -4.45938278 3.07461378 12.19956397 0.00366076 0.00488613 0.00584479
C 4.04086286 2.17901473 6.80507321 0.00841519 -0.00071889 -0.00116581
C 6.53921948 6.58351230 11.72582033 -0.00386204 -0.00271586 -0.00039524
C -0.01686766 7.66938851 11.70649759 0.00289844 0.01011251 -0.00098689
C -2.59553786 2.85697441 6.40844987 0.00300089 0.00061480 -0.00258190
C 3.02782455 2.89787889 6.22514625 -0.00598843 0.00090709 -0.00415311
C -5.49661620 7.59304362 12.10829861 0.00240611 0.00515539 0.00442805
C 0.90299895 6.74334533 12.06993512 0.00196155 0.00257211 0.00554796
C 9.20407205 2.07162224 6.29539719 -0.00461948 -0.00301429 0.00953230
C -1.27452816 5.13505555 9.57729341 0.00080243 -0.00049822 -0.00149768
C -1.18739946 0.22126379 8.62133352 -0.00074696 0.00395874 -0.00126495
C 5.33553523 4.62265111 8.78394674 -0.00606467 0.00172993 -0.00309511
C 5.46040883 9.20614197 9.55544711 0.00488347 0.00257302 -0.00560412
C -2.62205386 5.79634261 9.42989669 -0.00391324 0.00529824 0.00015167
C -0.10403745 1.19267844 8.83985195 0.00846603 0.00063367 -0.00590749
C 6.49401730 3.71895700 9.03609481 0.00569935 0.00345502 0.00283427
C 4.29446771 8.31775481 9.41492133 -0.00479517 -0.00018449 0.00413293
C -2.83077231 3.82199855 17.41475582 -0.00133389 0.00188693 0.00398538
C -5.80346232 8.41362526 13.25702398 0.00270576 -0.00567398 -0.01045841
C 0.80454993 5.96590166 13.25495739 -0.00153843 -0.00424436 -0.00518017
C 3.68764824 1.07877118 17.27185446 -0.00137190 -0.00684369 -0.00187930
C -1.58949961 3.95670242 16.81575796 -0.00385356 0.00855651 0.00009440
C 6.22344043 8.24312017 13.96279540 0.00646214 -0.00247218 0.00105619
C -0.43045438 6.16258377 13.99446524 -0.00810905 -0.00241793 -0.00013527
C -8.10270930 1.00365951 16.59693196 0.00915544 0.00168016 -0.00034464
C -0.63582728 3.03513973 17.09724308 -0.00452592 -0.00156191 -0.00066048
C 5.17828291 7.47295074 13.52977361 0.00261572 -0.00852745 -0.00757285
C -1.41776828 7.05666601 13.60987054 0.00274865 -0.00029093 -0.00245859
C -7.22304523 2.03173516 16.99797328 -0.00148292 -0.00568099 0.00280185
C -0.76472832 2.17832199 18.21932442 -0.00238035 0.00799177 0.00951140
C 5.33371714 6.59890825 12.45143651 -0.00424446 -0.00240301 0.00388577
C -1.19029331 7.87560180 12.46792014 -0.00288003 0.00171754 -0.00222401
C -7.30796150 2.76984221 18.16817371 -0.00386399 0.00151480 -0.00758099
C 0.92341233 2.15850743 12.85583684 -0.00093964 0.00525133 0.00747343
C 3.69496153 6.90499662 17.63538328 -0.00409518 0.00006465 -0.00224381
C -2.77424557 7.81407836 18.02824320 0.00149313 0.00781821 -0.00185343
C -5.68859843 2.88873676 12.83789693 0.00130032 0.00053089 0.00408205
C -0.11355667 2.94995448 12.38763149 0.00734476 -0.01154593 -0.00033306
C -8.35210930 7.72269527 18.13303416 0.00400822 0.00159017 -0.00210672
C -1.85063003 6.92572215 18.43225480 0.00125053 0.00165132 0.00446642
C 6.42107805 1.94935582 12.46754258 0.00027791 0.00323495 -0.00144931
C -3.99433100 5.31541163 15.99012988 -0.00100481 0.00589580 0.00101726
C -4.01287004 0.62866477 14.59319717 0.00868975 -0.00672944 -0.01037260
C 1.82658840 4.56932123 14.92184683 0.00231384 0.00671274 0.00138856
C 2.46104508 9.32044126 15.66646857 0.00151386 -0.00086692 0.00150379
C -5.10850278 6.25966520 15.93296495 0.00002654 0.00614243 0.00196549
C -2.75356202 1.44024035 14.80639263 -0.00200885 0.00481909 0.00754285
C 3.17368319 3.94961523 15.26895284 0.00024572 0.00439734 -0.00152839
C 1.35527813 8.36433283 15.39700470 0.00471351 0.00128613 -0.00053943
C -5.81729156 3.75282581 23.45766624 -0.00033863 -0.00037325 -0.00327433
C -8.54041811 8.44343579 19.36097645 -0.00126746 -0.00280870 0.00253833
C -2.03367151 6.06618463 19.50158040 -0.00064666 -0.00677445 -0.00648380
C 0.51306409 1.01133368 23.38808770 0.00135107 0.00142348 0.00284640
C -4.57050603 3.67186660 22.82364006 -0.00416127 0.00140982 0.00066405
C 3.09164610 8.63595928 19.76213005 -0.00436455 0.00251164 -0.00159220
C -3.25423753 6.10767017 20.21694613 -0.00000279 0.00790656 0.00618570
C 28.01936464 1.08524019 22.65147677 -0.00143716 -0.00695772 0.00242695
C -3.65461341 2.77746859 23.29740171 0.00060334 0.00560896 -0.00025213
C 2.19503475 7.69307343 19.34288221 -0.00061392 0.00094831 0.00036969
C -4.27542383 6.99608030 19.77221306 0.00069326 -0.00223147 0.00077554
C -10.20826797 2.00478740 23.13275749 -0.00158133 0.01045266 0.00113935
C 8.02890894 1.93694039 0.04034009 -0.00809946 -0.00229626 0.00485623
C 2.49814716 6.70486513 18.35520240 0.00688892 0.00647365 -0.00337027
C -4.04739682 7.90014427 18.70248441 -0.00449576 -0.00139826 -0.00513516
C 1.60951462 2.66728410 0.00058158 0.00066853 0.00518097 0.00093179
C -1.87830133 2.19504655 19.04959203 -0.00255647 -0.00479092 0.00385546
C 0.53442476 6.98849243 23.76044920 -0.00363951 0.00643656 0.01095963
C -6.02767530 7.62323389 23.77375001 -0.00405310 0.00085298 -0.00351059
C -8.55427019 2.61202847 18.81754650 -0.00139203 0.00155716 0.00762287
C -2.92514421 2.99701435 18.53608487 0.00082515 -0.00065096 -0.00238266
C -11.45722024 7.70435330 24.31827809 -0.00398648 0.00373421 0.00198603
C -5.04401774 6.81520290 24.28097992 0.00136353 0.00012638 -0.00136310
C 3.49161671 1.92286302 18.38032157 0.00119360 -0.00477718 0.00816698
C -7.05565505 5.01118085 21.75978335 0.00096068 -0.00332011 0.00553392
C -7.20405724 0.18672820 20.95261504 -0.00055074 -0.00358048 -0.00232484
C -0.77475018 4.56444022 20.95422815 0.00538756 -0.00223652 0.00260849
C -0.51212284 9.54604782 21.86853243 -0.00211309 0.00139728 -0.00530633
C -8.26411130 5.78992453 21.50737832 0.00392103 0.00348469 -0.00471293
C -6.01281537 1.07560854 21.06654036 0.00050275 -0.00767048 0.00424635
C 0.46619734 3.64273916 20.91322124 -0.00732736 0.00818942 0.00293223
C -1.69760142 8.85241215 21.45171007 0.00427679 0.00363077 -0.00196622
C 2.99175863 13.16114872 5.00957289 -0.00445489 -0.00429706 -0.00049125
C 0.30438306 18.01830740 1.00164408 -0.00215230 -0.00154220 -0.00467305
C 6.75618323 15.36547545 0.93012118 0.00391414 0.00298249 -0.00302972
C 9.58242002 10.72533871 5.13358629 0.00050268 0.00065969 -0.00167363
C 4.22599306 13.10832218 4.36367617 0.00071611 0.00255276 -0.00155076
C 12.22165007 18.08075118 1.60074206 -0.00839999 0.00103867 0.00250801
C 5.50319827 15.42327235 1.44356601 0.00414402 -0.00608429 0.00633524
C -2.12674140 11.02138380 4.33430577 0.00385888 -0.00312553 -0.00434974
C 5.29951739 12.27301985 4.66741444 0.00295201 0.00222919 -0.00040474
C 11.20503568 17.19189827 1.29773058 -0.00547342 -0.00102851 0.00715536
C 4.48290682 16.21075424 0.99234366 0.00395816 -0.00335166 -0.00197688
C -1.24581992 12.00084979 4.76279556 -0.00146258 -0.00463437 0.00061139
C 5.10239467 11.39081438 5.76727450 0.00439759 0.01090893 0.00693455
C 11.32502978 16.13181836 0.32489287 -0.00110558 0.00709694 0.00836244
C -7.32651439 16.99420159 24.19993240 -0.00083392 -0.00548981 0.00254579
C -1.50634684 12.77560418 5.87208279 -0.00019263 -0.00533393 -0.00124421
C 6.93055038 11.67671972 0.44766523 0.00317472 -0.00231779 0.00061248
C 9.76729391 16.24706960 5.66789082 -0.00087557 -0.00161418 0.00242172
C 3.22495317 16.84388017 5.41631871 -0.00554774 0.00699585 0.00563398
C 0.42115101 12.27416482 0.56573927 -0.00578714 0.00050212 -0.00258151
C -6.09656189 12.41908064 24.32763670 -0.00130364 0.00732853 -0.00570541
C -2.21442261 17.27684303 6.00012365 -0.00597714 0.00394716 -0.00240285
C 4.14536351 15.94264656 5.92642912 0.00617532 0.00090712 -0.00349407
C 12.46404184 11.61981075 0.30852891 -0.00598302 0.00400686 -0.00301430
C 1.83118891 14.62034452 3.45169640 0.00322401 -0.00064054 -0.00007634
C 1.42294140 9.84744692 2.61693691 -0.00187815 -0.00035775 -0.00191840
C 7.96211780 14.00633440 2.62809185 -0.00449503 0.00151908 0.00048981
C 8.39673335 18.81550120 3.38612354 -0.00432368 -0.00830351 0.00367331
C 0.72732857 15.56768741 3.30890049 -0.00153922 -0.00788241 0.00566923
C 2.66563569 10.62840203 2.85611223 -0.00230056 0.00158045 0.00450545
C 9.02880503 12.93835950 2.79052601 0.00797670 0.00068825 0.00845392
C 7.19963941 18.03663691 3.22548602 -0.00407591 0.00715450 -0.00061540
C -0.00371480 13.25139546 11.29019520 -0.00031286 -0.00607896 0.00634419
C -2.35148495 18.10608705 7.12426147 -0.00073269 0.00972756 0.00481550
C 3.87043285 15.06916190 6.98189480 -0.00140161 -0.00623556 -0.00515475
C 6.70609281 10.51304483 11.23838978 -0.00027727 -0.00087924 -0.00116813
C 1.17567398 13.16911701 10.52174830 0.00064197 0.00086054 -0.00247115
C 9.40540502 17.78699969 7.89525866 0.00728430 -0.00510611 -0.00561594
C 2.67737206 15.26792707 7.72511885 -0.00943578 -0.00581390 -0.00033291
C -5.22512079 10.86196241 10.60869900 -0.00379300 -0.00023507 0.00339618
C 2.21306435 12.26902491 10.81954292 0.00415061 -0.00031471 -0.00057052
C 8.38682069 16.92618011 7.47090641 0.00531325 0.00128844 -0.00924527
C 1.86483675 16.31259018 7.37569179 -0.00001891 0.01307112 -0.00215599
C -4.24934706 11.74853653 11.05472353 0.00044510 -0.00084598 0.00153220
C 2.04987046 11.40367448 11.92762671 -0.00054403 -0.00086767 -0.00298097
C 8.57687538 16.14107983 6.35054248 0.00194717 -0.00246420 0.00592758
C 2.07185169 17.08601938 6.17357988 0.00357630 -0.00096411 0.00444903
C -4.41794650 12.51904600 12.26024811 0.00640321 -0.00144861 0.00299636
C 3.87427461 11.48451346 6.46898633 0.00945374 0.00219578 0.00106741
C 6.86523360 16.41991909 11.57117124 0.00393259 0.00065887 0.00047500
C 0.29762733 17.15068137 11.65051281 0.00296492 0.00792975 -0.00303209
C -2.71416644 12.59790372 6.61395616 0.00463060 -0.00387604 0.00016047
C 2.78687970 12.31753461 6.12102873 -0.00653688 -0.00614016 -0.00090264
C -5.47958650 17.28235623 12.07188719 0.00457465 -0.00058598 0.00715368
C 1.20464224 16.22304180 12.04192199 -0.00467716 0.00044070 0.00810820
C 9.38935574 11.64380643 6.18221287 0.00884613 -0.00362783 0.00940498
C -1.19526606 14.72387705 9.74650379 0.00084523 0.00807895 0.00123759
C -1.22054217 9.98165836 8.78025827 -0.00106506 0.00624366 0.00447520
C 5.14130121 13.91951028 8.60326373 0.00215336 0.00553498 0.00547861
C 5.38859299 18.60629337 9.56475610 0.00106490 -0.00568811 0.00596332
C -2.34066683 15.70387027 9.56582268 -0.00738939 -0.00165782 -0.00316317
C 0.09205702 10.67364472 8.88365813 0.00615680 -0.00367461 0.00077612
C 6.30398712 13.04669064 8.98171401 -0.00193158 0.00012175 -0.00576862
C 4.17714924 17.71751474 9.47732138 0.00465697 0.00113985 0.00173590
C -2.97794139 13.26901908 17.27354607 -0.00012905 0.00700405 -0.00471752
C -5.73272182 18.15363146 13.09387784 0.00791869 -0.00689325 -0.00147381
C 0.98705713 15.43235065 13.22242989 -0.00465400 -0.00010890 0.01074287
C 3.67507770 10.71507041 17.18949923 -0.00054483 0.00408206 0.00342058
C -1.83433208 13.07205429 16.54705455 0.00968548 -0.00224045 -0.00000539
C 6.30621827 17.78932578 13.90408086 0.00257234 0.00247877 -0.00063694
C -0.23868761 15.57471452 13.85329060 -0.00038625 0.00358891 0.00181711
C -8.27414423 10.78744507 16.77361125 0.00019235 0.00228345 0.00014605
C -0.85543330 12.16532722 16.94939624 0.00239855 0.00539757 0.00088572
C 5.37026225 16.99759783 13.32978080 0.00008901 0.00040507 -0.00440364
C -1.17599494 16.56451856 13.48970395 0.00182318 -0.00862725 -0.00629869
C -7.27411847 11.67250027 17.16240694 -0.00635374 0.00662275 0.00282024
C -1.07818330 11.31484121 18.07636054 -0.00223774 -0.00403002 0.00875313
C 5.67081317 16.23482348 12.18228562 0.00402806 0.00005758 -0.00792506
C -0.87822076 17.40915520 12.40596645 0.00139819 -0.00852933 0.00726039
C -7.42975554 12.44502122 18.33797746 -0.00126163 -0.00117628 0.00145302
C 0.86963240 11.48646294 12.68922920 -0.00322909 0.00180956 -0.00175167
C 3.70812974 16.33071066 17.66591926 0.00084161 -0.00611808 -0.00604372
C -2.97368171 17.37692742 17.52456447 0.00402051 0.00223878 0.00558293
C -5.61341714 12.37574390 12.96654836 0.00338048 0.00636012 0.00383584
C -0.03783016 12.44880588 12.44885045 -0.00333996 0.00312542 0.00062277
C -8.65723022 17.33546635 18.22286785 0.00387732 0.00400572 -0.00094588
C -1.99579268 16.51191563 17.99667701 -0.00168957 0.00498893 -0.00187552
C 6.50007191 11.38378649 12.33146997 -0.00660208 0.00284473 0.00465687
C -4.26662657 14.69266993 15.80248603 -0.00480849 0.00306029 0.00055467
C -4.61564671 9.69289984 14.90950896 0.00586959 0.00239019 0.00002989
C 1.95582393 13.94647952 14.80128189 -0.00512979 -0.00067718 -0.00469479
C 2.58376399 18.77976955 15.54318522 -0.00288831 -0.00408332 0.00342917
C -5.54826721 15.38288427 15.72309220 0.00398527 0.00059326 0.00004819
C -3.44880255 10.63832480 15.03793273 -0.00180097 -0.00322261 -0.00584316
C 2.94351011 12.86978389 14.97046368 -0.00805750 0.00130739 -0.00045948
C 1.40428934 17.95187518 15.23303200 0.00081123 0.00026678 -0.00348162
C -5.91991775 13.32034202 23.25748831 -0.00085673 0.00334273 -0.00292319
C -8.75922242 18.17122818 19.39011733 -0.00725479 -0.00248364 0.00348904
C -2.17780950 15.65645657 19.09339380 -0.00190588 0.00052256 -0.00302552
C 0.70493641 10.82678523 23.54415108 -0.01139253 -0.00685096 0.00090147
C -4.64538164 13.26381334 22.64116888 0.00272478 -0.00140002 -0.00456279
C 3.26411907 18.15442258 19.71345627 0.00093076 -0.00106999 0.00481168
C -3.32747645 15.78051992 19.82137850 -0.00326405 0.00082471 -0.00083679
C 27.79788782 10.75417551 22.52498425 -0.00481785 -0.00675186 -0.00031582
C -3.61382046 12.51944281 23.15530478 -0.00390620 0.00275845 0.00627804
C 2.25812660 17.27270315 19.33962072 0.00353200 -0.00440137 -0.00378900
C -4.30018014 16.71704386 19.42147452 -0.00067812 -0.00540153 0.00328370
C -10.35215297 11.53968608 22.96303859 0.00012743 0.00083890 0.00062565
C -3.83636835 11.58827173 24.18335739 -0.00387166 0.00830633 -0.00502753
C 2.45269075 16.35545175 18.34174259 0.00045790 0.00175476 -0.00191258
C -4.20768794 17.44455217 18.21170225 -0.00224747 -0.00175159 -0.00702030
C -10.44438312 12.38436500 24.10172829 -0.00317086 -0.00299627 0.00175734
C -2.27272530 11.45316400 18.74446556 -0.00450246 0.00612532 0.00738191
C 0.62005396 16.10601497 24.10412096 -0.00376976 -0.00234850 -0.00129000
C -6.06195370 16.94373353 23.59581684 0.00171952 -0.00087612 -0.00742078
C -8.60883466 12.25186646 19.07369442 -0.00075377 -0.00430248 0.00410223
C -3.14144254 12.44408865 18.39705241 0.00066413 -0.00292417 0.00181671
C -11.64179355 17.15692996 24.27830096 0.00156713 0.00128719 0.00951621
C -5.05513084 16.23589755 24.17935858 -0.00247409 -0.00767444 0.00394749
C 3.53591099 11.56350481 18.34008178 -0.00017101 -0.00222499 -0.00661457
C -7.00307038 14.73207576 21.67464798 -0.00045571 -0.00031759 -0.00600485
C -7.37461141 9.94579122 20.86028936 0.00441259 -0.00415584 0.00221179
C -1.02444109 14.06553638 20.50580708 -0.00188645 -0.00332430 -0.00362442
C -0.31110364 18.97634635 21.66183621 0.00314744 -0.00594688 -0.00141170
C -8.29174576 15.43858217 21.42141788 -0.00193995 -0.00302987 0.00142957
C -6.21824144 10.94647312 20.96621787 0.00199893 0.00081699 -0.00291924
C 0.32181348 13.49732295 20.74273842 -0.00390780 0.00102434 -0.00640581
C -1.49862556 18.02532949 21.56313320 -0.00057383 -0.00106296 0.00144227
C 3.23545486 22.90193531 5.04024132 -0.00773935 0.00142094 -0.00921941
C 0.44957274 27.66695720 0.92514843 -0.01107495 -0.00445678 0.00289748
C 6.84172542 25.12074569 0.92960711 0.00276192 0.00702447 -0.00025854
C 9.73187296 20.09042402 5.05541588 -0.00213823 -0.00024314 -0.00159370
C 4.45639851 22.77398746 4.43838288 0.00294818 0.00037324 -0.00233930
C 12.20210066 27.77808883 1.54022808 0.00334443 0.00074462 0.00125445
C 5.62739652 25.14089527 1.61656145 -0.00695026 0.00151231 0.00770466
C -2.02463711 20.46830099 4.54418175 0.00363650 -0.00198197 0.00947912
C 5.42046851 21.86308092 4.82855850 -0.00367453 -0.00441735 0.00423755
C 11.17892794 26.86530978 1.18470396 0.00151419 0.00526809 0.00059641
C 4.59314212 25.94089821 1.17899517 0.00030961 -0.00393880 -0.00189078
C -1.07602883 21.41498243 4.81872291 0.00526611 0.00579713 -0.00246813
C 5.02753002 20.93576850 5.86623571 -0.01061181 -0.00310110 0.00006280
C 11.39493351 25.90143841 0.13357924 -0.00296955 0.00176970 0.00670148
C 4.85556214 26.87577932 0.17683706 -0.00619350 -0.00065181 0.00372104
C -1.11002674 22.12325377 6.02177761 -0.00284816 0.00124281 -0.00116628
C 7.11596042 21.03994475 0.49534163 0.00310126 0.00163074 0.00704226
C 9.51497965 26.32992399 5.25200517 0.00355683 0.00638930 -0.00501278
C 3.18900706 26.86476799 5.47646431 0.00194075 0.00434295 0.00404168
C 0.25370153 22.08480320 0.44498577 -0.00068625 0.00622265 -0.00617343
C 6.01361875 21.82960327 0.18940860 0.00452449 0.00990631 -0.00227937
C -2.18639540 26.81151879 5.78474561 -0.00217996 -0.00038002 0.00242682
C 4.17326165 26.01919372 5.98146930 -0.00025885 -0.00190503 -0.00209564
C 12.60514816 21.23191885 0.08046855 0.00372761 0.00075313 -0.00480329
C 2.00701761 24.24621441 3.48266436 0.00060966 0.01012972 0.00035298
C 1.75842826 19.34203294 2.52109009 -0.00088492 0.00471602 0.01077135
C 7.96929166 23.69853638 2.52768834 0.00436756 -0.00413293 -0.00771858
C 8.25842132 28.59993983 3.53725216 0.00027146 0.00145278 0.00110802
C 0.82295348 25.22736609 3.36388918 0.00007009 -0.00632795 0.00670699
C 3.04829600 20.04468373 2.69471394 0.00607581 0.00265169 -0.00300063
C 9.27227495 22.95392149 2.85650799 0.00081868 0.00082959 -0.00558309
C 7.06635511 27.76753104 3.22700317 0.00084738 0.00018339 -0.00109242
C 0.19018945 22.76103994 11.04492477 0.00260092 0.00150979 -0.00203588
C -2.40534765 27.60250902 6.93994643 -0.00108278 -0.00160235 -0.00418035
C 3.94512509 25.22239458 7.04682552 0.00427522 0.00408908 -0.00305056
C 6.53019102 20.16014452 11.11613515 0.00292406 -0.00219563 0.00276724
C 1.43871654 22.60461270 10.41742194 -0.00023306 -0.00172940 0.00066224
C 9.02117596 27.72518771 7.59655963 -0.00446846 0.00170565 -0.00340805
C 2.64093882 25.24669322 7.67256785 -0.01087910 0.00231669 -0.00230632
C 33.99410603 20.48271850 10.49372217 0.00101409 -0.00491659 -0.00230075
C 2.33514806 21.69092135 10.89556859 0.00037961 -0.00294408 -0.00108633
C 8.09177506 26.85368899 7.14906921 -0.00373020 -0.00704910 -0.00177729
C 1.71993399 26.20106878 7.26986531 0.00202860 0.00569625 0.00100141
C -4.30188973 21.44201707 10.94484736 -0.00471868 0.00405803 -0.00114794
C 2.05874805 20.82370954 11.99664067 -0.00215108 0.00454500 -0.00066535
C 8.26344567 26.12669300 5.93360478 -0.00776354 -0.00296210 0.00387596
C 1.92788429 26.97686474 6.11162966 0.00424612 -0.00500311 -0.00205353
C -4.41170938 22.13098029 12.14884567 0.00753882 -0.00251721 0.00663671
C 3.81185892 21.07884040 6.49593410 -0.00165414 -0.00185053 0.00164481
C 6.61142090 26.04496022 11.63099845 -0.00381988 0.00037762 0.00012643
C 0.32185556 26.74800783 11.55442265 0.00469043 -0.00188649 -0.00776671
C -2.36274726 22.10301412 6.65406675 -0.00344509 0.00345200 0.00184220
C 2.87542244 21.99557169 6.07284761 0.00466366 0.00268718 -0.00073446
C -5.20956828 27.17323489 11.96771672 -0.00202402 -0.00151453 -0.00181737
C 1.29532940 25.92843188 12.09404547 -0.00228647 -0.00006261 0.00001840
C 9.39285778 20.93836878 6.11154894 -0.00508325 -0.00364108 -0.00540125
C -0.97068751 24.29344362 9.58349935 0.00744288 -0.00778240 0.00203946
C -1.19972371 19.59724310 8.68250495 0.00217779 0.00462611 0.00359045
C 5.12768206 23.78644894 8.62338754 0.00261845 0.00355135 -0.00005718
C 5.36180846 28.51576804 9.79962250 0.00549550 -0.00188451 0.00538964
C -2.23921641 25.00491428 9.54451065 0.00635939 0.00673695 0.00016745
C 0.13261084 20.21569733 8.88862766 -0.00232734 0.00421348 -0.00439171
C 6.42947076 23.02909319 8.66188181 0.00175475 -0.00217992 -0.00090512
C 4.00554263 27.81314548 9.65374381 -0.00357567 -0.00117772 0.00039103
C -2.91721086 22.97698904 17.32908877 -0.00083571 -0.00001703 -0.00077014
C -5.28418916 27.88415262 13.14993045 -0.00196243 -0.00238600 0.00066103
C 0.96248817 25.10802075 13.18235521 -0.00629725 0.00215344 0.00201959
C 3.73184057 20.20088457 17.09001129 -0.00213951 0.00186615 -0.00177925
C -1.78229436 22.79901918 16.51414330 0.00478411 -0.00420904 0.00105723
C 6.30585547 27.54285933 13.98536230 0.00455803 0.00259222 0.00884651
C -0.27126167 25.29474836 13.81784244 0.01088815 0.00238335 -0.00086894
C 30.98630431 20.62101930 16.57625393 -0.00598771 0.00241710 -0.00016787
C -0.74833049 21.95086408 16.97270244 -0.01054739 -0.00141970 0.00228542
C 5.29517614 26.70511583 13.54354556 0.00520049 -0.00179294 -0.00433688
C -1.19758350 26.19851777 13.35040690 0.00131688 -0.00160153 -0.00996839
C -7.27782952 21.48648016 17.00388141 -0.00467434 -0.00498727 0.00017016
C -0.99563115 21.10862006 18.00863186 0.00442840 -0.00396131 -0.00580035
C 5.33588700 26.01402312 12.32163576 0.00009554 0.00219473 0.00103453
C -0.91933412 26.94731965 12.22462407 0.00509958 -0.00914598 0.00121736
C -7.37412962 22.12434995 18.30342542 0.00464313 -0.00915878 -0.00312074
C 0.83502288 21.02068541 12.65806557 -0.00233209 -0.00943978 -0.00613157
C 3.71200555 26.04420002 17.69630594 0.00758044 -0.00365646 0.00684069
C -2.58958133 26.95770018 17.61480594 -0.00503142 -0.00162875 -0.00228552
C -5.68258375 22.02663085 12.81779998 -0.00462589 0.00139363 -0.00537857
C -0.07078064 21.92674983 12.23256464 -0.00131941 -0.00433193 -0.00313849
C -8.11328800 26.89732330 18.17884348 0.01192072 0.00157613 -0.00198560
C -1.70016074 26.04865157 18.05428198 0.00049529 -0.00167530 -0.00173549
C 6.32445632 20.98459291 12.19212456 0.00227897 -0.00362938 -0.00000505
C -4.07647837 24.44386203 15.73475266 -0.00158959 -0.00064682 0.00271710
C -4.61443488 19.67472888 14.67308500 -0.00483499 -0.00285964 -0.00095637
C 2.17530030 23.71295240 14.76781646 -0.00020612 0.00625991 0.00116806
C 2.48772234 28.40644967 15.76238675 -0.00401075 -0.00717708 -0.00229862
C -5.22768165 25.39304608 15.55517484 0.00222762 0.00721871 0.00397525
C -3.43230050 20.54323031 14.81349350 -0.00819895 -0.00881713 -0.00133957
C 3.52903952 23.00196197 14.89416442 -0.00430434 0.00000733 0.00238592
C 1.31248285 27.48315429 15.72628231 -0.00259763 -0.00514529 0.00300340
C -5.90547394 22.81344429 23.57316332 -0.00139958 -0.00188290 -0.00582351
C -8.38321929 27.59769149 19.36512604 0.00866033 0.00229837 0.00099355
C -1.93548301 25.14382548 19.12508201 0.00030910 0.00718445 -0.00267902
C 0.80499236 20.47908981 23.23368733 -0.00253742 0.00534441 -0.00062084
C -4.75301070 22.86290995 22.79693481 0.01073979 -0.00276785 -0.00478241
C 3.26789022 27.60888131 19.94696706 0.00115320 -0.00299246 -0.00985074
C -3.18647244 25.17389925 19.76063995 0.00016753 -0.00326414 0.00183368
C 27.87961578 20.25763334 22.76167027 0.00427316 0.00117558 0.00510353
C -3.64791155 22.07905672 23.10485438 -0.00392660 -0.00217576 -0.00014582
C 2.29031148 26.81200677 19.43297565 0.00267986 -0.00205667 0.00089455
C -4.14798549 26.07470612 19.31231020 0.00718180 0.00105756 0.00218543
C -10.30278973 21.04700510 23.17515225 -0.00375567 -0.01132112 -0.00456104
C -3.69004177 21.18000855 24.21137446 -0.00100790 -0.00109903 -0.00055807
C 2.50748411 25.94272186 18.33536664 0.00577759 -0.00368520 -0.00133473
C -3.88510576 26.95460606 18.25061980 0.00879180 -0.00384699 -0.00193029
C -10.51494782 21.87823112 24.28406551 0.00517483 0.00330116 -0.00042859
C -2.12173420 21.25395907 18.80294538 0.00022713 0.00174306 -0.00180344
C 0.69457427 25.88838432 23.96391731 0.00633772 0.01050768 0.00763238
C -5.97772745 26.77085617 23.75837200 0.00365548 0.00481747 -0.00521395
C -8.55001480 21.93275784 19.03971398 -0.00485363 0.00388191 -0.00059984
C -3.03224810 22.21365461 18.46851499 -0.00033594 0.00755996 0.00237210
C -11.39285899 26.69927398 24.24408436 -0.00314133 -0.00232067 -0.00070592
C -4.99656204 25.90307169 24.15001568 0.00136362 0.00063948 0.00214309
C 3.52108950 20.97639464 18.25276134 -0.00136817 -0.00176678 -0.00193411
C -7.10482949 24.22710679 21.99577505 0.00706943 0.00118353 0.00264404
C -7.43700323 19.48617485 20.87203957 0.00201463 -0.00013328 -0.00504258
C -0.72565626 23.75880996 20.67816240 0.00113950 0.00418575 -0.00253840
C -0.53013119 28.38572907 21.73253048 0.00429324 0.00574068 -0.00012854
C -8.33608142 25.07200539 21.87082866 0.00540252 0.00409598 0.00089984
C -6.20334551 20.30284858 21.10016902 0.00264671 0.00113958 -0.00246783
C 0.49932474 22.86390717 20.86440993 -0.00212402 0.00587262 -0.00554153
C -1.60196488 27.32600488 21.49185283 0.00041359 0.00719808 -0.00676894
C 16.14575187 3.59980977 5.19745708 0.00502892 -0.00157493 0.00293302
C 13.40748922 8.51850480 1.05090499 0.00960365 0.00331892 0.00243061
C 19.91259804 5.81137358 1.13377920 -0.00172252 -0.00669503 -0.00284668
C 22.71082267 1.16174129 5.04327578 0.00605099 -0.00155635 0.00232234
C 17.28901258 3.54925783 4.48439528 -0.01040332 0.00078448 0.00091063
C 25.10708023 8.44675146 1.46034309 0.00278060 -0.00248687 0.00419275
C 18.62389645 6.00408819 1.73433066 -0.00126211 -0.01021223 -0.00177504
C 10.65411414 1.16209409 4.53726786 -0.00452663 -0.00141089 -0.00113445
C 18.22306278 2.55051256 4.71890074 0.00045473 0.00042242 0.00430011
C 24.20432359 7.46790687 1.18204953 -0.00356722 0.00345610 0.00035918
C 17.72032845 6.95501815 1.29630821 0.00019075 0.00624144 0.00447496
C 11.62144128 2.02611486 4.90467433 0.00199750 0.00755652 0.00427065
C 18.20026255 1.82215830 5.89701374 -0.00153717 -0.00344516 0.00497254
C 24.42638627 6.62371935 0.06591201 0.00110204 0.00185127 -0.00449776
C 18.02509556 7.79954996 0.22404135 0.00499652 0.00786851 0.01201630
C 11.49525622 2.79650612 6.07629219 0.00145490 0.00068657 -0.00075426
C 19.97164874 1.95341798 0.46900569 0.00136390 0.00338960 -0.00481798
C 22.87527488 6.72333313 5.49391458 0.00042977 -0.00310818 0.00057552
C 16.19208274 7.58244024 5.67256481 0.00126198 -0.00055082 -0.00239026
C 13.22734667 2.68091549 0.63503957 0.00062395 -0.00045569 0.00284495
C 18.95483375 2.77427881 0.02322110 0.00048603 0.00304141 -0.00113942
C 10.82260268 7.65896448 5.91522729 -0.00355850 0.00749688 -0.00650434
C 17.19587593 6.73567208 6.04372794 -0.00248674 0.00578493 -0.00759116
C 25.39915981 2.23317627 0.23482928 0.00328986 -0.00022404 -0.00016753
C 14.98825544 4.93847556 3.56579372 -0.00102710 -0.00450622 0.00026337
C 14.74902810 0.27199599 2.43644399 -0.00062635 -0.00337716 -0.00081127
C 20.99371370 4.33771616 2.75608845 -0.00682715 -0.00007458 0.00260413
C 21.46358938 9.20861224 3.45784703 -0.00526878 -0.00551669 -0.00515669
C 13.67269345 5.68479351 3.36224090 0.00158157 -0.00143253 0.00181659
C 16.08680939 0.98669531 2.49484791 -0.00063886 -0.00582975 -0.00574814