2880
Time=7000.00000000 pbc="T T T" Lattice="39.39902676 0.00000000 0.00000000 0.00000000 28.89277765 0.00000000 -12.01095782 0.00000000 24.33260961" energy=-18396.50239259 virial="-32.99853738 16.11809529 -89.62437405 16.11809529 -41.14407719 10.54647526 -89.62437405 10.54647526 25.48369652" stress="0.00139036 0.00060455 -0.00340534 0.00060455 0.00081213 0.00037962 -0.00340534 0.00037962 0.00350356" Properties=species:S:1:pos:R:3:vel:R:3
C 3.08123467 3.80452231 4.94190624 0.00480734 -0.00397872 0.00242524
C 0.49826268 8.63317383 1.07229207 0.00497641 0.00245423 0.00858091
C 7.10500126 5.81733801 0.84928527 0.00093111 -0.00134296 0.00534049
C 9.69796133 1.13480416 5.03986935 -0.00046445 0.00670996 0.00341848
C 4.30299799 3.77702134 4.28252853 0.00511408 -0.00144065 -0.00769688
C 12.37697228 8.45863388 1.35814788 0.00053664 -0.00173937 -0.00482155
C 5.93807558 5.98708665 1.53172344 0.00420495 0.00139216 -0.00170992
C -2.06457755 1.22286186 4.34748959 -0.00449078 0.00756147 -0.00119155
C 5.28485072 2.85087527 4.62624844 0.00789982 -0.00176680 0.00321806
C 11.32716149 7.68569031 0.80768911 0.00301920 -0.00192163 0.00283729
C 4.93861735 6.79819378 1.09579994 0.00441412 0.00139593 0.00067037
C -1.09527027 2.03151949 4.88287793 -0.00445711 0.00307116 -0.00346080
C 5.17391201 2.02341301 5.80272425 0.00116962 0.00346828 0.00365654
C -0.48899872 6.92907301 24.00487141 0.00564897 -0.00083767 -0.00719440
C -6.86318278 7.67656160 24.30784257 0.00751167 0.00728731 -0.00126263
C -1.39218522 2.95857873 5.92695043 0.00074367 -0.00383489 0.00015326
C 6.94272184 1.68466612 0.18178051 -0.00412787 0.00050246 -0.00847098
C 9.69924976 6.99097190 5.16320682 -0.00585038 0.00051122 0.00797887
C 3.03542879 7.68665066 5.44115594 0.00266408 0.00546565 0.00448888
C 0.38316805 2.84250974 0.46224955 0.00005982 -0.00341021 -0.00226936
C -5.96632445 2.70179268 24.25359829 -0.00509921 0.00569445 0.00277362
C -2.70700801 7.70680281 5.99567918 0.00330571 -0.00099579 -0.00214169
C 4.04106586 6.82111117 5.79717093 -0.00845220 -0.00135784 0.00771820
C 12.51045843 2.15073142 0.23427405 0.00650184 0.00474775 -0.00267531
C 1.73898116 5.21098536 3.35710851 0.00640427 0.00134589 -0.00019176
C 1.47793034 0.34090437 2.48140870 0.00705407 -0.00540637 -0.00346633
C 8.24619526 4.51183903 2.38129979 0.01001107 0.00400995 -0.00505227
C 8.60079685 9.42104803 3.32089214 -0.00295576 -0.00087280 0.00359521
C 0.56864365 6.16505121 3.21202760 0.00464872 -0.00109796 -0.00336121
C 2.54180835 1.31930274 2.72836627 -0.00012973 0.00216200 0.00165334
C 9.48927139 3.71585704 2.60704652 0.00051769 -0.00077510 0.00022516
C 7.46665742 8.42451299 3.23742797 -0.00176060 0.00829150 -0.00457154
C 0.31068462 3.71498728 11.08278057 -0.00708585 0.00049838 0.00051736
C -2.85275613 8.56684100 7.10065548 -0.00145727 0.00779867 0.00291868
C 3.86432729 5.96336288 6.90349543 -0.00341285 -0.00062579 -0.00273690
C 6.76413625 1.04011214 11.08930683 -0.00322504 -0.00489191 0.00297513
C 1.55571967 3.61149937 10.45333884 0.00296002 -0.00567431 -0.00538831
C 9.28239685 8.57327711 7.42461708 -0.00569013 -0.00273602 -0.00281797
C 2.65590577 5.94617946 7.56942543 -0.00136561 -0.00298267 0.00265717
C -5.19880021 1.10372873 10.54892973 0.00516680 -0.00415191 0.00080068
C 2.47868551 2.68400178 10.89454415 -0.00219381 0.00293901 0.00070192
C 8.20885369 7.91359495 6.90639723 0.00221207 -0.00083010 -0.00264242
C 1.71205713 6.93976337 7.30092708 -0.00951941 0.00401012 -0.00567070
C -4.16855111 2.02635223 10.96374221 -0.00008443 -0.00290632 0.00241269
C 2.27004428 1.90739745 12.05307515 -0.00348250 0.00468148 0.00198658
C 8.41062241 7.04789703 5.74261311 -0.00020785 0.00064056 0.00529994
C 1.80727034 7.72210569 6.15838648 -0.00279717 -0.01032192 -0.00168838
C -4.27761224 2.75123026 12.15667996 -0.00805477 -0.00228739 -0.00410622
C 3.98366548 2.11395747 6.55958108 -0.00203079 0.00779981 -0.00626843
C 6.70348012 7.06090368 11.41423987 -0.00690707 0.00036841 0.00032365
C 0.15437060 7.72732412 11.61612578 -0.00125091 -0.00034841 -0.00186488
C -2.63138408 2.76686502 6.57803919 -0.00319423 0.00047222 0.00080309
C 2.99031833 2.99697942 6.10078856 0.00019412 -0.00421425 0.00274027
C -5.22953494 7.86796292 12.19437268 -0.00463324 0.00076380 0.00060122
C 1.17627371 6.85280407 11.97401861 -0.00568643 0.00309308 0.00202825
C 9.48474362 2.06036668 6.06818193 0.00353664 0.00409278 -0.00528779
C -0.83148359 5.17394219 9.47370925 0.00621713 -0.00013766 -0.00070982
C -1.60812331 0.09427265 8.78253830 0.00064864 -0.00406555 -0.00290507
C 5.09106684 4.58883264 8.49152186 0.00656998 0.00289193 -0.00079307
C 5.46270447 9.30056087 9.53611801 0.00694279 0.00296009 0.00238028
C -2.09768658 6.01383159 9.21281846 0.00198113 -0.00172936 -0.00777006
C -0.64306662 1.18795250 9.07183665 0.00305779 -0.00063260 -0.00092777
C 6.38832989 3.84593006 8.69350615 -0.00185120 0.00406421 0.00518513
C 4.37592524 8.26242487 9.36654685 0.00100141 0.00524695 0.00116079
C -2.87786173 3.61892749 17.15798663 -0.00183623 0.00410083 -0.00187392
C -5.53077776 8.63835462 13.33009848 -0.00506358 0.00352155 0.00144916
C 1.05269239 5.98211532 13.06084385 0.00004125 0.00518512 -0.00119796
C 3.75423028 1.09735533 17.28973454 -0.01037917 -0.00147879 -0.00430014
C -1.58294422 3.42893422 16.52609240 0.00419396 -0.00464386 -0.00225262
C 6.28109892 8.58623564 13.64275880 -0.00414200 -0.00256880 -0.00787815
C -0.20284789 6.05181912 13.69743125 -0.00174855 0.00546232 0.00309549
C -8.08189669 1.02883968 16.54593919 -0.00209011 -0.00346734 0.00292434
C -0.65376467 2.60625718 17.04341099 -0.00493316 0.00181374 -0.00022211
C 5.38247121 7.61746213 13.31174508 -0.00666649 0.00411338 0.00075093
C -1.14526156 6.96471349 13.34145309 0.00363456 0.00711131 -0.00346127
C -7.04373683 1.81577949 16.94593522 -0.00303539 -0.00029063 0.00052867
C -0.93259250 1.74163058 18.12027429 -0.01079839 0.00015725 -0.00026896
C 5.48392664 6.89061940 12.12848140 0.00519764 0.00514021 0.00451432
C -1.00826745 7.83425992 12.28796281 -0.00441034 -0.00116262 -0.00657146
C -7.16716150 2.64158418 18.10757239 -0.00495636 0.00102151 -0.00180365
C 0.99554696 2.07354337 12.70670115 -0.00084140 -0.00517045 -0.01176388
C 4.05417041 6.83926373 17.63425245 0.00109105 0.00065013 0.00762565
C -2.54116217 7.43009077 17.51505450 0.00428332 0.00251154 -0.00033356
C -5.46364398 2.60942623 12.89123998 -0.00452148 -0.00053500 0.00027254
C 0.07936586 2.91498813 12.24564465 -0.00268848 0.00650247 -0.00506563
C -8.27160274 7.69096395 18.14275538 0.00321399 0.00116901 -0.01136253
C -1.56080238 6.58578091 17.99729525 0.00365414 -0.00477588 -0.00103067
C 6.55570879 1.75585347 12.32231848 0.00074657 0.00732358 -0.00679678
C -3.78246256 5.14242764 15.55792307 -0.00173490 -0.00111957 -0.00295448
C -4.07355862 0.07031132 14.46507959 0.01095813 0.00402265 -0.00047356
C 2.23449465 4.46803768 14.58414436 -0.00013690 -0.00509099 -0.00167780
C 2.57992474 9.23800783 15.49792458 0.00388821 0.00600249 0.00404120
C -4.97783703 6.01221157 15.24052073 -0.00478501 -0.00002422 -0.00503682
C -2.90398878 1.04313226 14.50021302 -0.00958693 0.00125937 0.00011684
C 3.45317528 3.58165715 14.79799728 -0.00267315 -0.00092201 -0.00086470
C 1.41239332 8.31308623 15.23376874 -0.00031709 -0.00301220 0.00084391
C -5.82472487 3.59011755 23.18477619 -0.00663588 -0.00062024 0.00210784
C -8.40640101 8.55166294 19.24860095 0.00083473 -0.00309407 -0.00190174
C -1.73800349 5.70319858 19.06583977 0.00572698 0.00108302 0.00213053
C 0.65965108 1.21757516 23.46984988 -0.00823198 -0.00486338 0.00023089
C -4.56017046 3.60695193 22.48381438 -0.00070162 0.00646532 -0.00169721
C 3.60096167 8.46215473 19.80422465 0.00060921 0.00560128 -0.00800932
C -2.96213716 5.88426984 19.80166422 0.00366377 -0.00696364 0.00238401
C 28.05347915 1.18906043 22.65340635 0.00191512 -0.00480573 0.00200619
C -3.58922347 2.70628912 22.87749090 -0.00225678 0.00092199 -0.00325535
C 2.67566671 7.59280186 19.36782563 -0.01258169 -0.00381927 -0.00135591
C -3.86160591 6.86362974 19.48285291 0.00092050 0.00020440 0.00102166
C -10.31751753 2.03118701 23.03628659 0.00418043 -0.00295643 -0.00347229
C -3.79791418 1.79668798 24.01274647 -0.00036212 0.00006462 -0.00962594
C 2.79504789 6.80587160 18.16857482 0.00384720 0.00471493 0.00316332
C -3.72453514 7.64137470 18.32958624 0.00132830 0.00117272 0.00300655
C -10.43041209 2.89745155 24.13477458 0.00195533 -0.01376276 0.00011830
C -2.18704389 1.86789954 18.73684063 -0.00546301 0.00963931 0.00133446
C 0.82676600 6.86784488 23.46054548 0.00491485 -0.00630882 0.00180766
C -5.69080032 7.48905879 23.57840265 -0.00726870 0.00013713 -0.00696292
C -8.39167245 2.62591275 18.80160222 -0.00219127 -0.00270482 0.00426352
C -3.08957658 2.75121251 18.27249893 0.00445120 -0.00493337 0.00186044
C -11.34633097 7.84880929 24.22067374 -0.00308014 0.00542674 0.00209664
C -4.74521507 6.60499168 24.03283731 0.00344275 0.00373194 -0.00088078
C 3.60448107 1.99485914 18.39344452 -0.00558227 0.00192330 0.00166215
C -7.08245610 5.13357502 21.79517885 0.00316108 0.00007903 0.00070996
C -7.52383257 28.76142344 20.67285668 0.00317902 -0.00087626 0.00167798
C -0.50752937 4.18821975 20.51478771 0.00106791 0.00270685 0.00091626
C -0.34724925 9.30116789 21.56936160 0.00451360 -0.00263751 0.00111668
C -8.33069873 5.90028880 21.70477232 0.00404839 0.00643970 -0.00994111
C -6.51588746 0.89754119 20.94325730 -0.00506860 0.00412185 -0.00590558
C 0.60692826 3.17035939 20.60485701 -0.00139520 -0.00918782 0.00711336
C -1.60609663 8.54666152 21.27215213 0.00271351 -0.00617229 -0.00932007
C 3.11701339 13.42784123 5.17666683 0.00492927 -0.00233316 -0.00679048
C 0.38127085 18.03104376 0.78975457 -0.00489913 -0.00015612 -0.00576898
C 7.17606318 15.61740338 0.77075228 -0.00921952 0.00333163 0.00821299
C 9.80160546 10.82963631 4.96549107 -0.00283802 0.00387325 0.00470192
C 4.22662876 13.25752612 4.36079737 0.00585232 0.00234043 -0.00379944
C 12.30385449 18.19968382 1.60874002 0.00185628 0.00457789 -0.00205906
C 5.88609699 15.61214295 1.42029871 -0.00152393 -0.00228212 -0.00100742
C 37.03997617 10.82971001 4.59818443 0.00112407 -0.00015684 -0.00450975
C 5.26693075 12.38754805 4.72158443 -0.00087743 0.00302005 0.00091258
C 11.40223334 17.25051471 1.17377815 0.00118625 -0.00399093 0.00105379
C 4.91103965 16.54420390 1.08781386 0.00295247 0.00541365 -0.00335313
C -1.35222022 11.61699931 5.12965816 0.00178224 -0.00102796 -0.00664509
C 5.19773624 11.63438762 5.90084248 -0.00076586 -0.00046794 0.00361387
C 11.70136846 16.39730018 0.07757365 -0.00645494 0.00242582 0.00295152
C -6.99547542 17.30510797 24.22166876 -0.00406694 -0.00163739 -0.00062364
C -1.52105453 12.40692817 6.24760622 -0.00040966 0.00567101 0.00172107
C 6.96272741 11.74981310 0.43445206 0.00023964 0.00021666 -0.00083795
C 9.89339170 16.21698232 5.50213364 -0.00657021 -0.00287141 -0.00144503
C 3.46894207 17.27890669 5.34979538 -0.00497184 0.00238124 0.00311849
C 0.35668844 12.41021548 0.77088829 0.00307502 -0.00182502 0.00115347
C 5.98815356 12.66011444 0.00099729 0.00194093 0.00387720 -0.00085561
C -2.21720970 17.36545473 5.96131039 -0.00463126 -0.00096883 0.00025920
C 4.39678327 16.38421249 5.84343860 0.00218116 0.00073496 -0.00625679
C 0.47632877 11.53182172 24.21536434 -0.00014092 -0.00081371 -0.00128649
C 1.85552162 14.85213553 3.72358908 0.00971265 -0.00069883 0.00873935
C 1.64296789 9.97493950 2.60975594 0.00442417 -0.00368783 0.00911666
C 8.31569167 14.12585956 2.40532290 -0.00159024 -0.00001195 -0.00049377
C 8.68312467 19.06032617 3.67108265 -0.00297676 0.00352421 0.00320392
C 0.51171260 15.53686140 3.49170139 -0.00607101 0.00627584 -0.00076335
C 2.91010012 10.80265388 2.90927218 0.00437546 0.00597474 0.00094194
C 9.52186782 13.35381954 2.63740917 0.00281136 0.00088392 -0.00473252
C 7.33773092 18.45436257 3.52570814 -0.00564366 0.00062479 0.00770102
C 0.00205764 13.38366904 11.29215437 -0.00541001 0.00492075 -0.00009466
C -2.46413633 18.21810776 7.06271907 0.01119328 -0.00067070 -0.00052805
C 4.15462133 15.63225694 6.98849287 -0.00076743 -0.00014225 0.00521199
C 6.52345112 10.75980739 11.13857027 -0.00232949 -0.00475337 -0.00146723
C 1.14995119 13.16838207 10.51880563 0.00398650 0.00808887 0.00311261
C 9.32452937 17.82601951 7.71527929 -0.00000179 0.00364208 0.00003071
C 2.92370154 15.81900048 7.64984210 -0.00641419 -0.00521272 0.00160615
C 34.06537809 10.91260094 10.66267408 0.00027981 -0.00515704 0.00317412
C 2.12218812 12.27679627 10.80713441 0.00678868 0.00151974 0.00136085
C 8.32850988 16.99861448 7.25895805 -0.00143620 0.00346326 0.00133266
C 1.95619092 16.68987732 7.18517137 0.00358876 -0.00307379 0.00038015
C -4.35152945 11.72771197 11.10447963 -0.00313646 -0.00234053 -0.00181920
C 2.05144982 11.64758191 12.09232357 0.00850035 -0.00113267 -0.00101394
C 8.61991140 16.18100611 6.09182742 0.00855444 -0.00111506 -0.00025416
C 2.22060293 17.42432024 5.93377512 0.00057198 -0.00044881 0.01076701
C -4.59495783 12.58087127 12.20862914 0.00049747 -0.00660827 -0.00327232
C 4.04132327 11.78432035 6.72965535 0.00067924 0.00655295 0.00516535
C 6.60561223 16.64639944 11.47117684 -0.00315412 0.00267864 0.00249710
C 0.26039815 17.43839052 11.56085157 -0.00301977 -0.00688803 0.00281837
C -2.80989048 12.29521294 6.86628256 0.00775574 -0.00798164 -0.00512636
C 3.05700707 12.65088787 6.33116664 0.00042334 -0.00467901 0.00260215
C -5.59224376 17.15089693 12.00737452 0.00011685 -0.00102227 0.00392520
C 1.22704507 16.61281759 11.93873688 0.00441390 0.00180867 -0.00040610
C 9.60109503 11.50908404 6.14169779 -0.00014767 -0.00591014 0.00091187
C -1.14553304 14.80180456 9.72573913 -0.00793750 0.00563246 0.00306128
C -1.65944287 9.93870623 8.61428154 0.00471127 0.00659338 0.00721725
C 5.26139910 14.12622357 8.53964940 -0.00255413 -0.00158967 0.00388836
C 5.54087439 19.07174610 9.52886190 0.00150665 -0.00296354 -0.00289772
C -2.41356159 15.56849146 9.56398988 -0.00707600 0.00872818 0.00476566
C -0.42068522 10.82052647 8.87526547 0.00430608 -0.00427312 -0.00380409
C 6.40443790 13.11553121 8.70125761 0.00354652 0.00336013 0.00112445
C 4.18942896 18.42852465 9.24942515 -0.00089333 -0.00391070 -0.00669470
C -2.62623253 13.23479051 17.27058238 -0.00169115 0.00676207 -0.00176616
C -5.69394408 18.02819961 13.10899889 0.00165188 0.00256176 0.00261143
C 1.06878360 15.66694297 13.03161726 -0.01258632 -0.00520133 -0.00342199
C 3.81916350 10.54616657 17.20560375 0.00392859 0.00245434 0.00249486
C -1.34600284 13.27447164 16.66552825 -0.00647969 -0.00058735 0.00169147
C 6.12461956 18.14438257 13.72917884 -0.00066423 0.00174412 -0.00824943
C -0.16374148 15.68454417 13.66798514 0.00072182 0.00665718 0.00635380
C -8.06001554 10.64695281 16.74542374 0.00126291 -0.00422281 0.00172597
C -0.33304270 12.38071608 17.09366457 0.00184564 -0.00662758 0.00897381
C 5.19320947 17.16972212 13.30279020 -0.00420912 -0.00491046 0.00474499
C -1.13617618 16.57683759 13.35655481 -0.00109945 -0.00653209 -0.00849927
C -7.01887448 11.51985527 17.14152654 -0.00185763 -0.00418411 -0.00446302
C -0.55603400 11.56522825 18.22034470 -0.00038072 -0.00062673 -0.00239391
C 5.39360544 16.50010562 12.13865533 0.00052455 -0.00259508 0.00813469
C -0.97531777 17.50315123 12.30165269 0.00721160 0.00029595 0.00506548
C -7.18481765 12.29162235 18.27835213 -0.00017413 -0.00487277 0.00518746
C 0.85155243 11.72592884 12.84562277 -0.00221476 0.00362569 -0.00401807
C 3.69627308 16.43162501 17.65982549 -0.00912695 0.00066589 -0.00411644
C -3.15649608 17.27293677 17.53324227 -0.00049899 -0.00012406 0.00007678
C -5.81644124 12.48913475 12.90977002 -0.00265770 0.00060083 0.00093046
C -0.17916659 12.57541029 12.39447361 -0.00081638 -0.00080750 -0.00238362
C -8.45252415 17.34589967 18.23276746 0.00124944 0.00001794 -0.00340914
C -2.13558010 16.46322449 17.86247662 0.00814050 0.00411578 0.00351240
C 6.32632432 11.63573052 12.20141863 -0.00273109 0.00556113 -0.00270515
C -3.98944648 14.61580283 15.73605074 -0.00202920 0.00262467 0.00054055
C -4.31891851 9.92043206 14.98927788 -0.00024087 0.00359113 -0.00191138
C 2.18086496 14.14919444 14.44886968 -0.00050164 -0.00349491 -0.00695637
C 2.60849810 18.94334052 15.63404758 -0.00047451 -0.00338035 0.00135556
C -5.39490507 15.26609345 15.58938278 0.00250286 -0.00166406 0.00427742
C -2.98303840 10.57687138 15.18053650 -0.00268379 0.00224197 -0.00117837
C 3.34302962 13.22956497 14.63227096 0.00057053 0.00523784 0.00309168
C 1.44404484 18.02808076 15.44941915 0.00664752 0.00109636 0.00753636
C -5.87570125 13.45181041 23.24368588 0.00687924 -0.00587611 -0.00122657
C -8.64042655 18.17033907 19.31422551 -0.00455991 0.00108268 0.00265279
C -2.21427018 15.74485039 19.06682253 0.00086520 -0.00116845 0.00450098
C 0.66475091 10.83199998 23.10471161 0.00371164 -0.00174727 0.00878610
C -4.68220324 13.37682949 22.54883305 0.00223681 -0.00685748 -0.00518075
C 3.11571211 18.12538538 19.73189841 0.00583650 0.00168648 -0.00140257
C -3.41378503 15.72485460 19.81248456 -0.00232961 0.00154420 0.00956030
C 28.03101687 10.96781112 22.74438584 0.00744836 -0.00049232 -0.00048441
C -3.62600795 12.57094859 23.00448304 0.00133540 0.00686983 -0.00543003
C 2.21166948 17.17179174 19.34402320 0.00254319 0.00376862 0.00191518
C -4.45549181 16.54098384 19.44892009 0.00135429 -0.00311457 -0.00521848
C -10.33041724 11.81143974 23.20091896 -0.00004976 -0.00056839 -0.00338019
C -3.85104426 11.67680435 24.05232651 0.00142267 -0.00223241 0.00090031
C 2.42469329 16.35142011 18.22819410 -0.00373938 0.00273737 0.00021984
C -4.34850477 17.36443829 18.31593286 0.00257217 -0.00036737 0.00282459
C -10.54226922 12.68356413 24.30614936 0.00335078 0.00411106 0.00503944
C -1.76609049 11.67670628 18.89625815 0.00258557 -0.00268683 -0.00481256
C 0.90395380 16.53064155 23.79352456 -0.00643741 0.00747551 -0.00208314
C -5.74497632 17.13080352 23.49693465 -0.00053359 0.00021715 0.00171455
C -8.47092587 12.24863145 18.87580369 -0.00038699 0.00123709 -0.00067272
C -2.80740528 12.40625138 18.40721959 -0.00484494 0.00389918 -0.00022842
C -11.51470940 17.00465430 24.18505423 0.00337691 -0.00142784 -0.00182436
C -4.68502822 16.47589402 24.00842705 -0.00541592 0.00545618 -0.00141278
C 3.43070471 11.46781031 18.16804226 0.00183611 0.00238707 -0.00036203
C -7.05949672 14.87234963 21.69419985 0.00458602 -0.00052505 0.00087669
C -7.34287040 10.10744721 20.80329986 -0.00519261 0.00454118 -0.00290114
C -0.94278976 14.32460351 20.58418901 0.01199271 0.00135723 0.00160615
C -0.31779369 19.00243755 21.70051507 -0.00240957 0.00293861 -0.00393859
C -8.23111811 15.82942183 21.44145401 -0.00776356 -0.00157932 -0.00527227
C -6.10547445 10.85038022 21.04047352 0.00194524 0.00041785 0.00392137
C 0.32982206 13.46830255 20.64523394 -0.00226191 -0.00574768 -0.00121227
C -1.49908859 18.07734585 21.45048634 -0.00123674 0.00489239 -0.00166621
C 3.25240768 22.98657886 5.05628347 -0.00248088 0.00198838 0.00623564
C 0.31988072 27.74408886 0.85312827 -0.00202350 -0.00727212 0.00049222
C 7.14257006 25.06759252 1.15532809 -0.00427834 0.00358813 -0.00121186
C 9.89089766 20.45989233 5.27919252 -0.00310252 0.00451123 0.00069655
C 4.48407153 22.88962393 4.44523890 -0.00424267 0.00269000 -0.00201045
C 12.27886424 27.70300791 1.78659016 0.00383686 0.00566089 -0.00935761
C 5.95094332 25.22908801 1.89974756 0.00249512 0.00055178 -0.00144636
C 37.10359374 20.69743338 4.51672245 -0.00545546 -0.00106767 -0.00315695
C 5.41464506 21.99257457 4.90343995 0.00224377 0.00415561 0.00430269
C 11.32576817 26.79690942 1.37026499 0.00668841 -0.00665968 0.00153436
C 4.94400637 26.08120020 1.41959152 0.00294889 0.00103221 -0.00434999
C -1.29504013 21.52864747 4.88953578 -0.00062332 0.00115359 0.00755216
C 5.20500416 21.24532075 6.06500116 0.00822276 -0.00415080 0.00212153
C 11.47145540 26.06588721 0.18403397 -0.00056270 0.00334917 0.00443921
C 5.11599913 26.82214610 0.20480195 0.00103159 -0.00011378 0.00345273
C -1.46747723 22.34116226 6.05976531 0.00191759 0.00064678 0.00654141
C 7.04925164 21.05987580 0.63439118 0.00139914 -0.00301414 0.00048141
C 9.46816481 26.16226761 5.49054660 -0.00015030 -0.00631762 -0.00555339
C 3.19800116 26.87408072 5.81396118 -0.00243861 -0.00337172 -0.00050070
C 0.13187009 22.00084111 0.68923104 0.00764672 -0.00188190 -0.00585896
C 6.10169549 21.92724711 0.29277822 -0.00208643 0.00487861 -0.00350307
C -2.44178751 26.85011209 5.99922975 0.00615775 0.00131007 -0.00104380
C 4.14978534 26.06037068 6.29425188 -0.00135953 0.00589020 0.00116100
C 0.44039067 21.30159884 24.26921854 -0.00424064 -0.00839623 0.00004870
C 2.00932914 24.43935352 3.55264373 0.00010966 0.00121017 -0.00038403
C 1.75705969 19.52792301 2.12656093 -0.00299066 -0.00443188 0.00187204
C 8.25228354 23.66155808 2.74565641 -0.00371494 -0.00433230 -0.00349921
C 8.43984721 28.72302736 3.46865067 0.00281703 -0.00041079 -0.00250639
C 1.05877433 25.53046606 3.39597695 -0.00417289 -0.00404547 0.00489914
C 2.93681786 20.41761865 2.12331244 0.00018303 -0.00127047 -0.00102969
C 9.21061221 22.52152513 2.96964236 0.00618836 0.00697630 0.00272032
C 7.26985757 27.81935012 3.34509875 -0.00720419 -0.00446130 0.00432807
C 0.07064479 22.99171902 11.36469792 -0.00734546 0.00734072 -0.00032424
C -2.61160057 27.69134046 7.08643556 0.00171115 0.00374063 -0.00288965
C 3.85698728 25.20822869 7.38816790 -0.00227117 -0.00505432 -0.00000644
C 6.56711200 20.46383600 11.23288992 0.00183697 -0.00132961 -0.00119757
C 1.26113029 22.90220824 10.62608574 -0.00001822 -0.00574709 -0.00053739
C 9.30077412 27.77767095 7.71433712 -0.00147656 -0.00190688 0.00446593
C 2.61973889 25.29696208 8.03290084 -0.00344426 0.00313031 0.00706853
C 34.03115099 20.44054604 10.50909774 -0.00245175 -0.00120142 0.00287584
C 2.27647740 22.04488369 11.03365049 -0.00079876 -0.00743938 0.00588248
C 8.23381440 26.97158718 7.38622920 0.00141655 -0.00141629 0.00077706
C 1.66291788 26.15785142 7.54781276 -0.00133543 -0.00560703 0.00139120
C -4.37680899 21.38325704 10.78692001 -0.00404667 -0.00545096 -0.00390831
C 2.16453209 21.22529486 12.14040116 -0.00406402 0.00456360 -0.00147142
C 8.31040036 26.13086975 6.23741019 -0.00118848 0.00512038 0.00307046
C 1.90504956 26.97498655 6.41637537 -0.00190714 -0.00337608 -0.00150940
C -4.47458510 22.04570101 11.97404914 0.00455156 0.00396135 -0.00533938
C 3.94254706 21.38171482 6.67379252 -0.00537205 0.00046865 0.00614925
C 6.66967823 26.03465957 11.49642084 0.00121881 0.00115884 -0.00466347
C 0.28917149 26.70508096 11.75334603 0.00566474 -0.00074107 0.00373314
C -2.69583696 22.12663259 6.76945634 0.00141848 0.00158695 0.00511916
C 2.98438433 22.24042823 6.24668598 0.00284414 -0.00749219 0.00445279
C -5.41136073 26.77048134 11.88516934 0.00468849 0.00477914 -0.00080247
C 1.22345565 25.83360256 12.17922995 0.00641847 -0.00025961 0.00137876
C 9.66792559 21.29046817 6.44157835 0.00245917 0.00115132 0.00174123
C -1.32815449 24.26544768 9.86273884 -0.00364546 0.00423428 -0.00532921
C -1.33545295 19.74855847 8.60935757 0.00310677 0.00366261 0.00095208
C 5.12429684 23.65482404 8.86943928 0.00310763 -0.00141688 -0.00335592
C 5.35989180 28.66618766 9.54921906 -0.00703031 0.00275553 0.00263275
C -2.63634368 25.00229859 9.73975702 -0.00143356 0.00058503 0.00404238
C -0.31490166 20.77872602 8.91183806 -0.00183061 -0.00055958 -0.00419244
C 6.25628635 22.67774123 8.89822056 0.00353683 -0.00378951 0.00178704
C 4.24878031 27.68921154 9.42933995 -0.00215638 0.00467016 0.00461338
C -2.89412219 22.88414568 17.18352572 -0.00146878 -0.00134649 0.00100132
C -5.43979207 27.62849337 13.04115276 -0.00078823 -0.00391552 0.00484606
C 1.03594743 25.06283509 13.34929827 -0.00026450 0.00385937 0.00714508
C 3.79134517 20.34691593 17.21233106 -0.00180739 0.00219756 -0.00430220
C -1.58451383 22.80006129 16.60896351 0.00615677 0.00356291 -0.00360615
C 6.34203503 27.76451941 13.68376825 -0.00021938 -0.00108604 -0.00764229
C -0.20019949 25.24923960 14.05503353 0.00764397 -0.00811238 0.00006718
C -8.12121318 20.38907697 16.76431670 -0.00234123 0.00838173 -0.00011742
C -0.69942598 21.87402775 17.10163731 -0.00147023 0.00393007 -0.00236497
C 5.32799235 26.92926522 13.29187296 0.00641895 0.00408620 -0.00998713
C -1.08321024 26.27294287 13.71069559 -0.00519779 -0.00397878 0.00656470
C -7.12885094 21.24724983 17.19847834 -0.00055281 0.00016851 0.00706046
C -1.04689373 20.96586495 18.10716619 -0.00071183 -0.00244016 -0.00202853
C 5.40573247 26.04671475 12.18827675 0.00074091 0.00382925 -0.00557776
C -0.86711109 26.96872592 12.50093814 0.00344684 -0.00150410 -0.00342211
C -7.46333706 22.20394058 18.15767081 -0.00557656 -0.00198498 -0.00739790
C 0.98291812 21.23662688 12.82335926 -0.00772951 -0.00273852 -0.00450237
C 3.64878492 26.21777682 17.63402534 0.00234159 0.00522211 0.00411042
C -2.86785423 26.80535624 17.71298164 0.00171396 -0.00536608 0.00208007
C -5.60780588 21.94106690 12.72355023 -0.00172748 0.00204538 0.00148140
C -0.04596127 22.13442674 12.48870689 0.00654213 -0.00338579 0.00027377
C -8.40113490 26.55390090 17.96088552 -0.00108832 -0.00359511 0.00135125
C -1.91957349 25.88280534 18.13639167 -0.00164623 -0.00320576 0.00419906
C 6.35975852 21.21726591 12.38764696 -0.00158380 0.00905675 -0.00729442
C -3.85343123 24.43648846 15.65159433 -0.00529389 -0.00261123 -0.00033840
C -4.52911430 19.44185718 14.74752355 0.00812977 -0.00160619 -0.00060698
C 2.17385911 23.62445496 14.89919975 0.00474991 0.00218991 -0.00263855
C 2.32499134 28.60159150 15.86685912 0.00468816 -0.00518603 -0.00037152
C -4.70513704 25.57304942 15.31910396 0.00128592 0.00613899 -0.00278648
C -3.26320359 20.24074459 14.99554129 0.00272396 0.01026157 0.00542422
C 3.28519065 22.68219046 15.21542263 0.00983792 -0.00164708 0.00268253
C 0.96738860 27.99635879 15.82353412 0.00220872 0.00534740 0.00091259
C -5.70340520 22.81037479 23.54281803 -0.00550518 0.00054763 0.00159612
C -8.56810191 27.29990036 19.18185436 0.00280498 0.00555510 -0.00146650
C -2.21642224 24.97223384 19.18499336 -0.00031015 -0.00542814 -0.00272144
C 0.76608823 20.30947910 23.35518101 -0.00412943 0.00655830 -0.00718375
C -4.56985278 22.74700701 22.76955768 0.00410990 0.00374271 0.00525709
C 3.30684572 27.63049560 20.10127644 0.00299450 0.00268450 0.00892847
C -3.40050252 25.09680591 19.90986064 0.00198426 -0.01335224 0.00234231
C 28.12968873 20.61235148 22.61172935 -0.00156935 0.00244515 -0.00339175
C -3.53414124 21.97489107 23.22753285 0.00712541 -0.01299170 0.00536455
C 2.37339414 26.64598518 19.65310718 -0.00344370 0.00098049 0.00030643
C -4.38068037 25.95772899 19.42428923 -0.00233903 0.00364724 0.00364442
C -10.32725792 21.49417032 23.12025030 0.00285508 0.00003966 0.00295182
C -3.73643135 21.14062002 24.32347530 0.00172961 0.00089088 -0.00642641
C 2.46959316 25.98592455 18.39681625 -0.00135499 -0.00557605 -0.00310696
C -4.10891428 26.78739798 18.31929764 0.00277269 0.00116775 0.00079762
C -10.63264376 22.28583101 24.25254119 -0.00390820 -0.00052137 -0.00274697
C -2.34403917 21.09575179 18.75024038 0.00026464 -0.00343566 -0.00922533
C 0.65495959 26.23610327 23.83838466 -0.00007316 -0.00095190 0.00517587
C -5.71574729 26.73041775 23.87009085 -0.00176965 0.00176947 0.00158465
C -8.70440745 22.13517091 18.71672198 0.00691407 0.00743738 -0.00356036
C -3.19052527 22.10461584 18.34050819 0.00063535 -0.00169901 -0.00091265
C -11.53360647 27.02184935 24.00079215 0.00994669 0.00413308 0.00153412
C -4.72176786 25.90189385 24.29426366 0.00688647 0.00485015 0.00001026
C 3.60791429 21.10383641 18.46547160 0.00109202 0.00050777 0.00025459
C -6.95206065 24.18637954 21.95229057 0.00107619 -0.00258707 0.00309260
C -7.61568919 19.68345682 20.84675502 0.00771439 -0.00152254 0.00236111
C -0.98949635 23.64235245 20.88696249 -0.00216838 -0.00331182 0.00878688
C -0.56480175 28.60591516 21.86788534 0.00391790 0.00043712 0.00861435
C -8.24826218 24.87338375 21.70969066 0.01578802 0.00665371 -0.00373050
C -6.58365634 20.71524773 21.06945575 -0.00029055 0.00535659 0.00178525
C 0.14588409 22.69916836 21.22315724 -0.00316297 0.00151081 0.00232636
C -1.67941564 27.58322937 21.83839553 -0.00272791 -0.00577121 0.00092932
C 16.27885826 3.82765095 4.92048060 -0.00444588 -0.00128894 0.00476689
C 13.55401462 8.56903088 0.65782080 -0.00012565 0.00201324 -0.00758792
C 20.11876898 5.82408911 0.88398354 -0.00039524 0.00064761 -0.00650309
C 22.88390037 0.94356524 5.14794100 0.00122507 0.00570452 0.00106198
C 17.54666099 3.78701092 4.25781829 -0.00139763 0.00641024 -0.00332387
C 25.54716177 8.63460148 1.57366333 0.00167563 -0.00051714 -0.00228703
C 18.93183341 5.93345142 1.49897685 -0.00689556 0.00028506 -0.00075272
C 10.96202345 1.10950039 4.47321762 -0.00093143 -0.00632150 -0.00115610
C 18.46799644 2.83350703 4.62830589 -0.00444379 -0.00187306 0.00197645
C 24.63105105 7.68960610 1.16274838 -0.00206041 0.00009954 -0.00269478
C 17.97926352 6.94256542 1.12100656 -0.00390532 -0.00857619 0.00779653
C 11.98212607 1.91690988 4.94288176 -0.00153247 0.00387019 -0.00069235
C 18.25260834 1.97284910 5.74247567 -0.00310822 -0.00300553 0.00331075
C 24.88600728 6.81743910 0.11613173 0.00464655 -0.00381131 -0.00128743
C 18.30728779 7.78417049 0.05603803 -0.00499175 -0.00517375 -0.00336786
C 11.80209677 2.76924376 6.07927400 0.00537017 -0.00202401 0.00442223
C 20.03780785 1.96398645 0.36772531 -0.00575235 -0.00046881 -0.00104647
C 22.73385305 6.66052468 5.50766465 -0.00647005 -0.00382216 -0.00062913
C 16.61564118 7.82829799 5.58871409 0.00171207 0.00327059 0.00078162
C 13.48184820 3.07420139 0.55915128 -0.00835744 -0.00188175 -0.00805947
C 7.05459584 2.79207463 24.23189563 -0.00072289 0.00025458 -0.00178895
C 10.67986710 7.85043938 5.57081075 0.00647724 -0.00121197 0.00130301
C 17.44874938 6.78076169 5.95468288 -0.00419534 0.00221316 -0.00257877
C 25.81573871 1.85964752 0.11565509 -0.00326717 -0.00371344 0.00509963
C 15.25619669 5.34017016 3.48436722 -0.00796944 -0.00016171 0.00331048
C 14.59627412 0.33684602 2.74191494 0.00092270 0.00494008 -0.01052436
C 21.34576160 4.52322029 2.47658325 -0.00218772 -0.00394405 0.00041597
C 21.69206112 9.26865044 3.46440513 0.00111397 0.00075445 -0.00192105
C 14.08427455 6.34253657 3.42327931 -0.00048660 -0.00244500 -0.00208835
C 15.57201010 1.48175346 2.97983850 0.00084679 -0.00328632 0.00284093