2880
Time=79000.00000008 pbc="T T T" Lattice="39.21003090 0.00000000 0.00000000 0.00000000 28.61681802 0.00000000 -12.03850681 0.00000000 24.44435883" energy=-18395.51059997 virial="91.54735943 -7.39040304 -35.66986555 -7.39040304 103.93107445 22.82387404 -35.66986555 22.82387404 12.96313201" stress="0.00583560 -0.00024764 -0.00138516 -0.00024764 0.00631908 0.00081580 -0.00138516 0.00081580 0.00311689" Properties=species:S:1:pos:R:3:vel:R:3
C 3.06887460 3.44600891 5.14011814 -0.00066743 -0.00154860 -0.00547649
C 0.82670626 8.48454531 1.00987108 -0.00474307 0.00391688 0.00113707
C 6.94255349 5.76655298 0.96435756 0.00668561 0.00358787 0.00049807
C 9.55230298 1.08153057 5.27079746 -0.00189318 0.00009681 -0.00059254
C 4.29403984 3.45462319 4.48764940 -0.00341638 -0.00118706 -0.00025441
C 11.98378769 8.29364079 1.72823248 -0.00052989 -0.00398381 0.00001376
C 5.69941886 6.00121684 1.57713172 0.00204643 0.00138219 0.00054904
C -2.21635278 0.89601519 4.64235944 0.00125463 0.00249098 0.00052927
C 5.30506052 2.70781488 4.98911867 0.00053714 0.00742967 -0.00478043
C 11.07450004 7.42404945 1.18012747 -0.00019988 0.00111745 0.00165971
C 4.85050872 6.95252539 1.08678570 0.00346276 -0.00297434 0.00445777
C -1.33067970 1.93560476 4.88820430 0.00518450 0.00179522 -0.00994790
C 5.04735916 1.71690540 6.01194581 -0.00337047 0.00127967 -0.00131249
C 11.39248907 6.46473821 0.18931398 -0.00698410 -0.00031977 0.00054850
C -6.90414260 7.75853668 24.37323670 0.00537383 0.00542085 0.00781857
C -1.51672732 2.79110096 5.97703901 -0.00243413 -0.00140623 -0.00072553
C 6.59949267 1.98321075 0.45653522 -0.00222216 -0.00541284 0.00299496
C 9.50235919 6.43615323 5.76092049 -0.00523751 0.00400196 0.00068904
C 3.25367533 7.32990127 5.35338564 0.00617931 -0.00465526 -0.00036773
C 0.14060409 2.69071084 0.74718380 -0.00537340 0.00155318 0.00259349
C 5.62799988 2.86914973 0.02426168 0.00142186 0.00543622 0.00595430
C -2.42041351 7.75945105 5.81517084 -0.00400765 -0.00810334 -0.00732822
C 4.24931566 6.44371759 5.71759528 0.00143270 0.00026910 -0.00524770
C 12.55618077 1.78755066 0.35680266 0.00108004 0.00264936 0.00954544
C 1.89795278 4.90285298 3.58637234 0.00233498 -0.00959915 -0.00311975
C 1.50127078 0.25594659 2.37979509 -0.00517509 -0.00395428 0.00139080
C 8.14235455 4.35082540 2.59771828 -0.00260324 0.00322098 0.00407108
C 8.54723907 9.09739772 3.44724805 -0.00102925 0.00451366 0.00242149
C 0.61907062 5.59731007 3.44905023 -0.00369902 -0.00261943 0.00122005
C 2.86405175 0.97726221 2.58909183 -0.00132509 -0.00563418 0.00022514
C 9.21685800 3.29655383 2.70504556 -0.00253590 -0.00201641 0.00035672
C 7.33341581 8.29637931 3.02106816 -0.00499713 0.00704690 -0.00545749
C 0.00176174 3.55302346 11.08894069 0.00071424 -0.00113567 0.00067938
C -2.60611409 8.55518993 6.91764567 -0.00228903 -0.00366807 0.00150290
C 4.12073343 5.72070770 6.90947057 -0.00447660 -0.00429412 -0.00375272
C 6.57785752 0.75927811 11.37381049 -0.00108700 -0.00537769 0.00310424
C 1.24073147 3.44560272 10.47966621 -0.00398950 0.00511919 0.00277277
C 8.93321232 8.25125755 7.75098947 -0.00734299 -0.00311000 -0.00018318
C 2.95287049 5.91713493 7.61306699 -0.00131155 0.00446530 -0.00291842
C 33.81859861 1.07935834 10.63805450 0.00100437 0.00035222 -0.00184654
C 2.19271742 2.52549042 10.91188041 -0.00091247 0.00173745 0.00701533
C 8.00202827 7.22976659 7.46885092 0.00111258 0.00022664 -0.00000555
C 2.03133945 6.85723754 7.34245109 -0.00632748 0.00299530 -0.00209608
C -4.48517653 2.04252092 10.97155436 -0.00187115 -0.00340978 0.00918294
C 1.96949715 1.85630317 12.10557804 0.00491506 -0.00148808 -0.00221756
C 8.25270027 6.31828170 6.43000179 -0.00734587 0.00066718 0.00145850
C 2.11848159 7.61999092 6.13822600 0.00541362 0.00549492 0.00123096
C -4.66233749 2.82040336 12.08728254 -0.00238925 0.00058364 -0.00985466
C 3.78685070 1.73846247 6.59645850 -0.00111159 -0.00195278 -0.00776949
C 6.45711916 6.51216295 11.73083296 0.00861907 -0.00486364 -0.00177430
C -0.02463884 7.22855957 11.45381277 -0.00143028 0.00432088 0.00142708
C -2.64595067 2.54813961 6.81108188 0.00272277 0.00729451 0.00055175
C 2.86579222 2.66474872 6.26907017 0.00075022 -0.00336876 0.00739212
C -5.62647564 7.46402844 12.00536052 0.00629564 0.00918938 0.00107174
C 1.01296143 6.57901636 12.03360723 0.00262211 0.00083472 0.00689425
C 9.36337410 1.95774980 6.35081426 -0.00261360 0.00121159 0.01083200
C -1.15163767 4.82906222 9.36429518 0.00887478 0.00118606 0.00116416
C -1.49859194 0.05084359 8.69620803 0.00594446 0.00244219 0.00061529
C 5.04290660 4.21962856 8.61063865 -0.00032957 0.00629349 0.00393182
C 5.48745132 9.09611873 9.58024621 0.00146174 0.00010525 0.00312085
C -2.42269617 5.53950453 9.03574495 -0.00285874 0.00314527 0.00203397
C -0.39995230 1.02921465 8.77172771 -0.00425689 0.00047068 0.00017928
C 6.09753696 3.14192368 8.93010271 0.00277298 -0.00811670 -0.00067422
C 4.22626263 8.27130915 9.38191919 0.00554349 -0.00088864 -0.00863758
C -2.88323786 3.57421795 17.33781356 0.00322116 0.00009392 -0.00998492
C -5.78288384 8.30200406 13.09447938 0.00515540 -0.00390639 0.01481241
C 0.85386753 5.71416138 13.08910994 0.00133359 -0.01065489 -0.00720648
C 3.40620048 1.16006143 17.33440825 -0.00068260 -0.00364289 0.00077216
C -1.71194695 3.52387651 16.61048614 0.00777696 -0.00558862 -0.00252293
C 5.99074961 8.25453589 13.82629626 0.00485121 -0.00439936 -0.00571446
C -0.34011281 5.82823095 13.75719797 -0.00288678 -0.00753786 -0.00109951
C 30.91753230 1.28936596 16.71194266 -0.00328165 0.00345763 -0.00807209
C -0.70482039 2.66744369 17.03517229 -0.00308890 0.00501279 -0.00107106
C 4.97818660 7.36015649 13.40406981 0.00812682 -0.00250464 -0.00125672
C -1.30930650 6.76036879 13.41074619 0.00031685 -0.00463221 0.00159071
C -7.30515088 2.15436937 17.16549060 0.00712057 -0.00609301 0.00233032
C -0.81362096 1.92301640 18.15565193 -0.00687095 -0.00170034 0.00279417
C 5.28688890 6.36028682 12.43120263 -0.00419680 -0.00108647 -0.00207927
C -1.25878940 7.42064116 12.16164117 -0.00065099 0.00601196 0.00051794
C -7.35879398 2.82060756 18.35255106 -0.01364708 0.00012593 -0.00175560
C 0.77437338 1.98576629 12.71818244 -0.00395073 0.00287449 -0.00269855
C 3.47797439 6.74607731 17.89548348 0.00364161 -0.00873247 0.00114557
C -2.60742997 7.33587697 17.64957892 -0.00695758 0.00645831 -0.00105867
C -5.83666150 2.74128007 12.82409206 -0.00970797 -0.00960719 -0.00232354
C -0.17170571 2.85150671 12.25909010 -0.00187980 0.00442132 0.00402973
C -8.59159716 7.47122373 18.16866729 -0.00288466 -0.00222087 -0.00252247
C -1.68175019 6.50262651 18.20061326 0.00048353 -0.00629303 0.00146803
C 6.34406754 1.66775628 12.45610642 -0.00625934 -0.00208159 0.00617385
C -4.24513359 4.98244959 15.85812846 -0.00817844 0.00154854 0.00493696
C -4.45949847 0.25119438 14.80954637 0.00201002 0.00638229 -0.00518809
C 2.17331867 4.50416481 14.73790945 -0.00749042 -0.00498735 0.00191875
C 2.62227199 9.35005494 15.59111896 -0.00328702 0.00067938 -0.00085184
C -5.48878879 5.80904408 15.87752883 -0.01040618 0.00215482 -0.00147344
C -3.26032202 1.22531745 14.86546735 0.00559498 0.00114155 -0.00313694
C 3.25343595 3.55212766 14.93203866 0.00091161 0.00341185 -0.00090290
C 1.28893845 8.77676088 15.41003301 0.00344224 0.00231895 -0.00110467
C -6.20620930 3.69443882 23.38218256 0.00031403 0.00969211 -0.00122495
C -8.63732102 8.48139099 19.20535447 -0.00198967 -0.00947554 -0.00008832
C -2.07379498 5.64402607 19.23735061 0.00357978 -0.00741220 -0.00010690
C 0.62587333 1.01647194 23.68054789 -0.00477999 -0.00301244 0.00699266
C -4.96698900 3.62311196 22.73859835 0.00260258 0.00426936 0.00698595
C 3.02424292 8.39177206 20.06782157 0.00239795 0.00017574 -0.00587789
C -3.31136191 5.79808367 19.88776609 0.00039958 0.00259077 -0.00134712
C -11.22724810 1.23184789 22.99167981 0.00644297 0.00108906 -0.00409074
C -4.05140975 2.68548191 23.09727938 0.00266195 0.00460289 -0.00204725
C 2.13556938 7.41076638 19.73149804 0.00322778 -0.00300877 0.00469370
C -4.18375414 6.79782515 19.43507388 -0.00278663 0.00190665 0.00749734
C -10.32132212 2.13788708 23.42376655 -0.00181511 0.00203493 -0.00226522
C -4.20383831 1.93522532 24.24341103 0.00236241 0.00473261 0.00089829
C 2.30616021 6.62940367 18.59295818 -0.00512724 0.00514896 0.00494724
C -3.90656625 7.52090710 18.25551624 -0.00145448 -0.00121466 0.00181446
C 1.38781988 2.93381614 0.11838668 -0.00424377 -0.00035095 0.00007541
C -2.04756267 1.92150864 18.82325160 -0.00389135 -0.00605153 -0.01164558
C 0.63029671 6.63931750 23.98367612 0.00150156 -0.00059081 0.00164203
C -5.65521294 7.53044357 23.76324135 0.00043132 0.00352834 -0.00050870
C -8.55947113 2.65462224 19.10895600 0.00377312 0.00385566 -0.00288892
C -3.02883799 2.78883622 18.45346884 0.00106344 0.00016637 -0.00061826
C -11.11856389 7.63551584 24.30250267 0.00283760 0.00123172 0.00153685
C -4.84712030 6.51457478 24.24959918 0.00375979 -0.00349661 0.00981766
C 3.25136954 1.99968408 18.46155827 0.00188901 0.00667991 0.00717450
C -7.22947791 5.23399929 21.80758031 0.00248962 -0.00471641 0.00553917
C -7.66937798 0.20830995 21.13131868 0.00245113 -0.00047260 0.00968524
C -1.11440611 4.30110046 20.97941253 0.00174682 -0.00487445 0.00188757
C -0.67808824 9.07616753 21.96860301 0.00121171 -0.00796531 -0.00102948
C -8.49924465 5.97148249 21.45271924 -0.00459052 0.00362368 0.00449491
C -6.43850965 0.97956543 21.52652837 -0.00440974 -0.00153105 -0.01014642
C 0.03631922 3.45930802 21.44283164 0.00083408 0.00438385 0.00814191
C -1.87869031 8.17860308 21.96194563 0.00202012 0.00030951 -0.00495970
C 3.18349422 13.06398737 5.23916925 -0.00417274 0.00084482 -0.00366909
C 0.22703083 17.73404672 1.00668146 0.00228960 -0.01181312 0.00264547
C 7.04919489 15.34092266 1.09699763 -0.00432354 0.00085730 -0.00709991
C 9.64593857 10.46807552 5.07379560 -0.01005891 -0.00121785 0.00769173
C 4.36464084 13.06686991 4.52921395 -0.00120340 -0.00323331 0.00237609
C 12.34769025 17.87836198 1.51400603 0.00260504 0.00271933 0.00332863
C 5.89786815 15.58828760 1.82604389 0.00320803 -0.00412821 -0.00282604
C 36.87542887 10.97135159 4.32979461 -0.00491712 -0.00672370 0.00912805
C 5.26981677 11.99717351 4.89259332 -0.00484350 -0.00185009 -0.00127982
C 11.41250778 16.93522693 1.16919155 -0.00204635 0.00032944 0.00300177
C 4.89016933 16.46385931 1.46663825 0.00043787 -0.00154896 -0.00813149
C -1.31407436 11.81759130 4.75751080 0.00854526 0.00175178 0.00226532
C 4.99855256 11.04561413 5.87991337 -0.01282231 -0.00151678 -0.00067940
C 11.67085860 16.11536155 0.10576741 -0.00223484 -0.00135080 -0.00578574
C 4.90229680 17.05352990 0.14627736 -0.00290205 0.00148087 -0.00696115
C -1.42716699 12.61155886 5.94298398 0.00609444 -0.01162302 -0.00307824
C 6.97178854 11.50972091 0.64106438 -0.00495274 -0.00109415 0.00318184
C 9.86027728 16.23916637 5.49304003 -0.00425389 -0.00129976 0.00686415
C 3.23260503 17.32609125 5.75777263 -0.00271319 0.00623236 0.00535353
C 0.58905313 12.35133838 0.76077858 0.00505201 -0.00063683 0.00068696
C 5.93216226 12.24384777 0.11751486 0.00337081 -0.00179055 -0.00399277
C -2.46844621 17.16424601 6.07164236 -0.00107718 0.00034818 0.00177856
C 4.14027269 16.29054949 6.11965426 0.00231158 0.00670580 -0.00116974
C 12.37896051 11.30310066 0.26553098 0.00298626 -0.00447121 0.00094213
C 2.05995102 14.51350412 3.64898242 0.00325519 0.00994786 -0.00064459
C 2.05987168 9.89602016 2.50661225 0.00028068 0.00272230 0.00050919
C 8.17454929 13.97528079 2.67737835 0.00064486 -0.00054354 0.00063867
C 8.62557703 18.81517014 3.71434801 0.00349139 0.00142503 -0.00000698
C 0.80298011 15.28315125 3.28258929 -0.00930084 0.00729335 0.00455895
C 3.40129078 10.68526314 2.60258347 0.00519980 0.00094136 -0.00191886
C 9.45270656 13.31827852 2.89178257 0.00090339 -0.00284468 -0.00367316
C 7.44332262 17.97879232 3.57853580 -0.00652493 0.00833707 -0.00835020
C 0.21436211 13.22752625 11.32730752 0.00105645 -0.00365621 0.00332566
C -2.66105604 18.02568894 7.16941537 0.00082270 -0.01056040 0.00024298
C 3.94284370 15.48459407 7.20732197 0.00718197 -0.00457364 0.00127816
C 6.61580139 10.52803515 11.15159659 -0.00031819 -0.00379769 -0.00060275
C 1.37811430 13.11566520 10.59074986 -0.00167589 0.00807972 -0.00490779
C 9.31202859 17.75416622 7.79286775 -0.00716131 -0.00035558 0.00706076
C 2.72174027 15.58131532 7.88171376 0.00113808 0.00068359 -0.00027963
C 33.88179982 10.58567137 10.44238210 -0.00821885 0.00237018 -0.00318121
C 2.30307493 12.11103441 10.90764570 0.00617581 0.00390328 -0.00269936
C 8.45389721 16.82929168 7.34509364 0.00861712 0.00326496 -0.00134109
C 1.77694234 16.51830292 7.54711245 0.00256115 0.00016332 -0.00292744
C -4.40023677 11.57182575 10.74971028 -0.00119213 0.00221084 -0.00544561
C 2.03537906 11.23308160 11.90184282 0.00187760 0.00386036 0.00038479
C 8.61789775 16.10324811 6.15020140 0.00268917 -0.00226949 0.00678921
C 2.05381374 17.43610910 6.47231315 -0.00133299 -0.00070502 0.00239039
C -4.63789513 12.45215533 11.89055955 -0.01063055 0.00047250 0.00147708
C 3.79550657 11.20751050 6.61006251 -0.00070355 -0.00107214 -0.00347082
C 6.68553638 16.37484687 11.52136456 0.00165285 0.00343879 -0.00945617
C 0.08265351 17.16408302 11.74293829 0.00187333 -0.00193631 -0.00345653
C -2.57825630 12.48747637 6.67745327 0.00615435 0.00070803 -0.00536797
C 2.87585976 12.18365355 6.27055531 0.01005952 0.00238169 -0.00797574
C -5.42603949 17.23501567 12.31021903 0.00810683 -0.00577731 0.00671137
C 1.09116710 16.27831201 12.10041467 0.00229977 -0.00359912 0.00161538
C 9.38585666 11.33437960 6.12143698 0.00335303 0.00000408 -0.00397931
C -1.16215968 14.56461685 9.80438064 -0.00367961 0.00055748 -0.00486429
C -1.27657003 9.84035178 8.51214294 -0.00488654 0.01107803 0.00888033
C 5.02378867 13.86810136 8.69298177 0.00719645 0.00079373 -0.00517070
C 5.71240260 18.64495907 9.70713525 -0.00211058 0.01061293 -0.00567384
C -2.00370430 15.72663332 9.72172332 -0.00370636 -0.00428381 -0.00285796
C -0.10319117 10.78352840 8.79910910 -0.00667689 0.00506285 -0.00490942
C 6.17270173 12.96613782 8.75057585 -0.00866843 0.00064005 -0.00075116
C 4.55465708 17.77347365 9.48932896 0.00299364 0.00703792 -0.00674218
C -2.84719989 13.07552291 17.30906112 -0.00570048 -0.00106881 -0.00404704
C -5.63650295 17.99551942 13.43727085 0.00563032 0.00200223 -0.00200707
C 0.91874910 15.51563457 13.27085903 0.00258206 0.00120364 -0.00011974
C 3.81731161 10.84998318 17.16882219 -0.00103318 -0.00417506 0.00496943
C -1.66441638 13.01481221 16.59207732 0.00032911 0.00159190 0.00041452
C 6.23674147 17.98272176 13.76478603 0.00164606 0.00118732 0.00513822
C -0.29642406 15.54730410 13.93160503 0.00094727 0.00154655 0.00020135
C 30.83198608 10.69386901 16.61142060 0.00918438 0.00352485 -0.00184666
C -0.69697915 12.06171142 16.96592938 -0.00114712 -0.00398101 0.00369895
C 5.22591408 17.20603458 13.23997204 0.01133425 0.00098846 0.00016721
C -1.25140714 16.41618733 13.62483476 0.00182371 -0.00439969 0.00131220
C -7.48922589 11.69886021 17.00599077 -0.00288510 -0.00049409 -0.00179829
C -0.77894254 11.30778726 18.18160646 0.00149607 0.00075903 -0.00517092
C 5.52676124 16.22296753 12.26245090 0.00423077 0.00263338 -0.00656864
C -1.09213428 17.32270605 12.50859229 -0.00326442 0.00461238 0.00183738
C -7.75473223 12.49089528 18.10128449 0.00162727 -0.00239381 -0.00224514
C 0.85044803 11.32809094 12.74609065 -0.00729635 -0.00362685 -0.00443382
C 3.99734869 16.23601786 17.67257554 -0.00641074 -0.00139244 -0.00281424
C -2.96168602 16.85660445 17.71474652 0.00883563 0.00137558 0.00117870
C -5.89739335 12.39163344 12.49808766 0.00047276 0.00229461 0.00068832
C -0.03248104 12.27915592 12.40257785 -0.00038869 0.00052462 0.00256230
C -8.15371587 17.49092631 18.31349956 -0.00423431 0.00443336 0.00438915
C -1.87642714 16.06684197 18.08003476 -0.00569388 0.00310648 0.00619194
C 6.42896964 11.27212736 12.27460291 -0.00271975 0.00038437 -0.00218483
C -4.10389975 14.45156467 15.72837275 0.00051045 0.00097692 -0.00203138
C -4.40896090 9.83469096 14.56130552 0.00557403 -0.00669283 0.00239403
C 2.15471030 14.01908094 14.77808909 0.00305729 -0.00447467 0.00426552
C 2.50413563 18.75229200 15.85670121 -0.00769054 0.00058905 0.00312339
C -5.20791500 15.46738477 15.58482974 0.00118531 0.00205538 0.00398113
C -2.99117065 10.48223897 14.54871401 -0.00416648 0.00500570 -0.00098379
C 3.27467537 13.04306695 14.90875475 0.00513006 -0.00533164 0.00304265
C 1.25935722 17.92417188 15.78542833 0.00571695 -0.00732434 -0.00340329
C -5.91950191 12.99424466 23.38364669 -0.00014066 -0.00005385 0.00228276
C -8.40700476 18.26141365 19.42999348 0.00498934 -0.00342022 0.00724008
C -1.93640174 15.32032661 19.23704954 -0.00096518 -0.00567633 0.00156407
C 0.56475270 10.47981941 23.62207541 0.00256028 -0.00206134 -0.00974839
C -4.73307861 12.85669090 22.72896695 0.00005671 0.00227659 0.00378940
C 3.54932111 17.80537559 19.86825442 0.00617936 0.00575935 0.00939052
C -3.09296736 15.24858027 19.94410342 0.00194653 0.00139487 -0.00211122
C -11.05024886 10.66582244 22.95738469 -0.00115108 -0.00192345 0.00396439
C -3.70196501 12.10394627 23.24916134 0.00310956 0.00019677 -0.00223417
C 2.58007941 16.94827650 19.41751092 -0.00219007 0.00232137 -0.00918665
C -4.10661657 16.13509274 19.73588696 -0.00073720 -0.00146049 -0.00509739
C -10.01415694 11.44642022 23.46579117 -0.00084181 -0.00262940 0.00073862
C 8.22379840 11.47133269 0.02438597 0.00103375 -0.00923943 0.00180944
C 2.77850264 16.08210946 18.40286968 0.00584507 0.00402779 0.00039939
C -4.07017740 17.01715564 18.58054261 0.00642732 -0.00373432 -0.00835255
C 1.86103231 12.24883764 0.16716095 -0.00365660 0.00700659 0.00600084
C -1.96012161 11.47440614 18.94942122 -0.00625394 -0.00292894 0.00721861
C 0.80049828 16.26639195 23.82637959 -0.00099958 0.00021203 -0.00983411
C -5.90446950 16.95697794 23.92385338 0.00333169 0.00046695 -0.00097184
C -8.89677074 12.09434244 18.85519768 0.00123092 -0.01157959 0.00542503
C -3.02168540 12.32998130 18.46671728 0.00460393 -0.00000935 0.00206557
C -11.54164544 16.90595480 24.32093030 -0.00446323 0.00196086 -0.00355616
C -4.89602007 16.14879104 24.36131944 -0.00204317 0.00359783 0.00501593
C 3.62284219 11.64425760 18.29540674 0.01040116 0.00812159 0.00286116
C -7.14829726 14.33813774 21.78587391 0.00063545 -0.00291145 0.00395372
C -7.37169846 9.88003645 20.58494163 -0.00024513 0.00042866 -0.00533297
C -0.57370345 14.00817593 20.67199772 0.00283741 0.00029882 -0.00537828
C -0.47780911 18.91274615 21.95693926 -0.00279216 -0.00090509 0.00014907
C -8.31613508 15.27018997 21.58121237 0.00075984 -0.00058614 -0.00453191
C -6.37290078 10.94073418 20.46422472 0.00393613 -0.00624706 0.00097522
C 0.74720544 13.33395790 20.77137064 -0.00494493 0.00037660 0.00076616
C -1.48482882 17.92862849 21.81435595 0.00451642 0.00291207 0.00281365
C 3.14880279 22.63080800 5.25523744 0.00130045 -0.00234865 -0.00407441
C 0.30272246 27.31323458 0.98454341 0.00119470 -0.00704539 -0.00343770
C 6.97363467 24.91952731 1.06326738 0.00537059 -0.00763792 -0.00043072
C 9.86268861 20.32064828 5.20291821 -0.00137904 -0.00267817 0.00024585
C 4.34961355 22.63070380 4.53852957 -0.00015608 -0.00090614 -0.01004929
C 12.20658833 27.44728357 1.49118058 0.00019430 -0.00368801 0.00851040
C 5.66373997 24.92946455 1.67401908 -0.00219972 -0.00153946 -0.00298572
C -2.15733246 20.53932431 4.54821882 -0.00096086 0.00156529 0.00415977
C 5.32954418 21.74271940 4.88520475 -0.00360699 -0.00019385 0.00470566
C 11.30382433 26.58577888 1.00825191 0.01212772 -0.00661442 -0.00057127
C 4.69873542 25.79471143 1.20601490 0.00028643 0.00095038 0.00482532
C -1.30281705 21.59578280 4.90590269 -0.00902043 -0.00562785 -0.00287511
C 5.33716610 21.07998603 6.09764474 0.00149993 0.00678211 -0.00625837
C -0.56367971 25.73459267 24.32272580 -0.00103279 -0.00309168 0.00124477
C 4.96175955 26.73780679 0.15810316 -0.00003802 0.00008580 0.00006829
C -1.53011634 22.34815898 6.06010349 0.00688813 0.00359060 -0.00034556
C 6.76766427 21.17136760 0.56800534 0.00479441 0.00544481 -0.00199925
C 9.81203565 25.84202766 5.63736076 -0.00127705 -0.00111683 0.00534205
C 3.05695819 26.38052304 5.47079726 -0.00348606 0.00477466 -0.00319650
C 0.36374385 21.67554530 0.65510013 -0.00226124 -0.00487969 -0.00274828
C 5.72055294 21.96848656 0.15702302 -0.00043015 0.00387205 -0.00111864
C -2.32935760 26.22489822 6.11779732 0.00435161 0.00099044 -0.00150416
C 4.07986687 25.55989191 5.81329771 -0.00130077 0.00364043 0.00091330
C 12.36017731 21.11146542 0.24549745 -0.00230067 0.00290481 -0.00862287
C 1.90832037 24.04172528 3.71561425 -0.00096340 0.00126534 -0.00346903
C 1.37337976 19.11776024 2.72207275 0.00082632 0.01117578 0.00418687
C 8.20770850 23.59020433 2.59712450 0.00398663 -0.00304272 0.01085939
C 8.27541580 28.48315788 3.64092945 -0.00304820 -0.00436496 0.00279999
C 0.66706828 24.84281322 3.61732870 -0.00283543 0.00809124 0.00219553
C 2.52010769 20.06451594 3.04726932 0.00573748 -0.00542206 -0.00229325
C 9.50236760 22.90355057 2.74879547 -0.00180977 0.00324815 -0.00245318
C 7.02326160 27.61753832 3.44880925 0.00669455 0.00415933 0.00465759
C 0.22044137 22.50809788 11.37865048 0.00672006 -0.00274396 -0.00272420
C -2.45823546 27.06353625 7.23494346 0.00319236 0.00360063 -0.00123789
C 3.86980157 24.77320192 6.99733297 -0.00123065 -0.00112014 0.00547675
C 6.74853324 20.26132911 11.20852479 -0.00215958 -0.00010860 -0.00180038
C 1.49209757 22.49559846 10.71073636 -0.00234417 -0.00237656 0.00225687
C 9.39510457 27.52129712 7.75611551 0.00595463 0.00377824 -0.00976798
C 2.67748780 24.89798760 7.72208126 -0.00338237 0.00232422 -0.00421186
C -5.10244409 20.34930223 10.62175195 -0.00168257 0.00424615 -0.00866516
C 2.38729565 21.53398688 10.97537154 -0.00210758 -0.00970262 -0.00424610
C 8.41322313 26.64209646 7.43908092 0.00004259 -0.00174015 0.00265777
C 1.70454031 25.84496061 7.35481971 -0.00739989 0.00313999 0.00219622
C -4.08551480 21.16496368 11.08455569 0.00162561 -0.00215997 0.00683198
C 2.18753816 20.67280042 12.10663346 -0.00646315 0.00267897 0.00280568
C 8.57548131 25.84940469 6.27446401 0.00248346 0.00649639 0.01276967
C 1.89297303 26.60261869 6.18484958 -0.00220995 -0.00519651 0.00002156
C -4.34602031 22.06957076 12.07933715 -0.00363497 0.00215883 0.00603320
C 4.13206726 21.05887660 6.81004137 0.00403959 0.00551809 -0.00339794
C 6.78469968 25.75282807 11.72179060 -0.00209303 0.00039049 0.01032845
C 0.26962302 26.59830141 11.63564905 -0.00078262 -0.00127752 0.00198312
C -2.61156342 21.96660659 6.90019750 0.00643889 -0.00222143 0.00043118
C 3.04830628 21.73475017 6.35093255 0.00625523 0.00708506 0.00579961
C -5.37824274 26.72231979 12.11742706 0.00484698 -0.00004494 -0.00006886
C 1.05191430 25.59174353 12.05452362 0.00023780 -0.00134336 -0.00605257
C 9.67233074 21.20706129 6.30915700 0.00011019 -0.00216077 -0.00003384
C -1.02268294 23.95736811 9.80225341 0.00250238 -0.00462755 -0.00079919
C -1.45560687 19.46693743 8.68733224 -0.00119641 -0.00025365 -0.00140272
C 5.01477926 23.57986618 8.74181051 -0.00093239 0.00479009 0.00605556
C 5.33686712 28.09480223 9.74045878 0.00216540 0.00495628 -0.00246889
C -2.33301664 24.71234661 9.71755521 -0.00054620 0.00201776 -0.00666516
C -0.31687879 20.41190786 8.75319902 0.00148582 -0.00202520 -0.00328182
C 6.34764464 22.95827405 9.13541785 0.00025234 -0.00534248 0.00212099
C 4.28969092 27.11563486 9.50502952 0.00041981 0.00760520 -0.00822355
C -2.99350485 22.58704961 17.28521521 -0.00553557 0.00259305 0.00224021
C -5.70364287 27.59510267 13.21643581 -0.00159339 0.00224889 -0.00088385
C 0.81866240 24.79612531 13.18647789 -0.00459534 0.00165036 0.00800548
C 3.65201341 20.21959741 17.40191266 -0.00446810 0.00037535 -0.00036500
C -1.74918537 22.50327295 16.58950365 0.00458283 0.00115901 0.00190734
C 6.34098684 27.31139633 14.01673551 -0.00413882 -0.00125462 0.00640822
C -0.42373279 24.90115937 13.81889102 -0.00418420 0.00375532 0.01321220
C 30.90748281 20.41321626 16.68013061 -0.00152778 0.00737567 0.00418460
C -0.77757912 21.63324821 17.11731382 -0.00538912 0.00034269 0.00214805
C 5.42480612 26.38881672 13.61069139 0.00009970 -0.00205280 0.00144768
C -1.30780902 25.85988631 13.37255763 0.00696581 0.00119884 0.00103767
C -7.37696770 21.36098848 17.06516754 -0.00738909 -0.00316722 -0.00443568
C -0.98761845 20.95057246 18.29553714 0.00402869 -0.00244971 0.00452589
C 5.53113843 25.61532771 12.39413783 -0.00436835 0.00381371 0.00717190
C -1.09493233 26.64781570 12.19528059 0.00066198 -0.00588018 0.00135732
C -7.59996709 22.18008199 18.18534456 0.00483020 0.00201021 0.00815616
C 1.11454495 20.92877606 12.98929816 0.00109137 -0.00028658 0.00322920
C 3.41770957 26.01099636 17.60832791 -0.00594137 0.00220908 0.00736234
C -3.23487466 26.45476917 17.90249210 -0.00812425 0.00824937 -0.00436177
C -5.63362569 22.15060661 12.72911186 0.00007113 -0.00355371 0.00270937
C 0.10292340 21.73105754 12.54713590 0.00134839 0.00456538 0.00057014
C -8.59847993 26.76836516 18.26549554 0.00309399 0.00030722 0.00354855
C -2.21807348 25.54764304 18.18200102 0.00085857 -0.00624633 0.00208690
C 6.71887893 21.03937341 12.36171436 -0.00650341 -0.00228547 -0.00158625
C -4.15810177 24.08902356 15.84516036 0.00113824 -0.00171097 0.00296827
C -4.47754001 19.35137000 15.11995515 0.00361158 0.00210337 0.00117504
C 1.97303573 23.35786574 14.82496595 -0.00028794 0.00660778 0.00294887
C 2.34487856 28.22997718 15.72624421 0.00187921 0.00105170 -0.00168644
C -5.48461243 24.91062341 15.75756593 0.00043871 -0.00636560 0.00182321
C -3.24011556 20.03317513 15.47383128 0.00211956 -0.00036757 -0.00531453
C 3.15547540 22.46426527 15.04460093 -0.00394136 0.00290877 0.00334467
C 1.08381639 27.49607535 15.35810116 -0.00122236 0.00118108 0.00686359
C -6.09447374 22.80689674 23.45699148 -0.00266677 -0.00037019 0.00210172
C -8.81174820 27.51246843 19.42133582 -0.00280513 0.00123655 0.01176639
C -2.37659849 24.77128767 19.31558836 0.00015873 0.00131860 -0.00127221
C 0.55118629 20.39128014 23.53741258 0.00686238 -0.00646432 0.00559017
C -4.85560711 22.85678702 22.84872874 0.00426932 -0.00144506 0.00417907
C 3.17035004 27.61462896 19.92994289 -0.00624786 0.00050289 0.00125558
C -3.56352368 24.91851320 20.15151656 -0.01062026 0.00223594 -0.00196897
C 27.84479053 20.13818363 22.92023180 0.00214042 0.00286716 -0.00241976
C -3.94018927 21.92758747 23.23157926 0.00515161 0.00133980 0.00407755
C 2.18158226 26.79082937 19.52657089 0.00615380 0.00506778 -0.00359590
C -4.62456486 25.66389596 19.72198751 -0.00030589 0.00135039 -0.00202568
C -10.34725085 20.95511485 23.30150199 0.00204378 -0.00142192 0.00001976
C -4.13535652 21.07230394 24.28904180 -0.01158628 0.00437376 -0.00639850
C 2.26149294 25.85519655 18.43238818 0.00400706 -0.00835784 0.00095306
C -4.41049921 26.52562513 18.61982276 -0.00384171 0.00191495 0.00290163
C -10.49694344 21.81726289 24.41306835 -0.00357584 0.00411910 0.00860633
C -2.24891753 20.99797473 18.94749886 0.00119703 0.00038386 -0.00261943
C 0.67826002 25.80801683 23.65614689 0.00425274 0.00301318 -0.00347480
C -5.69678990 26.77732644 24.15533385 0.00373228 -0.00243157 -0.00317135
C -8.82752591 22.02985333 18.84606529 0.00107426 -0.00400177 -0.00604275
C -3.21599304 21.79438775 18.42420027 -0.00297823 0.01042582 0.00458428
C -11.63180548 26.45162288 24.31359229 0.00357344 -0.00089021 0.00160037
C 7.21978078 25.83309495 0.05146144 0.00184773 0.00090311 -0.00023781
C 3.47977942 21.01346046 18.57167420 -0.00206545 -0.00380031 -0.01316720
C -7.31493186 24.21610814 21.89926999 0.00574105 0.00029340 0.00123851
C -7.23498712 19.59310064 20.95391954 -0.00113020 0.00029885 0.00292121
C -0.88485455 23.52317826 20.78349818 -0.00143931 -0.00205167 0.00225407
C -0.81562835 28.43629297 22.05579313 0.00831473 -0.00116474 -0.00725217
C -8.44141411 25.19354606 21.69127529 -0.00050733 -0.00558970 0.00059504
C -6.02558026 20.36887103 21.08147796 -0.00229899 -0.00197292 0.00039289
C 0.57148384 23.02543452 20.81164307 -0.00167723 -0.00606201 -0.00136944
C -1.95253000 27.40004815 22.01084087 -0.00090749 0.00034382 0.00135666
C 16.11540174 3.61717253 5.10654344 0.00029131 0.00678473 0.00180568
C 13.32116646 8.34356489 1.14168365 -0.00575942 -0.00011429 -0.00022721
C 20.13903672 5.68780829 0.94630609 -0.00008637 -0.00389831 -0.00227503
C 22.81165658 1.09946783 5.22982055 0.00152580 -0.00006932 0.00233261
C 17.30624773 3.43293458 4.37786274 0.00261305 -0.00629431 0.00088161
C 25.15246999 8.47119142 1.60200746 -0.00389304 -0.00160808 0.00497492
C 18.89558846 5.82701117 1.67376167 -0.00060329 0.00129781 0.00159237
C 10.79382865 1.18259401 4.56791467 0.00982602 -0.00507487 0.00516773
C 18.34836170 2.61768974 4.91877267 0.00460734 0.00372941 0.00029213
C 24.14171772 7.71360529 1.05371503 0.00077209 -0.00274377 0.00320567
C 18.05317060 6.84150176 1.43311176 -0.00403443 0.00111138 0.00409237
C 11.84307605 1.94004317 5.06516582 -0.01206472 -0.00816460 -0.00109146
C 18.19809164 1.77461817 6.01151533 0.00149191 -0.00194731 -0.00627413
C 24.31034971 6.78585609 0.03244434 -0.00029060 -0.00507675 -0.00949809
C 18.34764019 7.71961961 0.35863956 0.00235726 0.00072465 -0.00049247
C 11.60932767 2.77118951 6.16295051 0.00166156 0.00056796 -0.00476281
C 19.97350934 1.89674556 0.37849156 0.00457788 0.01808174 0.00296535
C 22.61890149 6.77022395 5.58080540 -0.00835885 -0.00297555 0.00563538
C 15.82515789 7.48969702 5.24729319 -0.00567914 0.00314001 0.00301251
C 13.62219123 2.49808199 0.82412864 -0.00009775 0.00047063 -0.00367181
C 19.01150053 2.81493517 0.02064899 -0.00554031 -0.00125078 -0.00277147
C 10.40985322 7.39822372 6.06746647 -0.00176466 -0.00278736 -0.00501934
C 16.90232177 6.74892843 5.71074813 -0.00640284 -0.00137305 0.00482466
C 25.62491686 2.13898967 0.09932018 0.00352109 -0.00075892 -0.00156629
C 14.94660395 4.81725124 3.36373809 0.00099654 -0.00117579 0.00094236
C 14.71711273 0.05221291 2.64988836 -0.00379559 0.00127541 0.00644390
C 21.23093811 4.24979212 2.58796715 0.00636739 -0.00790119 0.00432370
C 21.45536478 9.35348867 3.61704914 -0.00404487 0.00282512 -0.00163240
C 13.57304168 5.21191023 2.91741923 0.00470653 -0.00058846 -0.00261308
C 15.89586553 0.96271499 2.90478054 -0.00557540 0.00179787 -0.00403110
C 22.39930241 3.29646515 2.85186421 0.00082408 0.00231837 0.00040559