2880
Time=65000.00000006 pbc="T T T" Lattice="39.31021830 0.00000000 0.00000000 0.00000000 28.73205425 0.00000000 -12.01514280 0.00000000 24.34956900" energy=-18398.57011580 virial="18.40954215 -25.89236311 -16.58372721 -25.89236311 30.03062018 -45.02804614 -16.58372721 -45.02804614 29.28830179" stress="0.00320415 -0.00094787 -0.00067365 -0.00094787 0.00363371 -0.00160479 -0.00067365 -0.00160479 0.00355332" Properties=species:S:1:pos:R:3:vel:R:3
C 3.14656445 3.57645164 5.21218439 0.00058727 0.00435246 -0.00281049
C 0.41137398 8.23993882 1.00288612 0.00146626 -0.00135300 0.00243722
C 6.95321945 5.80078590 0.91099767 0.00623175 -0.00270104 -0.00667767
C 9.85515701 1.03143905 5.17794887 0.00273504 0.00896856 0.00492913
C 4.33177611 3.60189137 4.47548777 0.00403595 0.00467047 -0.00488415
C 12.33479694 8.32368147 1.46875084 -0.00218879 0.00494779 -0.00182351
C 5.68693194 5.72644132 1.58302826 0.00659676 -0.00047154 0.00981412
C 36.88997850 1.44930811 4.05560804 -0.00487876 0.00503197 -0.00017040
C 5.25190538 2.68826498 4.80220507 0.00682244 -0.01006548 -0.00216789
C 11.28653022 7.53107019 1.09500824 0.00295442 0.00007971 -0.00480040
C 4.69809052 6.61076407 1.24763264 0.00131242 -0.00305351 0.00901133
C -1.40847515 2.14639418 4.60022739 -0.00435783 -0.00070943 -0.00105692
C 5.15181901 1.77831832 5.90395062 0.00743908 0.00110633 0.00159858
C -0.60410759 6.67668200 24.32111949 -0.00321181 0.00346490 0.00081232
C 4.80792648 7.39779920 0.03162181 0.00169915 0.00018591 0.00808599
C -1.61269944 2.90452554 5.84352572 0.01040835 -0.00274629 -0.00664002
C 6.95247384 1.94261075 0.71514788 0.00547743 -0.00393058 0.00280577
C 9.79889031 6.84990093 5.69297677 0.00076295 -0.00076766 -0.00232988
C 3.29293156 7.51044545 5.49310334 -0.00441236 -0.00166396 0.00267207
C 0.50028839 2.90043603 0.74931342 0.00551747 -0.00221994 -0.00172834
C 5.96793826 2.68921922 0.15784645 0.00390930 0.00365682 -0.00011015
C -2.43531244 7.33776736 5.98837660 -0.00102899 -0.00934610 0.00337952
C 4.20252218 6.60484808 5.94068925 -0.00784217 -0.00295428 0.00646235
C 12.53203114 2.10290211 0.28867958 0.00094958 -0.00072235 -0.00220050
C 1.94585097 5.09083858 3.70279114 0.00189868 0.00093916 -0.00336031
C 1.65773402 0.09499909 2.49725825 0.00182737 -0.00236063 0.00495866
C 8.17637251 4.56004472 2.57296768 0.00071275 0.00438830 0.00370312
C 8.33177466 9.29826359 3.68239382 -0.00380313 0.00797388 -0.00757922
C 0.74680337 6.04349545 3.60909471 0.00071266 -0.00261695 -0.00171383
C 2.83563303 0.98750252 2.77101154 -0.00078528 0.00633366 -0.00232640
C 9.30679892 3.45285022 2.71011142 -0.00225318 -0.00004561 0.00553178
C 7.15423313 8.39702596 3.69793181 0.00672464 0.00629676 -0.00151073
C 0.22587323 3.85510760 11.29826704 0.00418405 -0.00429485 -0.00399599
C -2.56156495 8.23306813 7.08418957 0.00123841 -0.00124576 -0.00468795
C 3.94541445 5.82257672 7.12378609 -0.00238431 -0.00407266 0.00429784
C 6.84877604 1.20208691 11.25532397 0.00630421 0.00469445 0.00561541
C 1.47589502 3.74882076 10.66071278 -0.00822579 -0.00383866 0.00586916
C 9.30765262 8.71453991 7.72836155 -0.00634683 0.00428279 0.00433962
C 2.76526486 6.17371641 7.86179291 0.00272200 0.00268801 -0.00344127
C 33.85585502 1.41769829 10.22258130 -0.00141026 0.00338274 0.00498609
C 2.39637427 2.79338265 11.03275998 -0.00582931 0.00498294 0.00244837
C 8.38222267 7.81971827 7.38961722 0.00012067 -0.00304460 -0.00220114
C 1.85004055 7.06999253 7.37316062 -0.00050171 -0.00852140 0.00071933
C -4.46029217 2.25898704 10.66579019 0.00254826 0.00339891 0.00291102
C 2.09542811 1.96792148 12.24165056 -0.00305565 -0.00269876 0.00348329
C 8.52148175 6.81995748 6.31840655 0.00241023 -0.00456768 0.00468420
C 2.08616810 7.71472060 6.17254213 -0.00369756 0.00312318 -0.00531384
C -4.45843063 2.83724989 11.91850870 -0.00532179 0.00779685 0.00922865
C 3.93613054 1.80147819 6.57125189 0.00400861 0.00132880 0.00259928
C 7.10137479 6.57177893 11.92605013 -0.00095445 -0.00804167 0.00244608
C 0.24715919 7.68769216 11.60320500 0.00182784 -0.01175289 -0.00028511
C -2.83887406 2.75566675 6.48733676 -0.00469650 0.00286788 -0.00770407
C 2.93076849 2.64475769 6.17927688 -0.00498128 0.00801425 0.00309596
C -5.18531728 7.79078329 12.06452120 -0.00001904 -0.00085707 0.01240227
C 1.27316980 6.86505342 12.02758386 -0.00408878 -0.00727190 0.00347298
C 9.65346978 1.88012112 6.30557774 -0.00068121 -0.00754155 -0.00667760
C -0.93070188 5.19063499 9.54393142 0.00189147 -0.00105032 0.00087061
C -1.57994842 0.51709230 8.63887214 -0.00225444 0.00550024 -0.00067917
C 5.09288390 4.46294641 8.72502363 0.00409961 -0.00007230 -0.00488124
C 5.26450171 9.26825845 9.71469908 -0.00759341 -0.00921645 -0.00037174
C -2.25473152 5.76339886 9.33272446 -0.00039221 0.00627189 0.00195127
C -0.55322864 1.64112536 8.92390811 -0.00559206 -0.00688396 0.00178451
C 6.34594219 3.66974709 8.93500897 -0.00400011 -0.00207776 0.00439316
C 4.00687327 8.45496927 9.66563687 0.00127950 -0.00346181 0.00000653
C -3.07039580 3.59835026 17.22443873 0.00088460 0.00318715 -0.00322894
C -5.39725761 8.60366545 13.19908079 0.00119486 -0.00020943 -0.00712601
C 1.15633873 6.01383385 13.13775803 -0.00089129 0.00378041 0.00215107
C 3.65517555 1.08895523 17.28971682 0.00085749 0.00112641 -0.00520352
C -1.76875672 3.59214430 16.55736220 0.00405185 0.00938718 -0.00683231
C 6.38043902 8.39922959 13.93401401 -0.00177114 -0.00271565 0.00032319
C -0.05205876 6.02279634 13.79959572 0.00531504 -0.00166741 -0.00406228
C -8.13059483 1.04287050 16.65498446 0.00268857 -0.00165144 0.00535576
C -0.78041082 2.88869641 17.09693551 -0.00199868 -0.00214930 0.00161411
C 5.50973633 7.37195884 13.58873417 -0.00163128 0.00113534 0.00103167
C -1.15044945 6.71390308 13.29397286 0.00176435 0.00638739 -0.00308508
C -7.09555071 1.81872448 17.09137989 -0.00038855 0.00370098 0.00249400
C -1.01562780 2.09077557 18.24248689 -0.00804606 -0.00123176 -0.00815690
C 5.77494744 6.56762749 12.43588883 -0.00395066 -0.00169672 0.00725402
C -0.97644014 7.65305318 12.20213640 -0.00415427 -0.00768683 -0.00682862
C -7.26058018 2.68977420 18.24967447 -0.00469883 -0.00769149 -0.00914761
C 0.83985051 2.01630902 12.77768052 -0.00882878 0.00115857 -0.00586076
C 3.61031273 6.70856343 17.51350385 -0.00561792 0.00347262 0.00074326
C -3.18498563 7.34033504 17.48469339 0.00026567 0.00376072 -0.00255676
C -5.69959697 2.61380651 12.64624373 -0.00782984 -0.00330763 0.00116560
C -0.00861748 3.04918457 12.36475412 -0.00849649 0.00626890 0.00661140
C -8.46345970 7.57009634 17.93661552 0.00227239 -0.00203409 -0.00028658
C -2.17166296 6.57239484 17.97699227 0.00075436 0.00019314 0.00299153
C 6.76344297 1.97878117 12.40519705 -0.00152070 0.00178946 0.00618069
C -4.17242263 5.10924118 15.59728431 0.00199599 -0.00627137 0.00086911
C -4.48087658 0.12221395 14.43256360 0.00292564 -0.00089772 -0.00322139
C 2.33081388 4.46104575 14.63370251 -0.00051469 0.00257252 -0.00123510
C 2.48277426 9.36973003 15.93557002 -0.00862702 0.00512055 -0.00382489
C -5.21301225 6.20515667 15.48178405 0.00125202 0.00290022 0.00011498
C -3.43851382 1.27751814 14.56195516 -0.00112102 -0.00023283 0.00414342
C 3.67174090 3.90656179 14.90542787 -0.00308235 -0.00265747 0.00729772
C 1.30935085 8.38314837 15.80781887 0.00416860 -0.00814802 -0.00811106
C -5.89786791 3.56275640 23.43567152 0.00104118 0.00520643 -0.01126398
C -8.54623146 8.30629288 19.18493610 0.00175893 -0.00603565 -0.00061302
C -2.31575470 5.77372604 19.09728076 0.00167130 -0.00207743 0.00249147
C 0.69825721 1.34279795 23.51302832 0.00009315 -0.00306712 -0.00414977
C -4.64989445 3.44489833 22.77652827 0.00854726 -0.00036175 -0.00201005
C 3.11597639 8.20532671 19.77923693 0.00404246 -0.00227634 0.00499505
C -3.54358448 5.68963114 19.75813788 0.01246297 -0.00303518 0.00104044
C -11.04911402 1.35808525 22.82268511 0.00286406 0.00218927 0.00558261
C -3.65709346 2.67314848 23.27103535 -0.00179883 0.00361395 0.00132217
C 2.13443743 7.34290710 19.30617751 -0.00842102 0.00071680 -0.00227852
C -4.48780836 6.63971383 19.38095718 -0.00653225 0.00187110 0.00016653
C -10.06767798 2.20410388 23.25775160 0.00068371 -0.00313362 -0.00314139
C 8.24180711 1.88950222 0.10640935 -0.00770181 0.00005491 0.00172148
C 2.39901183 6.50235422 18.18040628 0.00307415 -0.00122937 0.00829653
C -4.32092373 7.48339691 18.26492533 -0.00194086 -0.00557373 0.00379789
C -10.33691900 3.12129750 24.34732638 -0.00737615 0.00499901 -0.00135847
C -2.22873565 2.05134295 18.89439751 -0.00230401 -0.00042456 -0.00575901
C 0.65200912 6.64934475 23.73260698 0.00146546 -0.00214876 0.00404378
C -5.99348605 7.46571788 23.70206624 0.00299460 -0.00176958 -0.00773005
C -8.48814388 2.58376193 18.93479770 0.00736266 0.00033967 -0.00007530
C -3.27248802 2.82000727 18.36270999 0.00165244 0.00088575 -0.00116112
C -11.50205500 7.40360367 24.21287130 -0.00623809 0.00167794 -0.00294324
C -4.94353293 6.67186073 24.11011076 -0.00763786 0.00279905 -0.00410898
C 3.46430085 2.09799178 18.27745808 -0.00248605 -0.00151767 0.00143145
C -7.02213246 4.82913784 21.77783546 0.00211718 -0.00328635 0.00071048
C -7.39632224 0.11350896 20.57752753 -0.00205196 -0.00020675 -0.00447323
C -0.95606917 4.50350557 20.66813181 0.00070564 0.00075408 0.00115144
C -0.15792424 9.21163034 21.62165627 -0.00064911 0.00564473 -0.00001430
C -8.20112201 5.76373381 21.49582477 -0.00384212 0.00754205 -0.00154668
C -5.93967658 0.69320582 20.81801019 -0.00355354 -0.00118802 -0.00302371
C 0.32541926 3.80215630 20.76363197 -0.00365019 -0.00024267 -0.00466476
C -1.35289279 8.34966394 21.23168468 -0.00034120 -0.00125142 -0.00383704
C 3.06554185 13.31247880 5.03823147 0.00342793 -0.00188746 0.00231445
C 0.63457570 17.90546695 0.89744430 0.00038676 -0.00131953 0.00629882
C 7.11272792 15.45539767 1.01289665 0.00295003 -0.00478166 -0.00128523
C 9.71964921 10.73533524 5.10355916 -0.00488142 0.00224255 0.00267048
C 4.32965699 13.24748403 4.45994553 0.00050490 -0.00004390 -0.00911689
C 12.36316985 17.77415557 1.53320619 -0.00482254 0.00371856 -0.00199801
C 5.88298500 15.57152444 1.73317798 0.00356398 0.00022030 0.00688431
C -2.12796795 10.67918113 4.64584879 -0.00013045 -0.00540417 -0.00070441
C 5.21877873 12.26312518 4.80793291 -0.00269097 -0.00181859 -0.00646454
C 11.27274954 17.00342558 1.13651435 0.00091589 -0.00650469 0.00193605
C 4.89470562 16.50683545 1.36708071 -0.00020670 0.00152866 0.00729685
C -1.14868520 11.56153018 5.08217481 0.00689580 0.00065858 0.00025405
C 5.01774912 11.45025651 5.92648426 0.00053407 0.00316657 0.00010779
C 11.46980221 16.14446355 0.05977202 -0.00065503 -0.00196872 -0.00530843
C 5.18835335 17.31197947 0.24395069 0.00176853 0.00328222 -0.00466480
C -1.37468387 12.56875532 6.01721965 0.00619782 -0.00183664 -0.00632696
C 6.97815160 11.32960358 0.44022427 -0.00009720 0.00121801 0.00040721
C 9.71056037 16.42601398 5.44214485 -0.00233849 -0.00034364 -0.00506221
C 3.29388240 17.12513542 5.61980234 -0.00043460 0.00343920 -0.00640054
C 0.32115364 12.14904610 0.62061596 0.00106316 -0.00471060 0.00503216
C 6.05314160 12.28072946 0.08028632 -0.00240214 -0.00548613 -0.00378391
C -2.50494477 17.49021713 5.74288542 -0.00197841 0.00257624 0.00548689
C 4.22596863 16.16056914 5.93972841 0.00629136 0.00175560 -0.00655534
C 12.70925626 11.30694853 0.09959884 -0.00016343 -0.00077318 0.00780600
C 1.92325139 14.66576656 3.38818476 0.00025968 -0.00140963 0.00417604
C 1.64567489 9.65007136 2.46126769 0.00579597 -0.00003329 0.00330788
C 8.17332859 13.98279448 2.63138140 -0.00210161 -0.00146349 0.00971617
C 8.34982138 18.76181554 4.03472508 -0.00022191 -0.00010209 -0.00356317
C 0.74438366 15.56223855 3.14500621 0.00655397 -0.01047311 0.00312816
C 2.90951029 10.43178460 2.63965167 -0.00590874 0.00240077 -0.00342905
C 9.51831506 13.25231510 2.88116957 0.00310394 -0.00420439 -0.00048077
C 6.99158776 18.12322632 3.86219582 0.00334803 -0.00533292 -0.00166396
C 0.15476722 13.20403073 11.28278861 0.00012876 -0.00070755 -0.00326560
C -2.68987022 18.21471362 6.94141470 -0.00336159 0.00200382 0.00303336
C 3.90521872 15.40866060 7.06545734 -0.00201511 0.00670265 -0.00521791
C 6.64269404 10.65680531 11.18911459 -0.00508120 -0.00200945 -0.00255637
C 1.28964097 13.07373247 10.53593932 0.00218420 0.00312154 0.00143768
C 9.23540630 18.01917846 7.74006726 0.00140572 -0.00076903 -0.00489204
C 2.68080959 15.50876056 7.77569536 0.00048685 -0.00220538 -0.00314714
C 34.01853353 10.61215844 10.39049817 -0.00284495 -0.00222325 0.00019209
C 2.15481687 12.04472365 10.88041031 0.00147220 -0.00286040 0.01083971
C 8.32536165 17.09876004 7.33927168 0.00525934 0.00243965 -0.00647400
C 1.74658724 16.41358215 7.34359917 -0.00342293 -0.00296745 -0.00437621
C -4.33817326 11.45990808 10.84555089 0.00329271 0.00835706 -0.00691500
C 2.00365128 11.27694423 12.03363601 -0.00803847 -0.00428779 -0.00105314
C 8.47527683 16.30404238 6.18788250 0.00243665 -0.00401379 0.00543758
C 1.99374579 17.23858520 6.22271324 -0.00245859 0.00342856 -0.00258258
C -4.52695102 12.22512593 11.99727430 -0.00654745 0.00231799 0.00178980
C 3.78705563 11.58052137 6.57869300 -0.00171909 0.00100729 0.00275029
C 6.73617901 16.68856116 11.45769620 -0.00314297 0.00302913 0.00795542
C 0.16884635 17.17492283 11.50718827 -0.00129348 -0.00114984 -0.00053084
C -2.69297654 12.65467070 6.54370582 0.00276077 -0.00120278 0.00093499
C 2.80332256 12.40413218 6.04992093 -0.00629186 -0.00478625 0.00124216
C -5.32108075 17.16000269 12.11033904 -0.00548604 -0.00588570 -0.00444974
C 1.21574280 16.33838945 11.89709066 0.00328974 0.00345424 -0.00389018
C 9.67367620 11.56563051 6.25765462 -0.00014452 0.00339101 0.00332234
C -1.13728816 14.54142939 9.60616033 -0.01021925 0.00620703 0.01013333
C -1.55072644 9.80158943 8.66381229 0.00501817 0.00833238 -0.00080042
C 5.04236617 14.09614264 8.76363658 0.00678325 0.00331107 -0.00135793
C 5.16410047 18.77658311 9.62965876 0.00400191 -0.00078659 -0.00029281
C -2.48591392 15.02491174 9.48413064 -0.00269264 -0.00185247 0.00040127
C -0.51183104 10.88022964 8.86273226 0.00659807 0.00366010 -0.00056740
C 6.16902494 13.19010015 9.03071263 -0.00363086 0.01180453 0.00418773
C 4.02397341 17.84243700 9.71155960 -0.00252819 -0.00379061 0.00646564
C -3.02343391 13.18352803 17.34230255 0.00971760 0.00495302 0.00594736
C -5.50470468 18.00351164 13.17658627 -0.00291407 0.00178190 0.00004952
C 1.02614053 15.53774231 13.02036878 0.00497975 0.00152563 -0.00483320
C 3.72819159 10.77828555 17.32570241 0.00400049 0.00056779 0.00169265
C -1.78130354 13.13446484 16.71956346 0.00258060 -0.00285629 -0.00060605
C 6.29668226 18.02717575 13.80960246 -0.00008516 -0.00306157 0.00718563
C -0.17296110 15.58009467 13.76839266 0.00152778 0.00818621 0.00452008
C -8.00691271 10.70345654 16.65926470 0.00369663 -0.00047219 -0.00175992
C -0.84840329 12.13311504 17.14327859 0.00727553 0.00309335 0.00397944
C 5.45320780 16.96448980 13.47812560 0.00113389 -0.00444531 -0.00435018
C -1.13182642 16.51548438 13.44203312 0.00080377 -0.00082690 -0.00233089
C -7.08226325 11.57805223 17.10726498 0.00623064 0.00530196 0.00520969
C -1.21291271 11.25778663 18.18364367 0.00365927 -0.00138118 0.00528462
C 5.60615775 16.26119519 12.27465462 -0.00382852 0.00413365 -0.00788865
C -0.99588616 17.30921785 12.31152303 0.00036255 -0.00681717 0.00254227
C -7.33684885 12.44574823 18.13754794 -0.00619351 0.00357110 0.00285083
C 0.86738426 11.50296869 12.81894301 -0.00478880 -0.00229286 0.00497230
C 3.59286147 16.14399344 17.65183999 0.00342963 -0.00527580 0.00174836
C -2.65450559 17.03546491 17.77539406 0.00176252 -0.00168255 -0.00538852
C -5.74574809 12.08236902 12.65779762 -0.00404035 -0.00325623 -0.00463493
C -0.10662029 12.42643433 12.41254875 0.00242368 0.00544982 -0.00071847
C -8.24718692 17.40753041 18.18522718 0.00464135 -0.00255202 -0.00600398
C -1.71844176 16.13209359 18.19271838 -0.00210207 -0.00987772 0.00000888
C 6.33456937 11.47757603 12.29282924 0.00648274 0.00154913 0.00545212
C -4.08258657 14.78367173 15.77101520 -0.00614937 0.00717669 -0.00508810
C -4.28415001 10.00591081 14.86428622 0.00388685 -0.00328279 -0.00858765
C 2.06476713 13.97386472 14.45141069 -0.00281846 -0.00029048 -0.00171538
C 2.26058516 18.91525878 15.70119122 -0.00355485 0.00838589 -0.00356828
C -4.98781995 15.95125415 15.64806758 0.00419873 -0.00677980 -0.00008816
C -3.03753649 10.64529257 15.22599912 -0.00124420 0.00319059 -0.00591007
C 3.30395814 13.12121515 14.67606003 -0.00512412 -0.00193158 -0.00790672
C 0.96182824 18.17991927 15.50192871 -0.00316383 0.00559897 -0.00363553
C -5.70854287 13.18058118 23.39513055 0.00368175 0.00336047 -0.00410440
C -8.45579641 18.07937503 19.33501525 -0.00512280 0.00247009 -0.00787006
C -1.90127062 15.25704561 19.26839505 -0.00245968 -0.00348173 -0.00457822
C 0.87099054 10.57828935 23.27528284 0.00419687 0.00448174 -0.00331073
C -4.45143325 13.05651201 22.80272587 0.00078186 -0.00235291 0.00874371
C 3.04284611 18.06858728 19.60551416 0.00125239 -0.00296034 -0.00148492
C -3.14723290 15.31179962 19.88736961 -0.00048072 0.00118540 0.00306842
C 28.09273973 10.41167526 22.67496313 0.00166808 0.00868633 -0.00351949
C -3.55951858 12.10593656 23.08916785 -0.00405028 0.00429059 0.00740906
C 2.09964116 17.17429993 19.24723507 -0.00359989 0.00535213 0.00098591
C -4.14822328 16.14713129 19.45383080 0.00631488 -0.00176164 0.00241213
C -10.25959100 11.32895522 23.09309510 -0.00911006 -0.00646534 0.00537281
C -3.78788382 11.22766565 24.15096975 -0.00100176 -0.00388700 0.00669890
C 2.35992618 16.17733566 18.28094191 -0.00809598 -0.00147025 -0.00529392
C -3.86969682 17.10259146 18.41175783 0.00814256 -0.00029407 -0.00357897
C -10.45287667 12.08540171 24.24150154 0.00172603 -0.00411734 0.00151262
C -2.44431149 11.38613435 18.84140789 -0.00228402 0.00014693 -0.00556640
C 0.62903951 16.26886937 23.63028607 -0.00335170 0.00735100 0.00373736
C -5.61943948 17.07690626 23.79955544 -0.00087111 0.00069341 -0.00209692
C -8.56548564 12.38906225 18.82640602 -0.00017464 0.00400356 0.00135397
C -3.33043786 12.34986221 18.39054186 0.00414667 -0.00202958 -0.00055605
C -11.25269802 17.12362650 24.10196347 -0.00238690 -0.00283060 -0.00066388
C -4.65770834 16.24833939 24.25736958 0.00522493 0.00120166 0.00930483
C 3.49254530 11.58326521 18.47780683 0.00197084 0.00121347 -0.00579564
C -7.01716396 14.48439531 21.71274490 0.00383936 0.00265048 0.00549173
C -7.44120585 9.75198875 20.82109417 -0.00242413 -0.00089659 0.00048079
C -0.74962157 13.91289622 20.89029835 0.00700563 -0.00432364 -0.00231742
C -0.50913859 18.94517325 21.87330034 -0.00980044 0.00505716 0.00037069
C -8.30972575 15.21645793 21.52817863 -0.00135753 0.00589571 0.00263723
C -6.34402641 10.72573609 21.07115096 0.00234401 0.00314110 0.00463724
C 0.46610603 13.09991376 21.07008246 -0.00270185 0.00636354 -0.00201824
C -1.66568509 18.11264696 21.64102268 -0.00631269 -0.00131382 0.00249561
C 3.34639500 22.98414669 5.33662503 -0.00216068 -0.00006155 -0.00569651
C 0.42303683 27.46966155 0.91820830 -0.00406095 0.01020373 0.00543005
C 7.18638723 25.00923907 0.96884062 0.00211576 0.00619162 -0.00086388
C 9.65352165 20.40613487 5.26272318 0.00449462 -0.00602029 -0.00689188
C 4.58082939 22.92978169 4.68369627 0.00263772 -0.00029866 -0.00262084
C 12.17436350 27.58756290 1.70236671 -0.00024699 -0.00081320 0.00129157
C 5.90990794 25.24619254 1.63553370 -0.00151202 0.00525925 0.00466819
C 36.96175879 20.36536816 4.39039850 -0.00172725 -0.00285317 -0.00318208
C 5.51364081 22.08362433 5.15043121 0.00239853 -0.00047644 -0.00567050
C 11.17224123 26.73385158 1.33789091 0.00465059 -0.00300163 0.00000662
C 5.03995678 26.19295536 1.15720963 -0.00586037 0.00073263 -0.00224469
C -1.34559838 21.16499756 4.84728226 0.00060021 0.00538723 0.00341019
C 5.32640712 21.26790306 6.27257687 -0.00443166 -0.00647907 0.00502426
C 11.37329082 25.85604092 0.18120526 -0.00522169 0.00274448 0.00364190
C -6.76462472 26.80222794 24.25313611 0.00361506 -0.00728929 -0.00385728
C -1.40600667 22.02453183 5.92434702 -0.00179015 0.00075152 0.00187952
C 7.08752085 21.23176059 0.82837359 -0.00019626 -0.00538143 -0.00357289
C 9.68074510 26.07127896 5.50181943 0.00144826 0.00105698 0.00129517
C 3.28268830 26.94598883 5.61685967 0.00008488 0.00045829 -0.00037407
C 0.52912523 21.80977384 0.80905684 0.00577168 0.00190185 0.00047955
C 6.02935419 21.95040543 0.35723016 -0.00313804 -0.00077413 -0.00282906
C -2.40638263 26.79017165 5.95244793 0.00031730 0.00324396 0.00133133
C 4.21235364 26.09234618 6.02228364 -0.00348562 0.00869479 -0.00318740
C 12.79648746 20.93557717 0.21358486 -0.00230611 0.00294588 -0.00271013
C 2.08732196 24.25007259 3.70130461 -0.00015761 -0.00308560 0.00980232
C 1.88132071 19.11855059 2.54076894 0.00163794 0.00388009 -0.00445197
C 8.11676057 23.51360026 2.61529930 0.00443881 -0.00097558 -0.00188532
C 8.62819357 28.40460280 3.67665721 0.00640568 0.00393728 0.00404627
C 0.74910470 25.03638723 3.45853209 -0.00770484 0.00302885 0.00299028
C 3.09121295 19.82931187 2.90428161 -0.00428866 -0.00630071 -0.00557556
C 9.24552697 22.54195419 2.89032341 -0.00746657 -0.00177980 0.00459340
C 7.33257736 27.56224334 3.59899323 0.00392216 0.00020930 -0.00145807
C 0.01945302 23.04765090 11.17953771 0.00295536 -0.00245526 0.00339024
C -2.65643442 27.69940319 7.05829067 -0.00084645 -0.00814406 -0.00437141
C 4.01312589 25.19901023 7.13582552 -0.00152788 -0.00319741 0.00221120
C 6.43164923 20.33310826 11.06492297 0.00166017 0.00075712 -0.00258327
C 1.26995040 22.88283234 10.54376548 0.00069693 -0.00663232 0.00344085
C 9.27179934 27.61404564 7.79950147 0.00392574 0.00303565 0.00988425
C 2.72631058 25.25450610 7.75725886 0.00244529 0.00257929 0.00709722
C -5.23472501 20.11251409 10.68980056 0.00489699 -0.00450927 0.00087676
C 2.16485238 21.92761437 11.06281775 0.00238338 0.00032654 0.00763061
C 8.33988939 26.69328200 7.40428478 0.00162207 0.00388064 -0.00002815
C 1.72778620 26.07431570 7.29064336 -0.00307043 -0.00572209 0.00065188
C -4.35006625 21.09183106 11.24790815 -0.00212736 -0.01076761 -0.00251165
C 1.76799764 21.12294701 12.20895789 0.00057202 -0.00057431 -0.00614005
C 8.53893404 25.93184259 6.27820716 0.00103099 -0.00211119 0.00490760
C 2.01340659 27.02534940 6.27549076 -0.00759900 0.00388046 0.00192331
C -4.59155427 21.85091625 12.38972994 0.00391407 -0.00030875 -0.00169979
C 4.07059358 21.32037183 6.90274507 -0.00050494 -0.00134466 -0.00073142
C 6.74394152 26.03398082 11.64242814 0.00311902 -0.00171796 -0.00104331
C 0.04904121 26.86039423 11.62992723 -0.00051242 0.01055826 0.00252379
C -2.67940183 22.17589627 6.57733454 -0.00476204 0.00066452 0.01206860
C 3.04585821 22.10884465 6.42905910 -0.00393247 0.00276050 0.00225103
C -5.60532462 26.78838000 11.66790450 0.00224743 -0.00638452 -0.00612504
C 0.95532202 26.03193923 12.16453591 0.00058261 -0.00041989 -0.00211500
C 9.60663473 21.29341183 6.34960609 -0.00461035 -0.00682155 -0.00488215
C -0.96255112 24.46366573 9.47997132 -0.00691433 -0.00198968 0.00713592
C -1.46701962 19.50634268 8.63012200 0.00221777 0.00162525 0.00044314
C 5.03534297 23.93775663 8.88260560 -0.00632562 0.00053677 0.00239107
C 5.57798573 28.45942065 9.76503023 0.00056734 -0.00560515 -0.00038975
C -2.16696450 25.35702272 9.27378516 -0.00370250 0.00968343 -0.00273559
C -0.38033431 20.53793464 8.83395113 0.00335574 -0.00113158 -0.00248605
C 6.21246489 23.14000545 9.30673213 0.00318294 0.00072694 0.00077255
C 4.48724310 27.44156110 9.59010174 -0.00151974 0.00664245 -0.00208059
C -3.00327856 23.01768771 17.40164206 -0.00049725 -0.00003318 -0.00486479
C -5.75681783 27.55856556 12.82304909 -0.00380731 0.00039429 0.00031944
C 0.69073400 25.21593237 13.26026058 -0.00264262 -0.00761664 -0.00397418
C 3.55773374 20.39651215 17.14639840 -0.00264399 -0.00170236 0.00116231
C -1.77987378 22.91055600 16.72203331 -0.00424634 -0.00397184 -0.00692423
C 6.43549315 27.62444278 13.88394742 -0.00070642 -0.00458553 0.00456947
C -0.44275102 25.33161338 14.01094195 -0.00716453 -0.00362833 0.00270730
C -8.08197611 20.38879281 16.80596784 0.00218755 0.00482173 -0.00397881
C -0.78604637 22.11719134 17.17043124 0.00316278 0.00290789 0.00057488
C 5.46433762 26.71956159 13.56676826 -0.00496046 0.00531146 -0.00528252
C -1.43809182 26.20457709 13.42209143 -0.00091026 -0.01053975 -0.00653296
C -7.08519069 21.29831418 17.16003395 -0.00216973 -0.00791475 -0.00558933
C -1.03722437 21.20770177 18.14291383 0.00212021 0.00751305 -0.00611730
C 5.59108108 25.94710070 12.36195502 0.00326352 0.00171374 0.00311396
C -1.25122619 26.93987878 12.20893111 0.00339486 0.00502127 0.00406946
C -7.26550106 21.95006348 18.36247059 0.00613572 -0.00144022 0.00704076
C 0.56005248 21.37913582 12.87632814 0.00597034 -0.00705896 0.00096918
C 3.54070264 25.79992887 17.99736698 -0.00368952 0.00122440 0.00089101
C -3.01770913 26.95276526 17.77186655 -0.00482481 0.01436097 -0.00485678
C -5.82768114 21.67192196 13.01863212 -0.00575281 0.00026036 0.00234908
C -0.33336862 22.24541928 12.32346335 -0.00972849 -0.00428739 0.00652066
C -8.49672220 26.50731301 17.96683379 0.00423709 0.00066655 -0.00828873
C -2.05710486 26.10382332 18.20677812 -0.00470864 0.00324869 0.00373635
C 6.28484321 21.24051127 12.14114646 -0.00440210 -0.00988237 0.00316524
C -4.18005362 24.37710663 15.73106430 -0.00088210 -0.00981753 0.00046148
C -4.33863802 19.44199674 14.68266233 -0.00280365 0.00170886 0.00561403
C 1.85733589 23.81825324 14.93724859 0.00245194 0.00058982 0.00058074
C 2.41608540 28.35647893 15.76647634 0.00299838 0.00523031 0.00037265
C -5.56662284 25.05023296 15.44209439 0.00405144 -0.00777455 -0.00095188
C -3.12623674 20.37527758 14.77944699 0.00394881 0.00292645 -0.00365223
C 2.93098276 22.77900343 15.02546448 0.00306319 -0.00372623 -0.00471666
C 0.98780416 27.76588556 15.63275672 -0.00167982 -0.00124528 -0.00609997
C -5.69357236 22.78685803 23.64345949 -0.00124861 0.00742629 0.00654032
C -8.67086328 27.35309435 19.08275531 -0.00325195 -0.00096164 -0.00090512
C -2.30327802 25.26475271 19.28559894 -0.00279278 0.00087876 0.00616234
C 0.88676540 20.13217401 23.40290478 0.00296880 0.00989688 -0.00046426
C -4.44916306 22.62863955 22.97979949 0.00592566 -0.00791368 -0.00014225
C 3.12194182 27.59017895 20.21909155 -0.00095229 -0.00144496 0.00147042
C -3.57776026 25.30064053 19.88960698 0.00031065 0.00597529 0.00388585
C -11.23133508 20.38901707 22.80914972 -0.00370238 -0.00654422 0.00157224
C -3.46601716 21.76293700 23.38858170 -0.00193745 -0.00004292 -0.00164203
C 2.14796065 26.72645025 19.89111204 0.00645619 -0.00222594 0.00112299
C -4.50472230 26.20244071 19.45003887 -0.00168639 0.00319751 0.00062022
C -10.20974706 21.29309690 23.25753035 0.00071578 0.00779712 0.00619451
C 8.31989719 21.08282395 0.22221636 -0.00440859 0.00237511 -0.00080643
C 2.31561660 25.83595533 18.70728538 -0.00117253 -0.00389414 0.00044831
C -4.25336922 27.01618415 18.34579552 -0.00116038 0.00298211 -0.00082847
C 1.72734997 22.02084219 0.05238196 -0.00292695 -0.00096563 -0.00295334
C -2.22127262 21.29541461 18.89488362 0.00032705 0.00332447 -0.00077724
C 0.61840815 25.86709989 23.86690794 0.00840722 0.00386538 0.00122329
C -5.48017752 26.61588029 23.69446146 0.00478189 0.00769259 -0.00144955
C -8.45880513 21.76806427 19.09189336 0.00499557 -0.00632308 0.01146570
C -3.19206878 22.22565800 18.52143567 -0.00157169 0.00178018 0.00277416
C -11.36144981 26.60240930 24.15414490 0.00082234 0.00792839 0.00057134
C -4.60390183 25.72105496 24.18046544 0.00146717 0.00639403 0.00377505
C 3.48890342 21.22304489 18.27815850 0.00071399 0.00173514 0.00455406
C -6.94234865 24.25469384 22.09348156 -0.00037816 0.00296449 -0.00123504
C -7.37891087 19.60294527 20.85578812 0.00404422 -0.00175498 0.00408871
C -1.14207369 23.71630128 20.87145529 0.00079416 -0.00032667 0.00131692
C -0.52287520 28.61946546 22.00159646 -0.00561500 -0.00244934 -0.00770490
C -8.12464194 25.21243426 21.86346513 0.00186931 0.00472328 -0.00585382
C -6.06912333 20.42126298 21.16679890 0.00295406 0.00150732 0.00089504
C 0.03562024 22.86739170 20.82578555 0.00002546 0.00371270 0.00558963
C -1.64004871 27.51385120 21.90389095 -0.00596927 0.00402637 -0.00198229
C 16.29500128 3.74605917 5.35884562 0.00722760 -0.00445365 -0.00124802
C 13.59161937 8.34648705 0.87356499 -0.00609765 0.00236116 0.00545316
C 20.18246900 5.73496384 0.85784568 -0.00160038 -0.00154821 0.00205067
C 22.76351702 0.95427328 5.26658121 0.00228909 -0.00204366 0.00382822
C 17.48085309 3.67909183 4.64293557 -0.00066104 -0.00293057 0.00224744
C 25.37610182 8.64273832 1.48058454 -0.00253867 0.00197195 -0.00212673
C 18.92878704 5.86795498 1.58267224 -0.00080333 0.00105613 0.00003179
C 11.04093695 1.12773409 4.50845225 -0.00297547 -0.00274444 -0.00318056
C 18.37004400 2.70750718 4.93216139 0.00252655 0.00186167 0.00308808
C 24.47933985 7.62086969 1.22514462 -0.00850673 -0.00177625 0.00434680
C 17.94194144 6.74129957 1.23136287 -0.00219134 0.00747570 0.00139125
C 11.99391191 2.10953574 4.92430965 0.00461065 -0.00300908 0.00148393
C 18.18570882 1.79805686 5.94165160 0.00279980 -0.00233527 -0.00014583
C 24.60953491 6.86064302 0.08043830 -0.00947691 -0.00779109 0.00358409
C 18.19301203 7.58604318 0.06403726 -0.00145212 -0.00084046 -0.00102515
C 11.82904650 2.84466493 6.09438175 -0.00022896 0.00044198 0.00078321
C 19.96065195 2.03125046 0.58148836 -0.00760905 -0.00550476 -0.00239410
C 22.80352080 6.86764227 5.41037375 -0.00282637 0.00468466 0.00152870
C 16.24659212 7.51729316 5.40614326 -0.00293249 0.00166204 0.00051362
C 13.57044579 2.88343940 0.78568768 0.00328241 0.00408801 -0.00469492
C 18.93418480 2.82532018 0.11731593 -0.00092754 0.00263256 0.00182500
C 10.83338840 7.53513233 6.23428247 -0.00100646 0.00005952 0.00162882
C 17.26707212 6.73342303 5.88709482 0.00498790 -0.00568383 -0.00094879
C 25.60410143 2.09757484 0.17769381 -0.00523964 -0.00197438 -0.00120191
C 14.96337775 5.10893225 3.83476527 0.01144983 -0.00253306 0.00105265
C 14.60245106 0.24899863 2.68641810 -0.00555554 0.00204708 -0.00091382
C 21.38604031 4.29146101 2.44282808 -0.00012494 0.00478724 -0.00394794
C 21.63076963 9.36603320 3.55442652 -0.00159342 -0.00097743 -0.00002086
C 13.63208493 5.75603149 3.69863018 -0.00765671 0.00113262 0.00419981
C 15.68380503 1.30535495 2.78037756 0.00210520 0.00462551 0.00087894