1920
Time=63000.00000006 pbc="T T T" Lattice="24.59633755 0.00000000 0.00000000 0.00000000 26.99922756 0.00000000 0.00000000 0.00000000 30.98974280" energy=-12233.49676669 virial="-19.80765242 25.88758067 -0.06673102 25.88758067 -63.38377696 -3.75483209 -0.06673102 -3.75483209 -44.06567933" stress="0.00153444 0.00124527 0.00002059 0.00124527 -0.00067458 -0.00019470 0.00002059 -0.00019470 0.00039425" Properties=species:S:1:pos:R:3:vel:R:3
O 4.57307945 23.12656680 13.55156989 -0.00260515 -0.00486021 -0.00012083
O 4.16215788 1.18547839 11.00477305 0.00164138 0.00498715 -0.00763205
O 3.54041074 17.85662161 1.18700063 0.00247634 -0.00176382 0.00779402
O 20.75028837 10.28927652 16.39159563 0.00491375 -0.00160726 -0.00035058
O 22.99347512 11.29959322 10.56801206 0.00613059 0.00221298 0.00161886
O 3.69795182 10.78838209 1.13096384 0.00194576 0.00026191 -0.00477176
O 7.68096372 20.26678170 15.32250717 0.00510365 0.00495620 -0.00026765
O 0.32136953 3.38548839 6.87950634 -0.00181377 0.00725281 -0.00554633
O 9.73144497 26.77248671 17.04692573 -0.00239571 -0.00002441 0.00585305
O 4.85618240 5.65635770 5.14879101 -0.00351259 0.00384045 0.00060673
O 0.58299352 12.23043536 0.61247788 -0.00568649 -0.00165680 -0.00689529
O 12.61369299 5.66290546 27.30486808 -0.00187853 0.00489696 -0.00043225
O 19.16305968 14.70931881 4.00522853 -0.00027203 0.00540329 0.00155716
O 5.20578244 11.53905333 26.00327991 -0.00640663 -0.00019424 0.00012803
O 9.91782065 18.33353478 9.77297294 0.00250664 -0.00041710 -0.00150374
O 6.18606480 7.00731761 13.32081388 -0.00132345 0.00038531 0.00657686
O 6.42107531 2.26664878 12.10760875 -0.00225301 -0.00063081 0.00104823
O 3.71130163 6.41572102 25.41120309 0.00288074 -0.00827805 -0.00271251
O 0.37477680 15.24161830 20.09484259 -0.00416543 -0.00171901 0.00483415
O 13.41055286 4.27811384 21.05418415 0.00129640 0.00183515 0.00044265
O 20.75765173 11.62664635 29.65388532 0.00101173 0.00085468 -0.00302281
O 2.97555489 11.04278167 13.38090916 -0.00680429 0.00180535 -0.00067078
O 11.98005111 26.21778271 26.70905965 -0.00119428 0.00281691 0.00264756
O 7.63947341 3.42597796 19.72119486 -0.00142310 0.00373939 0.00033352
O 7.88455498 0.49059527 10.34419040 0.00122227 -0.00512137 0.00321756
O 22.57763816 6.93193872 28.25254788 0.00237033 -0.00138557 0.00172764
O 23.27896166 10.89132323 24.55087829 0.00185723 -0.00463317 0.00054629
O 1.73604855 11.37074334 19.49394156 -0.00260080 0.00411050 -0.00077153
O 23.89919783 13.21327534 16.61401358 0.00042102 -0.00218218 -0.00243974
O 7.80675597 10.30707613 17.14970557 0.00801655 0.00353271 0.00288499
O 11.15471696 21.31882599 22.40494361 0.00233016 -0.00103444 0.00128640
O 1.16349854 4.79421602 0.69068355 -0.00224652 0.00272381 -0.00238476
O 15.44263690 20.03521007 8.33615291 -0.00059620 0.00099555 0.00246700
O 4.02876413 21.43741211 8.83575920 0.00480181 -0.00098241 -0.00016325
O 6.37183876 25.14281513 1.91891142 0.00500478 -0.00153711 0.00210930
O 5.47596086 18.95934723 15.44500871 0.00602565 -0.00322576 -0.00270930
O 4.93699895 24.11559304 18.24287696 -0.00194137 0.00592353 0.00334505
O 2.87590138 26.73055561 30.62247670 -0.00791407 0.00167483 -0.00235745
O 7.61725110 20.11541864 4.32051434 -0.00324047 0.00129739 0.00236578
O 3.60219229 26.31802374 26.30649246 -0.00045691 0.00351244 0.00196575
O 2.45275996 16.79339498 25.87978672 0.00123659 -0.00147216 -0.00152729
O 3.45640597 18.42556783 14.04019673 -0.00019754 0.00159183 -0.00226210
O 3.54380619 23.75136524 7.50549182 0.00332978 -0.00095581 -0.00228808
O 4.24066324 19.49277923 30.19258650 0.00235136 0.00207327 0.00504904
O 4.90378682 1.29381403 0.13442808 0.00008911 -0.00255639 0.00461908
O 0.47367555 25.17139916 5.15588701 -0.00262526 0.00051394 -0.00105504
O 3.29263811 15.57953059 4.72155516 0.00405130 -0.00000497 0.00421604
O 22.32342481 18.80791583 22.89221634 -0.00411081 -0.00245605 0.00164046
O 21.85299126 15.06424032 29.15675536 0.00539825 0.00022418 0.00230222
O 24.20748387 18.81312551 3.44769022 -0.00375863 0.00582522 -0.00900804
O 0.69719016 21.46839594 23.60474722 0.00059281 0.00256631 0.00179847
O 7.58240797 24.73243949 28.43376150 -0.00068017 0.00137885 0.00370188
O 4.84198575 3.99346448 25.21895744 0.00276833 -0.00943925 -0.00262446
O 4.62340716 17.78437236 25.07238118 0.00251023 0.00049617 -0.00075854
O 3.62758917 11.93026885 21.01177131 -0.00349904 0.00223434 0.00203965
O 18.49441139 19.98200869 27.83090906 0.00400791 -0.00063459 0.00394020
O 13.50469301 21.76701162 14.15819900 -0.00934600 0.00283282 -0.00120044
O 5.62158360 22.96079179 0.86989004 -0.00517197 -0.00137490 0.00248964
O 21.22515992 23.36089350 19.22130780 0.00289087 -0.00298236 0.00994420
O 2.83227946 15.95366650 20.38182980 -0.00454529 0.00122495 0.00232483
O 4.20300294 3.43731038 17.71212580 -0.00443090 0.01097666 -0.00194336
O 4.63149462 24.16526405 25.33153036 -0.00345768 -0.00496423 -0.00060948
O 7.64258456 16.84625868 21.53538590 0.00015267 -0.00365228 -0.00207816
O 20.58044053 26.42676688 25.78065548 -0.00236091 -0.00845596 0.00294943
O 3.74185036 5.81720986 2.74744811 -0.00181327 0.00078728 0.00104092
O 8.49843785 7.48566547 12.47125230 0.00226920 -0.00383140 -0.00117478
O 16.15792829 9.93411200 26.46871083 0.00319384 -0.00234731 0.00249559
O 10.63208798 9.65455372 12.95624895 -0.00323658 -0.00272853 -0.00752823
O 10.37065522 12.23949731 8.33129450 -0.00479132 -0.00186216 0.00151205
O 13.10288803 11.06060893 6.71923707 0.00107188 -0.00090119 -0.00186242
O 18.10012835 3.93472570 11.83851932 0.00067612 0.00021036 0.00640214
O 19.78443035 12.69327213 12.71935067 0.00120564 0.00217078 -0.00017932
O 22.61358952 26.31394779 16.15815778 0.00156233 -0.00264293 0.00320265
O 8.53597269 3.71822395 7.24960508 -0.00115791 0.00247235 -0.00087493
O 14.42108283 14.29405329 30.89333863 0.00130739 -0.00210915 0.00329418
O 2.67091990 8.61906614 2.08047535 0.00249943 -0.00698391 -0.00649551
O 6.84524337 17.14897901 29.58914535 -0.00055560 0.00695865 0.00494129
O 19.17641341 10.06373841 8.64292591 -0.00226497 -0.00503206 0.00469945
O 15.88675828 1.88945849 6.34006374 0.00653558 -0.00292866 0.00356592
O 19.55058567 4.02255897 27.27003695 0.00355162 0.00478935 0.00606804
O 1.39015669 0.37998139 22.87586935 -0.00158501 -0.00569946 0.00049047
O 6.90624263 11.50502334 23.94414941 -0.00150664 -0.00205375 0.00016101
O 8.29275297 11.48862637 19.44444741 0.00901922 0.00169446 -0.00106381
O 21.72473387 6.90380219 30.63471926 -0.00495021 0.00352780 -0.00316424
O 9.10059969 11.37299787 30.70561599 0.00350388 0.00163442 -0.01299631
O 19.22163761 1.65079578 14.73569449 0.00247215 -0.00006510 0.00020515
O 11.90430773 2.42961495 19.60810142 -0.00139251 -0.00051099 0.00432970
O 18.05590351 7.68072540 1.28729469 0.00379549 -0.00252338 0.00314052
O 5.30606262 6.77196564 27.54952139 0.00360645 0.00981757 -0.00043304
O 8.72403729 4.40628991 21.79973430 0.00205854 0.00331533 0.00297331
O 12.69103656 15.00237989 22.29587696 -0.00450431 0.00320068 0.00146822
O 15.15944665 13.67703279 14.44779858 -0.00430304 0.00611759 -0.00354892
O 9.01074160 11.12064044 2.13045053 -0.00158619 0.00079539 -0.00783876
O 18.30198359 5.82650841 21.19732685 0.00986403 -0.00022491 -0.01049586
O 11.86924909 7.63666234 13.93325704 -0.00573568 0.00308876 -0.01370184
O 13.53224123 11.93722026 11.44083690 0.00142383 -0.00426361 -0.00461579
O 11.23546204 8.87019834 30.46612966 0.00424877 -0.00275895 0.00194464
O 3.22183774 13.61669521 6.35512002 0.00434986 0.00535027 -0.00249826
O 12.50080854 5.82277145 3.06189901 0.00439928 0.00196010 0.00102070
O 23.52077103 17.22304292 10.56824383 0.00072095 -0.00082141 0.00157073
O 11.59596859 25.16049174 8.40953985 0.00688096 -0.00322880 -0.00143737
O 17.89804038 22.58003107 13.23692934 0.00540746 -0.00181179 0.00411902
O 8.59589299 15.66024231 12.15777221 -0.00412360 0.00350889 0.00816861
O 7.78341508 19.55724167 8.71444721 0.00346830 0.00024700 0.00528887
O 14.88713251 10.87645711 19.74596010 -0.00026492 -0.00102425 -0.00133111
O 9.13419842 10.80242194 9.94389486 0.00436332 -0.00029509 0.00473269
O 14.92265313 7.81002707 8.62119685 -0.00073520 -0.00100481 -0.00097474
O 11.46345316 3.45512827 2.90168214 0.00583346 0.00421781 -0.00221134
O 8.09107376 1.67371869 25.89906090 -0.00172998 0.00171256 -0.00428472
O 17.22691143 1.79155855 12.94766212 -0.00375656 -0.00022280 0.00443241
O 8.24989576 15.77943296 4.53590969 -0.00279317 -0.00026596 0.00153226
O 14.73406117 18.71628230 19.70996126 -0.00523373 0.00312640 0.00092907
O 16.61853316 17.02997344 20.36208087 0.00076009 0.00078164 -0.00365993
O 9.01835383 16.72879170 23.76043613 0.00332792 0.00561211 -0.00052713
O 16.36265138 24.50183054 7.15703132 0.00203486 0.00138743 0.00313229
O 7.51185315 0.35710336 28.08859390 0.00256405 0.00065343 -0.00417308
O 9.38314330 25.23113024 19.05277619 0.00828515 -0.00400806 0.00155544
O 19.35386338 19.95732259 18.93252933 0.00454921 -0.00356831 -0.00499505
O 11.52702864 16.23969424 16.91652748 -0.00453145 -0.00045647 -0.00888333
O 14.91464445 24.75179924 18.11054131 -0.00271469 -0.00223135 0.00119196
O 12.62254336 14.13050677 2.45530309 0.00020153 -0.00111488 -0.00303917
O 11.34479979 10.80174244 25.37065998 0.00035459 -0.00281110 -0.00346635
O 14.37058388 2.98313742 9.60554039 -0.00064627 0.00076056 -0.00141062
O 20.64729047 18.06579233 17.53412165 0.00136059 0.00495605 -0.00007216
O 9.44487459 24.99762667 14.57358416 -0.00015018 0.00122999 -0.00482650
O 16.10269301 18.56526451 24.03920914 -0.00210024 -0.00498927 -0.00632031
O 6.44350353 15.80714179 13.36124291 0.00090494 -0.00057294 0.00324009
O 11.09981047 24.05094186 6.04953730 -0.00449006 -0.00583720 -0.00512915
O 22.00904306 20.02795830 4.23206490 -0.00196257 0.00318493 0.00374888
O 23.60687305 4.95764764 17.84816211 0.00214737 0.00569080 0.00062805
O 10.07562685 20.01203032 3.58543476 0.00037081 0.00149316 -0.00010870
O 18.01785326 6.20751645 4.45890514 0.00174246 -0.00504905 -0.00378294
O 12.63062835 14.29795524 11.03165570 0.00340278 0.00049353 0.00257878
O 23.78539869 11.25070625 2.36771011 -0.00051156 -0.00027375 -0.00006661
O 20.94192487 3.79527646 8.46083842 -0.00583234 -0.00151576 0.00295058
O 23.08072335 26.75508538 5.26209730 -0.00479456 0.00112768 -0.00205696
O 7.78917633 20.84487497 20.70262772 -0.00655215 0.00195819 -0.00269131
O 19.44144583 8.83993862 14.75902169 0.00401873 -0.00353788 0.00149059
O 13.28460982 23.98220492 30.77913369 0.00391585 -0.00472290 0.00501293
O 20.00246158 13.72823972 28.18904565 0.00516050 -0.00467143 0.00680906
O 11.12665048 8.24208752 21.15384515 -0.00434665 0.00159921 -0.00366850
O 0.03637012 10.79221883 8.67767963 -0.00245894 -0.00632272 -0.00457890
O 23.43417601 23.57831330 8.80980863 -0.00533338 0.00591609 -0.00022503
O 23.96972380 5.53867407 20.38668165 -0.00045671 0.00083141 -0.00182327
O 2.35039029 23.28875306 23.11023164 -0.00116048 0.00325280 0.00507130
O 15.61959338 20.34649968 25.67706116 -0.00119993 -0.00409721 0.00099362
O 17.22420851 6.76960029 23.37610337 -0.00048470 0.00036915 0.00178608
O 19.27791411 13.12909813 21.92016701 -0.00654518 -0.00097775 0.00896893
O 15.47456122 10.71071431 24.24325373 -0.00069919 -0.00011173 -0.00534654
O 4.98670153 2.81720098 20.24281609 0.00654486 0.00449701 -0.00511144
O 21.65456099 23.34053029 30.69356245 -0.00077706 -0.00118607 0.00484732
O 19.78847753 3.53230819 24.60016698 -0.00338654 0.00451561 0.00072748
O 17.45585101 24.11843758 4.60500925 0.00388911 0.00497999 0.00797194
O 10.09689921 18.45709112 28.22985811 0.00219331 -0.00181000 0.00563602
O 16.90464124 1.95209442 27.71003030 -0.00500857 -0.00381147 0.00716019
O 23.70299181 5.55149325 7.36883603 -0.00262773 0.00258112 0.00733345
O 11.93760607 18.43722799 15.59684437 0.00055830 0.00278657 -0.00228356
O 1.02312055 1.74836136 25.01530432 -0.00154458 0.00122128 -0.00039310
O 0.79385389 21.15959482 26.13616647 -0.00360574 0.00211671 -0.00171459
O 22.44806503 1.60894164 30.27495177 -0.00118895 -0.00111175 0.00668188
O 23.58506374 21.03261759 8.35859622 0.01165644 0.00325016 0.00002665
O 17.43797925 19.50762855 16.98662222 0.00384647 0.00219033 -0.00432908
O 13.26625364 4.93918214 29.82331226 -0.00214459 -0.00203443 0.00270193
O 24.07532599 22.31611609 13.74032582 -0.00491591 -0.00461228 0.00655422
O 22.08459258 2.05999558 14.28970795 0.00179092 -0.00429760 0.00564797
O 22.18506944 17.05005566 30.77395899 0.00105619 -0.00045129 -0.00202908
O 17.23366241 17.77942533 28.71438294 -0.00099485 0.00198825 0.00025619
O 13.35601294 22.75576084 5.76615837 0.00133086 -0.00162188 -0.00150785
O 1.06917065 9.40686474 12.57621973 -0.00584607 -0.00148113 -0.00021202
O 20.12460762 15.22884094 13.51284190 -0.00103522 -0.00155743 0.00041201
O 16.53111726 7.91151682 3.24846913 -0.00044094 -0.00300392 0.00142580
O 24.43115444 16.16022542 3.65848356 -0.00082208 -0.00381474 0.00115126
O 18.19426494 22.45038655 27.43212276 -0.00303043 -0.00559230 0.00164052
O 18.93726055 17.11516176 4.97895258 -0.00135063 -0.00587411 0.00503892
O 12.22609784 18.40259829 3.42940922 0.00062979 -0.00532418 -0.00257205
O 19.79370035 10.92110772 20.76838164 0.00048130 0.00070274 -0.00653430
O 20.20821635 7.78329884 9.71858589 -0.00235751 0.00299852 0.00420480
O 20.00504300 26.97063404 2.10268103 0.00183261 0.00353256 -0.00452325
O 22.43867431 21.50854059 15.28345064 -0.00042875 -0.00645145 0.00030062
O 1.44031630 17.35031473 9.87139173 -0.00747006 0.00035746 0.00630175
O 14.67272422 23.46290361 22.37108511 0.00521768 -0.00376326 -0.00120056
O 23.60262817 17.15426219 19.26321434 -0.00042678 0.00148972 -0.00602134
O 14.47991911 0.15209264 18.84594714 -0.00182623 -0.00442148 -0.00023955
O 17.34237981 14.16980447 15.73258727 -0.00844728 -0.00042177 -0.00385044
O 17.58791951 18.96412489 9.41093925 0.00555860 -0.00535616 -0.00149311
O 15.09104429 25.21786459 29.54560756 -0.00422447 0.00171729 0.00008006
O 17.55427331 24.83759389 17.78468791 0.00264555 0.00490551 0.00681807
O 2.36249897 0.48323598 12.68149366 -0.00105359 0.00431563 0.00151965
O 18.66410268 26.39996288 9.71643201 -0.00355271 0.00118409 -0.00662720
O 3.31951597 22.13535209 18.81213149 -0.00450444 0.00546400 0.00290602
O 12.95357658 0.66160540 24.86329773 0.00142189 0.00283497 -0.00436596
O 17.67527954 20.63233377 1.53609785 -0.00239968 -0.00156513 -0.00217483
N 13.69080929 23.29268406 12.45518360 -0.00329017 0.00363946 -0.00539958
N 3.88320577 4.27124887 6.59823962 0.00735511 -0.00252326 0.00845227
N 4.71187493 25.73311904 7.21651756 0.00129957 -0.00236967 -0.00614444
N 1.50233444 9.73288522 17.83556765 -0.00321307 -0.00334620 0.00038832
N 2.46308593 2.12853716 18.53135647 0.00364278 -0.00661855 0.00658958
N 3.10736396 10.98518553 26.57452987 -0.00402132 -0.00004090 0.00305513
N 4.74929351 15.55623348 3.03691132 0.00197034 -0.00056299 -0.00373689
N 2.26557106 3.12264019 1.63643492 -0.00133505 -0.00051500 0.00387369
N 1.70005213 14.64982926 25.84532083 0.00306797 -0.00133686 0.00053241
N 23.49907479 8.58816939 26.93464067 -0.00432645 -0.00387543 -0.00560486
N 20.64283740 23.66933366 21.38439605 0.00028159 -0.00070847 -0.00097883
N 10.83978750 5.03164228 25.98773754 0.00066857 -0.00076536 -0.00367144
N 6.40118095 2.85341544 30.47178672 -0.00020074 0.00004718 0.00040501
N 7.98781759 9.55985010 15.05289098 0.00297545 0.00576370 0.00706300
N 7.09190768 15.99826456 19.43025309 -0.00097158 -0.00030237 0.00280778
N 5.62391799 6.39829596 15.43202912 -0.00387919 -0.00621781 -0.00354947
N 7.68482846 25.48418049 9.43899170 -0.00301157 -0.00075510 -0.00644481
N 1.43910671 19.02658532 13.02093690 -0.00194375 0.00533259 0.00005791
N 1.54718831 13.22874152 29.85596737 0.00711573 -0.00457394 -0.00217439
N 4.44393481 17.57995623 20.63666618 -0.00115482 0.00123681 -0.00219695
N 0.91573767 13.41265962 15.00264325 0.00317444 0.00421767 0.01042525
N 0.90571391 23.39130616 3.70493094 -0.00287090 -0.00021191 0.00389518
N 11.26364619 19.45801673 11.27733711 0.00067380 -0.00910413 0.01151120
N 22.65057809 26.13859174 26.51409613 -0.00157695 -0.00626860 0.00374295
N 10.69732758 1.21297698 15.54311282 -0.00406906 0.00265016 0.00761655
N 3.55744924 22.14914927 1.32009209 -0.00266239 -0.00907880 -0.00210676
N 22.29520932 11.03343211 22.49555600 -0.00192495 0.00114800 0.00197626
N 3.21104864 21.37641732 29.35059119 -0.00601794 -0.00301385 -0.00644347
N 19.14244990 12.31780266 3.98401384 0.00243979 -0.00878131 -0.00461056
N 6.31126734 22.98465341 24.22482465 -0.00475385 0.00105169 -0.00196746
N 10.32908235 21.30965144 24.49211520 -0.00662156 -0.00172382 0.00148112
N 21.92104899 17.26416016 24.54996707 0.00321754 0.00989914 0.00501656
N 12.39261852 12.31375691 3.81022134 -0.00034071 0.00624523 0.00001816
N 9.99769865 5.44927003 7.29218209 -0.00170662 0.00524985 -0.00490170
N 14.45136933 5.66534563 8.26362067 -0.00276726 -0.00571957 0.00025648
N 13.04266421 14.29032212 14.84777129 -0.00419221 -0.00195651 0.00798931
N 8.57146994 23.77450478 12.93251324 0.00284048 -0.00443920 -0.00334683
N 18.12539219 12.09194397 8.90276056 -0.00078327 -0.00093682 0.00210193
N 7.84515164 16.04317640 6.69580193 0.00179458 0.00253818 -0.00351515
N 15.07005002 10.38742115 10.68454710 -0.00214822 0.00712108 0.00412540
N 13.73737006 12.52333852 18.66767670 0.00329620 0.00315085 -0.00276407
N 9.03964860 6.46558218 22.74474324 0.00532020 0.00262732 -0.00220254
N 13.01423480 1.78006447 8.21755492 0.00010211 0.00185201 0.00337786
N 0.95207109 8.43566541 3.51851848 0.00012941 -0.00232629 0.00281260
N 7.91342108 1.00964629 23.71644495 -0.00167620 -0.00321133 0.00167353
N 18.78305294 4.37440113 19.55666863 0.00524461 -0.00484573 0.00042121
N 6.87364335 14.14643092 14.93083860 -0.00726638 0.00185138 0.00504721
N 19.53734221 3.11725283 29.38224277 0.00616332 0.00271060 0.00119773
N 6.70337161 7.57963268 29.31643143 0.00354550 0.00705120 0.00583083
N 7.01545476 11.75973727 9.95059645 0.00814928 -0.00184650 0.00237942
N 16.39945924 13.04781428 30.95056951 0.00450454 0.00315640 0.00247605
N 21.42014786 18.38207693 15.50581616 -0.00177348 -0.00937842 0.00197394
N 7.93027463 10.33755205 3.90267931 0.00233357 0.00067108 -0.00367365
N 15.32440371 0.51673373 13.48311912 0.00185330 0.00350166 -0.00056709
N 17.08133076 3.84347139 6.31805930 -0.00594314 -0.00083329 -0.00358113
N 8.87126500 24.00509868 5.64888376 -0.00146564 0.00289588 -0.00397858
N 23.11852346 25.94533182 18.28826466 0.00461710 0.00823729 -0.00225784
N 11.17965601 12.64656887 26.84764220 0.00398715 -0.00357509 0.00382387
N 13.05008444 12.71533490 21.92084099 -0.00077861 -0.00818362 -0.01519020
N 10.02389076 2.14997101 1.82554564 -0.00307090 0.00402045 -0.00152677
N 7.29948706 15.75016009 27.90087774 -0.00071924 -0.00066663 -0.00770329
N 18.00702162 17.24614239 23.67365358 0.00413161 -0.00378884 -0.00189594
N 12.30423815 6.07266208 15.35951779 0.00085366 0.00733561 0.00144437
N 13.67479165 20.28168072 20.98089148 -0.00104382 0.00669433 -0.00060960
N 18.89879750 18.22243882 7.74257195 0.00491912 -0.00162585 0.00271231
N 19.66948985 6.58169478 14.18483358 0.00144939 -0.00135289 0.00224328
N 15.27871635 9.13615101 1.74484788 0.00192846 0.00445727 -0.00013612
N 22.63620772 7.56916058 7.17627687 0.00278967 -0.00256501 -0.00270544
N 20.54662449 25.33997263 10.34734174 0.00514877 -0.00634640 -0.00776765
N 1.80619744 10.72925965 7.25761645 -0.00456578 0.01151571 -0.01353974
N 13.60836253 18.83888432 1.72192452 0.00474345 0.00324778 0.00174858
N 22.22335678 3.19873621 1.03082914 0.00262538 -0.00468519 0.00513515
N 0.35344681 7.10986692 12.43097027 -0.00337641 -0.00005237 -0.00234529
N 11.23931825 20.23332378 29.07850618 -0.00713242 -0.00083123 0.00709138
N 18.57722891 25.37887743 15.77904023 0.00371789 -0.00229668 0.00586357
N 17.92947317 13.43516365 27.36023281 -0.00951256 0.00583234 -0.00460069
N 18.88681181 23.96752667 25.84826939 -0.00442603 -0.00083907 -0.00787426
N 1.13587498 3.91065667 24.18583632 0.00247313 -0.00051138 0.00881836
N 14.95310479 1.49966494 24.14448821 0.00416213 0.00076885 -0.00267045
N 22.98585401 7.09089020 21.70269433 -0.00498657 0.00082932 -0.00344232
N 19.52141256 24.95868373 4.12207300 -0.00229436 -0.00150634 0.00157082
N 19.51897847 17.08549944 12.44192349 0.00297999 0.00474514 0.00233332
N 11.07386948 24.35955630 0.34933778 -0.00042640 0.00250196 -0.00050934
N 2.47671882 26.73935690 14.86058409 0.00601739 -0.00022447 -0.00134946
N 14.03769324 18.25672097 14.65243095 -0.00643411 -0.00868136 -0.00613475
N 17.89311886 17.98106465 3.08254107 -0.00857744 0.00109834 0.00398846
N 23.32119293 25.80912585 8.52175762 -0.00172629 0.00065950 0.00172603
N 16.92390192 22.87321574 1.46888409 -0.00115164 -0.00619526 -0.00469510
N 7.24467163 23.14096682 20.40297160 -0.00118448 0.00770761 -0.00279978
N 17.08922509 25.49929104 28.50170288 -0.00267682 -0.00396045 -0.00238512
N 16.57656108 4.12090596 28.28643924 0.00040435 -0.00103579 -0.00170222
N 23.59775595 14.90402123 5.37659362 0.00654912 -0.00256330 0.00465799
N 13.10822436 7.28935414 20.65990180 0.00054371 -0.00399290 0.00715583
N 1.94879145 21.45523106 17.10196325 -0.00804033 -0.00285683 0.00009995
N 23.95658009 19.80141118 27.17601323 -0.00103565 -0.00146160 0.00007560
N 18.73994153 9.98307113 18.97367238 0.00298725 -0.00313127 -0.00345725
C 6.42963939 25.74327270 11.55572832 0.00200251 0.00570709 0.00632443
C 5.17622235 2.84422758 7.96786418 -0.00313059 0.00490733 -0.00305410
C 3.37016227 14.93955382 29.98542464 0.00366157 0.00212083 -0.00028751
C 23.83981162 10.73780833 18.33350221 0.01349273 0.00274159 0.00385025
C 23.48795227 12.44714801 14.02595187 0.00078426 -0.00494802 -0.01358193
C 4.28368096 11.64465666 28.57821744 0.00243616 0.00144657 -0.00151700
C 10.75686227 20.18733123 13.43714607 -0.00369881 -0.00282464 -0.00352526
C 2.09549516 2.30026971 3.86532307 -0.00642884 -0.00060711 -0.00210245
C 5.72849183 25.07895896 12.58589445 0.00260911 -0.00280705 0.00183583
C 5.34520159 2.11970190 9.12223321 -0.00092131 -0.00557028 0.00759380
C 3.74621225 16.16307265 30.54440522 -0.00296327 0.00640334 0.00062744
C 22.50354658 10.80954518 17.99982747 -0.00146035 0.00994777 -0.00134463
C 22.82484065 12.03919004 12.82092865 -0.00535098 0.01004349 0.00780969
C 4.43727076 11.61469219 29.96332491 -0.00940447 -0.00506996 0.00373564
C 9.88738922 20.35643135 14.48367963 0.00136721 -0.00226519 0.00511727
C 1.57929935 2.35721307 5.16843246 -0.00360627 -0.01310067 0.01568069
C 5.27579290 23.76086149 12.47783580 0.00157454 -0.00395846 0.01188255
C 4.20175300 2.06345499 9.97222911 -0.00105334 0.00229008 0.00093532
C 3.11169473 16.72111411 0.68762767 0.00657221 0.00274549 0.00042742
C 22.04354929 10.22714617 16.77104622 0.00602805 0.00010323 0.00193273
C 23.51819071 11.93444913 11.64171457 -0.00201003 -0.00145498 0.00276514
C 3.61439531 10.85183110 30.75374529 -0.00854392 -0.00167816 0.00440765
C 8.46863198 20.15003144 14.32101730 0.00288166 0.00108642 0.00190858
C 0.83067793 3.43026643 5.60481642 -0.00040195 0.00339154 -0.00261179
C 5.53864494 23.12232791 11.31323834 -0.00479324 -0.00372960 0.00152029
C 3.00795402 2.69528113 9.64584269 -0.00381193 -0.00403260 -0.00017222
C 1.94433082 16.16313617 1.24446276 -0.00262803 0.00118230 0.00197261
C 22.93902992 9.44898663 16.00028465 0.00658603 0.00146568 -0.00804528
C 0.27258995 12.42663916 11.54822562 0.00090705 -0.00066668 -0.00183428
C 2.60756512 10.17351583 30.09807269 0.00424225 -0.00144798 -0.00686071
C 8.07021625 19.68390858 13.09604996 -0.00328107 -0.00452918 -0.00044368
C 0.65698161 4.44447236 4.68321781 0.00122279 -0.00132209 0.00369201
C 6.36662446 23.72999501 10.39439857 -0.00544718 -0.00842036 0.00105698
C 2.85141867 3.36393456 8.47726471 0.00288873 0.00835488 -0.00390376
C 1.47412852 15.00004338 0.58083691 -0.00294733 -0.00664076 -0.00762502
C 24.22895993 9.29773359 16.41306290 -0.00469126 0.00319708 0.00148608
C 0.90022994 12.85097363 12.72475713 -0.00307137 -0.00458367 0.00557227
C 2.46221926 10.15418928 28.72699355 -0.00796742 -0.00187675 -0.00557197
C 8.92735692 19.55292808 11.99285467 0.00490161 -0.00101398 0.00569842
C 1.07214726 4.40344940 3.34733467 0.00102825 0.00515804 0.00219805
C 6.90871818 24.97880229 10.48060924 0.00375369 0.00120593 -0.00097570
C 3.94915267 3.43100759 7.65093301 -0.00147783 0.00526453 0.00793182
C 2.13940293 14.37618192 30.54568007 -0.00209861 0.00766641 0.00613659
C 0.11191714 9.91789049 17.55803990 0.00421722 0.00676373 -0.00007050
C 0.18528263 12.90120375 13.94179670 -0.00079742 0.00060051 -0.00391293
C 3.32627570 10.90320770 27.92419858 -0.00272240 0.00597849 0.00094582
C 10.29517757 19.63675741 12.19853343 -0.00602012 0.01017305 0.00889340
C 1.81299499 3.34308987 2.90977208 -0.00469041 0.00465768 -0.00706949
C 8.08311259 26.75868344 9.37585013 0.01313769 0.00095291 0.01168287
C 4.72365914 5.26367570 6.31273761 0.00932757 -0.00713163 -0.00093657
C 0.58144370 12.50220073 30.42029055 -0.00039466 0.00021614 0.00016451
C 2.23907387 10.39853365 18.82194388 0.00361991 0.00499089 0.00260460
C 0.39033600 13.58824710 16.28961170 -0.00091034 -0.00191429 -0.00421416
C 4.08862447 11.14334153 25.65251641 -0.00271142 0.00548013 -0.00288513
C 11.02502609 18.74210812 10.09938812 -0.00156987 -0.00075159 -0.00457018
C 1.86231528 3.81495314 0.54331885 0.00364233 -0.00239643 0.00422882
C 4.14562939 15.04320540 26.02861923 -0.00018796 0.00022082 -0.00172980
C 5.59364083 6.05311404 7.30710562 -0.00406832 0.00077881 -0.00108466
C 3.07657290 25.62249834 8.87490116 -0.00124230 -0.00106391 0.00017767
C 10.40381763 5.78818921 28.28978100 0.00402078 0.00069341 -0.00340940
C 5.71854714 2.81784140 1.78665905 0.00658729 0.00537723 -0.00276012
C 3.81264909 10.77299178 24.27066143 -0.00875144 0.00266814 0.01018640
C 3.17255740 13.69930329 3.20319173 -0.00269511 0.00093354 -0.00127352
C 4.84243513 5.02544902 13.57628725 0.00722254 0.00147933 0.00491467
C 8.31328603 0.84256726 14.89968145 0.00068199 -0.00859368 -0.00604287
C 0.48409635 8.20938303 25.18374685 -0.00116625 0.00044472 -0.00749225
C 24.33921760 12.36820396 22.25187883 0.00638452 0.00631105 0.00453377
C 12.80810468 5.42409786 24.56317440 0.01085684 -0.00107318 0.00169981
C 19.85531021 10.85279453 2.15124510 0.00036235 0.00674504 -0.00472799
C 6.34242246 9.89851494 13.30267337 -0.00122698 0.00087270 -0.00487948
C 11.84596233 23.42034727 24.30530034 -0.00033565 -0.00060215 0.00179864
C 5.94417583 5.99038523 17.75857732 -0.00263671 0.00091602 0.00157343
C 7.32613401 1.04241367 14.00889395 -0.00377230 -0.00495273 -0.00687430
C 1.74172817 7.78693637 24.89032019 -0.00225044 0.00250359 0.00453632
C 0.41238907 13.45761976 21.72938144 0.00302410 0.00243193 0.00254475
C 13.42932344 5.25925404 23.29691909 0.00634076 -0.00451086 0.00193886
C 20.20489195 10.67734135 0.82876271 -0.00384885 -0.00394713 -0.00342731
C 5.14654692 10.22000594 12.85370544 -0.00037790 0.00407028 0.00117151
C 12.23032565 24.56488907 24.96748133 0.00571643 -0.00074985 0.00800225
C 6.53323617 5.29352438 18.81788271 -0.00048930 -0.00259620 0.00321916
C 7.43045468 1.90392649 12.92021835 -0.00603572 -0.00614923 -0.00533416
C 2.40694304 6.80414476 25.67195534 0.00813765 -0.00504864 -0.00514572
C 24.38193988 14.22745926 20.74279554 0.00495389 0.00010573 -0.00444986
C 12.91001538 4.45202540 22.27868126 -0.00605315 0.00110929 -0.00053668
C 20.46733711 11.76975100 30.96944293 -0.00581989 0.00372813 -0.00145166
C 4.12659610 10.68329538 13.79478785 -0.00624074 -0.00567903 -0.00966785
C 11.67273543 25.00184359 26.15486161 -0.00236928 0.00278087 -0.00629230
C 7.19989623 4.06779649 18.61420071 0.00837154 0.00073446 -0.00366289
C 8.74117084 2.43560909 12.69602314 0.00454292 -0.00423966 -0.00116264
C 1.81158091 6.31161027 26.82000144 0.00268410 -0.00285570 0.01031402
C 22.96999991 14.06344329 20.51655529 0.00391998 0.00213546 0.00619773
C 11.65810066 3.87698776 22.60563720 -0.01086255 0.00042085 0.00619273
C 20.52566958 13.08145598 0.55496197 0.00807407 -0.00336216 0.00185416
C 4.38850599 10.57620728 15.19553787 -0.00224461 0.00217067 -0.00184399
C 10.62927284 24.23907814 26.74427010 -0.00682588 0.00439253 0.00234742
C 7.30269357 3.62775172 17.25084205 -0.00231597 0.00081642 0.00361550
C 9.78199973 2.11411560 13.55274144 -0.00403600 -0.00533712 -0.00184758
C 0.58521334 6.80285211 27.23639211 -0.00159485 -0.00754511 -0.00425831
C 22.30793367 12.96227844 21.06073159 0.01119044 -0.00366729 -0.00373085
C 10.97997442 4.12934713 23.77338973 0.00686448 -0.00046606 -0.00077602
C 19.98356475 13.24968981 1.81976589 -0.01115684 -0.00293046 -0.00111907
C 5.66612121 10.16811922 15.59582579 0.00072449 0.00225898 0.00095566
C 10.22647745 23.07311052 26.05130182 0.00474945 0.00365007 -0.00196059
C 6.78228791 4.34546729 16.18704071 0.00449474 0.00172516 0.00737913
C 9.61908595 1.38228458 14.69142961 -0.00074257 -0.01495851 0.00210133
C 24.54634456 7.83484355 26.42713366 -0.00166840 -0.00093488 -0.00079154
C 22.95452255 12.11872251 21.92693653 -0.00692252 0.00452503 0.00116610
C 11.55522203 4.87303780 24.76595694 -0.00180317 0.00457246 -0.00113669
C 19.62442466 12.12742971 2.68360129 -0.00298812 -0.00126048 -0.00069103
C 6.72214162 9.89613219 14.66155085 -0.00099889 0.00244678 -0.01072811
C 10.82706469 22.60263452 24.90151512 -0.00042489 0.00562040 0.00028332
C 6.15329939 5.53819128 16.43419878 0.00093548 -0.00008309 0.00501283
C 10.71282372 0.36419252 16.66179708 0.00052027 0.00090176 -0.00037980
C 22.60116514 8.08543142 27.79891377 0.00424239 0.00258668 0.00183520
C 22.19528986 10.97431819 23.90398643 0.00353224 -0.00491534 -0.00126491
C 11.43223532 5.48943551 27.12725582 0.00291696 -0.00419878 -0.00130879
C 18.84897466 13.57248400 4.56342360 -0.00433207 -0.00161240 0.00253246
C 8.48462418 9.71839029 16.33264479 0.00488331 -0.00103752 -0.00325953
C 10.65668198 20.69443758 23.35259938 -0.00137403 -0.00030974 0.00856709
C 5.61731431 6.19619844 14.07523291 0.00560744 0.00176658 -0.00145780
C 12.66700407 24.00922298 14.50374775 0.00520293 -0.00536720 -0.00253151
C 21.72393899 9.18453046 28.27975656 0.00605685 -0.00085947 -0.01142092
C 19.90805216 25.27971860 19.69089699 0.00495626 0.00030234 -0.00201896
C 3.58189225 9.84366995 19.10858864 -0.00196408 -0.00186835 0.00418447
C 2.03164905 4.26508753 17.41000625 0.00376586 -0.00129818 -0.00419619
C 9.89852827 9.14632995 16.59041053 -0.00070164 -0.00389040 0.00199243