1920
Time=81000.00000008 pbc="T T T" Lattice="25.08001033 0.00000000 0.00000000 0.00000000 26.96177770 0.00000000 0.00000000 0.00000000 30.66963083" energy=-12233.54228985 virial="-41.60309473 -12.89088705 15.94721696 -12.89088705 -29.62901894 -5.86584643 15.94721696 -5.86584643 -72.01752395" stress="0.00037549 -0.00062478 0.00080486 -0.00062478 0.00100950 -0.00030123 0.00080486 -0.00030123 -0.00111345" Properties=species:S:1:pos:R:3:vel:R:3
O 4.51354375 23.29915203 12.96906471 -0.00498741 -0.00168563 -0.00251494
O 4.81494726 0.94857625 10.89011638 0.00136063 -0.00107324 0.00059774
O 3.60816292 18.21564170 0.33937454 0.00345609 -0.00465997 -0.00503638
O 21.21120110 10.74005919 15.91100783 0.00922392 -0.00856653 0.00036536
O 23.79952004 11.73759426 9.73929475 0.00053664 0.00205510 0.00462380
O 3.13840928 10.61412757 1.24303444 -0.00498863 0.00138976 0.00152907
O 8.05109476 20.08574798 15.41933286 -0.00465090 -0.00156758 -0.00415958
O 25.03480255 2.91815769 5.94795776 0.00124821 0.00055707 -0.00175891
O 9.01485880 26.75081390 16.84694894 0.00033706 -0.00486510 -0.00121320
O 4.87217691 4.32239216 3.94936496 -0.00490579 0.00011921 -0.00264478
O 24.98261611 13.06612316 0.50207829 -0.00631748 -0.00034389 -0.00202997
O 12.44205511 5.84203144 27.03647353 -0.00152760 0.00215312 -0.00190853
O 20.00284192 14.79587086 3.95988634 -0.00618165 0.00152562 -0.00588084
O 5.25181461 11.10411189 25.88157261 -0.00313278 -0.00493034 -0.00303623
O 11.06504766 18.64671356 10.13646193 -0.00178386 -0.00117630 0.00642961
O 5.79981013 7.28666742 12.96287302 0.00382135 0.00409728 0.00561529
O 6.26866461 2.66970784 12.08492101 -0.00571930 -0.00305420 -0.00208884
O 3.68383979 6.54243329 25.25509626 0.00052781 -0.00242431 -0.00410230
O 0.65010133 15.07211333 19.86264271 -0.00502704 0.00210606 0.01326993
O 13.59630717 3.79725019 21.15002912 -0.00035192 -0.00115650 0.00165032
O 21.46715918 11.29422527 29.39544590 -0.00677277 -0.00394296 0.00146263
O 2.85184107 10.69826351 13.05920971 -0.00267698 0.00208201 0.00412334
O 12.26090508 25.48889591 26.08402279 0.00170316 -0.00152162 0.00194756
O 8.68069846 3.90681279 19.21970127 0.00534185 0.00028569 0.00750779
O 8.57917311 0.48088608 10.09550945 -0.00085833 0.00089466 0.00863749
O 23.10853895 7.10321408 27.87618318 0.00279897 0.00445721 0.00013923
O 23.49062101 11.05508913 24.42645880 0.00261945 0.00210487 0.00075647
O 1.40660737 10.99257803 19.54067123 0.00277663 -0.00750957 -0.00118547
O 23.90701268 13.47425812 15.87853980 0.00226823 -0.00102109 0.00023547
O 7.50332022 10.21595565 17.58348111 -0.00063260 -0.00215876 0.00717091
O 10.57992580 22.16963365 21.14218203 0.00906873 -0.00038079 -0.00292617
O 0.45087284 4.23441055 30.31411195 0.00117720 -0.00314600 -0.00406273
O 17.87457554 20.43801344 8.51181410 0.00536877 -0.00154765 0.00171316
O 4.98280454 20.03598741 8.32104997 0.00065441 -0.00440807 -0.00348206
O 6.84910981 24.82725055 2.05193276 -0.00110643 -0.00445154 0.00035471
O 5.84915649 18.76731902 15.46770371 0.00738465 -0.00391597 0.00870170
O 4.86635604 24.77538873 18.06761770 0.00031256 -0.00716050 -0.00000867
O 3.28788611 0.04092294 0.02863838 0.00005223 -0.00193899 -0.00621277
O 8.52492592 20.18100329 4.51805922 -0.00301046 0.00663793 -0.00504449
O 3.64082799 25.68388207 26.27271406 0.00048462 -0.00912421 -0.00070842
O 2.77380309 16.73972229 26.49200720 0.00154523 0.00167674 -0.00828082
O 3.80847276 17.89148121 14.09876058 -0.00401995 -0.00184788 -0.00245310
O 4.75108772 22.62903109 7.58106293 0.00689279 -0.00011017 0.00029580
O 4.82334803 19.80125617 29.35989342 0.00486530 -0.00273472 -0.00286217
O 5.65613714 0.97829047 0.31532449 -0.00376402 -0.00236022 -0.00074922
O 2.25428865 23.86638359 5.52902479 0.00273547 0.00427501 -0.00719980
O 4.53089381 15.46017029 5.03601108 0.00376040 0.00240374 0.00124935
O 22.95908531 19.07216595 22.55216755 0.00318076 0.00317199 0.00244169
O 21.87495577 15.58546339 28.33386627 0.00280290 0.00652320 -0.00374309
O 24.72611193 19.05754574 3.64670686 0.00563840 -0.00621958 0.00596078
O 0.74596751 21.59794030 24.03694658 -0.00157464 0.00149404 -0.00335600
O 8.80558346 24.86414866 28.38661745 0.00219943 -0.00040104 0.00819909
O 4.19768953 2.39431293 24.95908499 0.00071863 -0.00212864 -0.00158365
O 4.88190088 17.55958213 25.39895081 0.00418675 0.00580485 -0.00026883
O 3.34596039 11.80193819 21.00125702 -0.00186578 0.00093681 -0.00225944
O 18.56313499 19.64503133 27.22792272 -0.00241620 -0.00374971 -0.00584515
O 13.93671265 22.02103073 13.15600589 -0.00134947 0.00244511 -0.00033479
O 5.78710015 22.77721182 0.95603907 0.00662553 0.00296935 -0.00492216
O 22.08793057 23.89665769 19.70069492 0.00510349 0.00487835 0.00036730
O 2.78982940 16.21989499 20.77080450 0.00169340 0.00461857 -0.00544698
O 4.76207291 4.16603447 17.31333097 -0.00471767 0.00001407 0.00120738
O 4.89805316 23.57023022 25.54359461 -0.00489247 -0.00377571 -0.00461364
O 7.74967420 16.00718548 20.71201815 0.00075433 -0.00191464 -0.00005254
O 21.16819848 25.71529667 26.71514418 0.00042159 -0.00037641 0.00199632
O 3.19612720 5.71713912 2.52950433 -0.00179870 -0.00102594 0.00492657
O 8.23016342 7.75384005 12.49467456 -0.00145323 0.00230847 -0.00246500
O 16.20272442 9.34787942 27.06594292 0.00151616 -0.00338994 -0.00670179
O 10.52342108 9.91675100 13.44088831 0.00356961 -0.00136504 -0.00054044
O 11.18307590 11.33714244 7.94690840 -0.00005052 -0.00175876 -0.00070937
O 13.62940440 10.04043881 7.10602430 -0.00451858 0.00465183 0.00144299
O 17.73807903 4.27454549 11.94184319 -0.00548280 0.00362322 -0.00295854
O 20.21040561 12.47691927 12.94518730 -0.00206622 0.00327229 -0.00044726
O 23.13777068 0.39755652 15.90761196 0.00526457 0.00205526 -0.00065168
O 9.06165538 3.77751110 7.67116801 -0.00092672 0.00025593 0.00480661
O 14.34178538 13.55844621 1.07058751 0.00121113 0.00308927 0.00250527
O 2.02959245 8.57637239 2.33480404 0.00641081 0.00650323 -0.00379944
O 8.51137398 17.01262697 29.15704540 0.00500828 0.00093320 0.00020200
O 19.71731734 10.83147667 9.16926860 -0.00152708 0.00268554 0.00292686
O 16.42005318 2.29923358 6.08968812 -0.00600394 -0.00277374 0.00396473
O 19.70817175 3.59480916 26.86195482 0.00418768 -0.00501380 -0.00346235
O 0.53463750 26.36571742 23.05335955 0.00307582 0.00192654 -0.00612051
O 6.58630092 12.19384491 23.60889216 0.00233368 -0.00185820 -0.00523136
O 8.14674610 12.06140769 19.20016651 -0.00250086 -0.00007993 -0.00420791
O 21.75368092 6.99532794 30.11993034 -0.00121340 -0.00190994 -0.00124908
O 7.23433407 11.06763488 30.36934808 0.00069297 0.00381339 0.00114517
O 19.10197607 1.49730843 14.68597134 -0.00382498 -0.00685624 -0.00184493
O 13.29401701 2.38400268 18.92355308 0.00201535 -0.00098026 -0.00515842
O 17.94218141 8.08570834 0.65575828 0.00099059 -0.00172980 0.00385504
O 5.23945813 6.79747554 27.29248917 -0.00269555 0.00553393 -0.00740454
O 8.71466634 5.13113872 21.70078714 0.00022553 0.00652105 0.00006926
O 12.84360293 13.90820783 22.88100374 -0.00952453 -0.00432224 0.00015066
O 15.81308657 13.80046715 14.13861857 0.00189372 0.00760905 -0.00352075
O 8.13564908 11.07386576 1.99504647 0.00097861 0.00173702 -0.00465993
O 19.05744241 5.41951423 21.30077096 -0.00167769 0.00469436 -0.00521335
O 12.12266659 7.88206631 13.44656149 -0.00030943 -0.00201781 -0.00264890
O 14.14320397 12.43767413 10.95437830 0.00396499 -0.00173219 -0.00571060
O 9.92129147 9.80329990 28.18942189 -0.00693750 0.00148966 -0.00048973
O 2.88868336 13.79939877 7.25768380 -0.00209556 0.00177167 0.00334197
O 13.10307181 6.38637597 3.75669481 -0.00203464 -0.00680488 -0.00217089
O 0.16152925 18.03453377 10.79268503 -0.00284005 0.00804576 0.00097533
O 12.53770018 25.38099276 8.80772419 0.00174616 -0.00078130 -0.00459312
O 18.76138047 22.91327236 13.44040321 0.00111905 0.00014319 0.00217655
O 7.09984405 16.87864102 10.71713244 -0.00375450 0.00260658 -0.00297489
O 9.54779779 18.83533271 7.95985519 -0.00476962 -0.00571590 -0.00987393
O 15.64599125 10.50842121 18.42482471 0.00146210 0.00004906 -0.00274720
O 9.39323023 10.95991233 9.74763858 0.00271477 -0.00526710 -0.00199386
O 15.35896234 7.97365061 9.53527260 -0.00308413 0.00083124 0.00527759
O 12.70877636 4.14277570 2.82125676 -0.00822774 -0.00779675 -0.00646335
O 7.72499509 1.34436116 26.47184382 0.00070193 -0.00602033 0.00188313
O 17.05849817 2.00389031 12.95496901 0.00222642 -0.00522424 -0.00493939
O 11.29246442 15.09239758 4.53904710 0.00106229 -0.00078992 0.00211830
O 14.41955303 18.63621193 19.76696132 -0.00392413 0.00164131 -0.00741392
O 15.79315224 16.56997729 20.31692246 -0.00089807 -0.00750965 0.00429854
O 8.87918684 16.96556751 22.81744997 -0.00755114 -0.00442272 0.00649639
O 16.37920580 25.00879863 7.61023858 0.00542127 -0.00453295 -0.00081350
O 8.02346582 0.31168623 28.69146771 0.00430147 -0.00517967 -0.00360227
O 8.95282560 26.07785247 19.22812863 -0.00259361 0.00010643 0.00083333
O 20.21403326 19.25495740 18.96202051 -0.00281780 -0.00438086 0.00129825
O 11.62261475 15.89338145 16.58735871 -0.00264477 -0.00609115 0.00072674
O 15.58633362 24.59359474 18.09543622 0.00106892 -0.00152304 0.00433974
O 11.51620626 13.25586949 2.57878184 -0.00361818 0.00198673 -0.00565238
O 10.04273118 11.66921157 26.62642441 -0.00468854 0.00161785 0.00846757
O 14.01487191 3.18245436 10.55090258 -0.00616287 0.00480670 0.00392837
O 21.71122902 17.72144102 17.50703145 0.00412096 0.00238929 0.01176202
O 8.93975267 24.65999571 13.96628853 -0.00063464 0.00135509 0.00411407
O 15.95610853 18.05149531 23.62591722 0.00900625 -0.00190469 -0.00128766
O 6.66551232 15.41622586 12.67617406 0.00051273 -0.00103644 0.00006245
O 11.94979323 24.47667741 6.18563278 -0.00155563 -0.00278516 0.00207061
O 22.26573268 20.18891113 4.39879793 -0.00092723 -0.00131850 0.00313134
O 24.15497121 4.76004660 17.49591291 -0.00122461 0.00174292 0.00267236
O 10.93882810 20.27010266 3.40815053 -0.00060242 -0.00220059 -0.00822392
O 18.02164235 6.70487685 4.63246123 -0.00232737 0.00929394 0.00279685
O 12.88898338 14.79441610 10.59182919 -0.00788050 -0.00738668 -0.00395772
O 23.69073137 11.23519531 1.91967725 -0.00230244 0.00010179 -0.00144059
O 20.94908692 3.90218360 8.49616923 -0.00846305 0.00301169 0.00375869
O 23.22754473 0.42334802 4.98064595 0.00092265 0.00277078 -0.00123066
O 7.59071671 21.46495006 20.04868541 0.00067088 -0.00630574 0.00036987
O 19.85728539 8.91145414 14.63659256 0.00479778 0.00550498 -0.00203883
O 13.05159801 24.08323349 29.47131741 0.00208726 0.00303544 -0.00366406
O 20.61381903 13.24345033 27.93056127 0.00513054 -0.00130718 -0.00053830
O 11.30996118 6.63941671 21.83419078 -0.00344993 -0.00079416 -0.00585829
O 24.89488041 9.98199979 8.19300315 -0.00248448 0.00141624 -0.00322771
O 24.00809673 24.20707429 8.78785783 -0.00468750 0.00947603 -0.00047463
O 24.17451357 5.27479386 19.95735635 0.00027411 0.00335830 0.00084093
O 2.22489462 23.45423626 22.88454871 -0.00446097 0.00101519 0.00070890
O 15.53910509 20.45429270 24.43173602 -0.00137208 -0.00321184 0.00129736
O 17.97548032 6.88823771 23.35580870 -0.00156333 -0.00306697 -0.00166602
O 19.10231096 12.66241505 21.87090337 0.00102116 0.00847061 0.00418356
O 15.51497465 10.17225578 24.77298697 0.00513454 0.00247973 0.00403318
O 5.46708941 3.77738588 19.89400301 0.00140851 0.00556320 0.00117664
O 21.01037607 23.05970269 0.77949075 0.00271929 0.00213116 0.00601710
O 20.75074890 2.68715665 24.59797663 -0.00385573 0.00283937 0.00538599
O 17.50188558 24.44725717 5.41286289 0.00107625 0.00416865 -0.00348839
O 11.53465579 17.99030043 28.76501362 -0.00133996 0.00078637 0.00604265
O 16.45116262 2.27523675 27.37993652 -0.00161601 0.00038438 0.00571859
O 23.86874739 5.34015234 6.46650184 -0.00152963 0.00158575 0.00107251
O 12.49978353 17.93704653 15.46736778 0.00090549 -0.00596788 0.00335064
O 1.81354845 1.52381407 24.66169918 0.00542204 -0.00277662 -0.00087219
O 25.05926977 21.42820502 26.59832126 -0.00403263 -0.00229875 0.00206817
O 22.66906981 1.35726948 29.36268198 0.00029246 0.00117628 -0.00164264
O 24.53901430 21.60080394 8.88556717 -0.00169916 0.00077498 0.00488597
O 18.29856615 19.14946202 16.92672608 -0.00732888 -0.00103472 -0.00197361
O 13.13336206 4.99208269 29.33453770 0.00053143 -0.00358465 -0.00304417
O 0.67637975 21.96144663 14.61593858 0.00169851 -0.00455046 -0.00094097
O 23.18507852 1.88836030 13.73430089 0.00136214 -0.00287193 -0.00143938
O 22.38798190 16.96666415 30.30846750 0.00193210 0.00589090 0.00927641
O 17.03172184 17.36286962 27.73647405 0.00261038 0.00310836 0.00149310
O 14.10600177 22.54759017 6.36919966 0.00076468 0.00799577 -0.00113556
O 0.98449692 9.06182831 12.69292939 0.00042454 -0.00240406 0.00042041
O 21.15367239 14.93541092 13.30912717 0.00428128 -0.00054614 0.00401376
O 16.61977382 8.05977123 3.00528025 0.00167891 0.00416943 0.00512555
O 24.93503910 16.40435726 4.13460926 0.00299264 -0.00296492 -0.00534184
O 18.10641335 22.01033023 26.85703668 -0.00287879 -0.00263901 0.00209816
O 19.94767777 17.05788263 5.31352089 -0.00345467 0.00307319 0.00244901
O 12.65631485 18.33104430 3.28333531 -0.00205858 0.00113508 0.01067208
O 20.28096705 10.97085601 20.53792237 -0.00436532 0.00111575 0.00374276
O 20.73393906 8.39230826 9.46273824 0.00003191 0.00036913 0.00208305
O 20.38591264 0.08062025 2.24914591 -0.00795483 0.00339496 0.00182165
O 23.13241432 21.63830936 15.14570580 0.00111748 0.00378609 0.00610404
O 2.40464246 17.25559688 9.84022549 -0.00146583 -0.00460267 -0.00121332
O 16.03572202 24.39531961 21.39687234 -0.00112040 -0.00250032 -0.00358330
O 24.53304870 17.40805067 19.56585724 0.00370593 0.00143042 -0.00663339
O 14.10616560 26.65950712 18.91081629 -0.00034514 0.00206240 -0.00057259
O 17.76879780 14.37228558 15.64121272 -0.00340885 0.00446042 -0.00137088
O 19.11245324 18.67928720 10.03144460 0.00224444 -0.01144299 0.00320460
O 15.31036669 25.24230665 29.68571641 -0.00657400 0.00112979 -0.00446716
O 18.13982648 24.47522127 17.69443046 -0.00380342 -0.00138459 -0.00193487
O 2.60041612 0.17594785 11.92324900 0.00592209 0.00067748 -0.00260781
O 19.07598869 26.43879656 9.50021187 0.00485747 -0.00285288 0.00171232
O 3.42802003 22.57001358 18.32214562 0.00300970 -0.00344217 0.00123588
O 12.67977934 0.62332614 24.91058740 -0.00146508 0.00325552 -0.00085564
O 18.89790097 22.04696722 1.99282603 0.00154875 -0.00341758 -0.00143082
N 14.18744932 23.46742799 11.43451437 -0.00260524 -0.01006292 0.00228133
N 4.44461244 3.05837787 5.76780824 -0.00187994 0.00249449 -0.01345918
N 4.98389233 24.90207778 7.23225730 -0.00078176 -0.00553977 -0.00358717
N 1.25556750 9.60145099 17.76082460 0.00484919 0.00152970 0.00529700
N 2.94142783 2.96003964 18.04710039 -0.00076994 0.00420467 -0.00392041
N 3.19259924 10.33433598 26.34052574 -0.00808154 -0.00631353 0.00020868
N 5.26964177 15.92982800 2.98412653 -0.00384913 0.00480482 -0.00550047
N 1.51521399 2.50542353 0.66528088 -0.00142065 0.00124905 -0.00010674
N 1.77665770 14.67315537 26.08890601 -0.00570060 0.00292679 -0.00454876
N 23.66430258 8.30337056 26.08351696 -0.00296396 0.00168493 0.00098272
N 21.10503115 23.20231062 21.55035299 0.00306459 -0.00205603 0.00188724
N 10.70375282 5.22000869 25.59841941 0.00388546 0.00576840 0.00120779
N 6.43942621 2.98996252 30.07240505 -0.00061368 0.00422237 -0.00592905
N 7.86778565 10.39802657 15.32671938 -0.00311444 -0.00240431 -0.00595734
N 6.82322207 15.46629749 18.69548033 -0.00187670 0.00366140 0.00499108
N 6.21983225 7.01604602 15.13869051 0.00241426 -0.00114362 0.00289297
N 8.11873727 25.41039295 9.13906752 0.00393229 0.00394994 0.00735341
N 2.23585657 19.16028902 13.06569443 0.00181059 0.00145446 0.00335379
N 1.57598420 13.14678363 29.61982223 -0.00431608 0.00222485 0.00047488
N 4.48361222 17.80076080 20.83808572 0.00161769 0.00087702 -0.00544997
N 0.68422088 13.72593903 14.59847209 -0.00545376 0.00937795 -0.00001954
N 1.12008040 23.27333248 3.62934253 0.00233595 0.00664472 -0.00448658
N 11.87488134 20.31344673 11.53843376 0.00258127 0.00244014 0.00737080
N 23.33830541 26.14747002 27.20722333 -0.00227497 0.00080882 -0.00339401
N 10.40079797 0.81191052 15.24300970 -0.00139553 0.00047056 0.00321739
N 3.73316153 21.84638447 1.03887722 0.00192008 0.00115637 -0.00304299
N 22.25267111 11.85412913 22.71684715 0.00934743 -0.00007497 -0.00828275
N 4.14209766 21.77427069 28.49435312 0.00037425 0.00376750 -0.00268147
N 19.43980378 12.52365814 3.75289281 0.00662753 -0.00149492 0.00128547
N 6.18815943 22.75573212 23.85252564 0.00555569 -0.00498787 0.00246159
N 10.28987951 21.17961871 23.16648378 0.00045285 -0.00536422 0.00088139
N 22.41067485 17.32147109 23.91077826 0.00359639 0.00107528 -0.00430574
N 11.62951705 11.00805647 2.65898846 -0.00669369 -0.00216838 0.00079618
N 10.44388680 5.56190677 7.93205180 0.00225260 -0.00349863 -0.00354620
N 14.77634283 5.81712666 9.00768984 -0.00446906 -0.00025000 0.00159387
N 13.63480857 14.49582763 14.07548934 -0.00291621 -0.00169893 0.00099627
N 8.75732328 23.11128984 12.33721323 -0.00084997 0.00109260 -0.00172577
N 18.39036891 12.58501493 8.46411452 0.00680939 -0.00373487 -0.00786083
N 9.71397632 15.43116813 6.05755004 0.00454392 0.00183120 -0.01172369
N 15.50952928 10.68938155 10.53020123 0.00065789 0.00158560 -0.00214691
N 13.88683404 11.87903163 17.94540710 0.00351234 -0.00437096 -0.00263081
N 8.75526511 7.32722014 22.37581783 0.00050900 -0.00906673 0.00227823
N 13.05876558 2.23907456 8.64529929 -0.00314020 -0.00471316 0.00561071
N 0.18274325 8.16099445 3.56528159 0.00090665 0.00226744 0.00434945
N 7.64785286 1.30929628 24.15734465 0.00418322 0.00254190 0.00290812
N 19.68159610 4.33461665 19.48723200 -0.00404948 0.00172163 -0.00079321
N 6.76745021 14.35436887 14.61642534 0.00013280 -0.00048379 -0.00131840
N 19.04597087 3.05092755 28.96097103 0.00329806 -0.00303394 0.00082084
N 6.49995833 7.48301078 29.10560106 -0.00148089 -0.00496199 0.00570067
N 7.61444571 12.23428461 9.52914139 0.00240159 -0.01212770 -0.00699306
N 16.53022007 13.00674298 0.59452987 0.00168841 -0.00295564 0.00986747
N 22.04518544 17.91785468 15.33835672 0.00239935 0.00073700 0.00151509
N 7.89459255 9.82422177 3.83681721 0.00200720 -0.00028425 0.00145880
N 15.66517872 0.51925110 14.04209188 -0.00531834 -0.00452752 0.00132226
N 17.21577760 4.44423085 6.37705052 0.00444502 0.00104095 0.00102454
N 9.71786190 23.96926208 5.95314569 -0.00009845 -0.01014637 -0.00201080
N 23.35224610 26.33783465 18.02034391 0.00546982 0.00069064 0.00084792
N 11.60956201 13.03342924 25.69735712 0.00054966 -0.00190840 -0.00042260
N 12.86497998 11.66487081 22.35927449 0.00101178 0.00048327 0.00096859
N 11.31180569 2.78673651 1.83522149 -0.00740813 -0.00179028 -0.00343613
N 8.04369013 15.62878957 27.45894069 0.00117892 0.00270390 -0.00927462
N 17.44345735 16.41879412 22.92391809 0.00098558 -0.00155618 0.00189407
N 12.63298067 6.48344089 15.10622465 0.00599412 0.00348190 -0.00391798
N 13.72239161 20.29355149 21.16753890 0.00408012 0.01084285 -0.00152987
N 20.70911402 17.57471427 8.82741402 -0.00910864 0.00105470 0.00109127
N 20.23764247 6.72569277 14.07663739 0.00052852 -0.00145011 0.00607289
N 14.83481090 9.08707476 1.94235736 0.00045998 -0.00234030 0.00413283
N 22.87437977 7.32595042 7.24307989 -0.00327337 -0.00200244 -0.00082666
N 21.03114196 25.40913995 10.13953642 -0.00664548 0.00310030 0.00054084
N 1.44310793 10.50114527 6.72289979 -0.00552722 -0.00317463 -0.00323705
N 14.16761766 17.99812590 1.77498031 0.00015242 0.00419696 0.00636761
N 22.25689035 3.00068435 0.20313503 0.00060215 -0.00378931 -0.00680151
N 0.19692581 6.96353170 12.29195732 0.00089420 0.00715756 0.00063412
N 11.71322161 20.26054518 28.59240300 -0.00839231 0.00413645 0.00575253
N 19.29060744 25.53908352 15.91862224 0.00286417 0.00245439 -0.00501319
N 18.48795120 12.68277163 27.36817339 -0.00108088 -0.00185521 -0.00833735
N 19.28124046 23.66258806 25.79812445 0.00555046 -0.00054982 -0.00157161
N 1.10387664 3.32368735 23.31895593 -0.00304616 -0.00626644 0.00412832
N 14.48802249 1.78447780 24.10578565 0.00686040 -0.00199689 -0.00564601
N 22.88425705 6.60059346 21.30324102 0.00161207 0.00576087 0.00412961
N 19.62873727 25.02115031 4.61570197 -0.00309207 -0.00373404 0.00315282
N 20.52888732 16.96603188 12.36955786 0.00249376 0.00924857 0.00137587
N 11.22907658 24.70892613 30.58935308 0.00135183 0.00824689 0.00524225
N 2.35613193 0.26156411 14.21816617 0.00970319 -0.00295379 -0.00028791
N 14.41688144 18.52490269 14.35817221 0.00230788 -0.00258387 0.00596800
N 18.64932057 17.73815006 3.59215500 0.00019307 0.00461936 -0.00060720
N 24.32430258 26.37044452 8.06003437 -0.00799565 -0.00966459 -0.00572710
N 16.89138110 22.93042370 1.42724332 0.00251476 -0.00039630 -0.00805503
N 6.96656142 23.71108068 19.93494330 -0.00764193 -0.00222675 -0.00558473
N 17.39712488 25.07459346 28.67290603 -0.00162971 0.00254777 0.00284621
N 16.08855651 4.43304547 27.93920229 -0.00586462 -0.00378529 -0.00369153
N 24.63040582 14.85362387 5.69281765 0.00092554 -0.00043167 -0.00722339
N 13.26264322 7.11512885 20.68354144 0.00145336 0.00109676 0.00004181
N 2.01190165 21.46583917 16.95781078 0.00258362 -0.00090995 -0.00173616
N 23.38640362 20.04331682 27.38387345 0.00490535 -0.00201435 -0.00089499
N 19.02068111 9.99797023 18.94239204 -0.00548860 -0.00348772 0.00413768
C 6.84709808 25.64756558 11.23868859 -0.00770745 -0.00251514 -0.00494261
C 5.81785893 2.49409753 7.64743642 0.00274776 0.00033829 -0.00402359
C 3.52481449 14.81984053 29.57166829 0.00135398 -0.00682693 0.00799236
C 24.16949704 10.78747649 17.93437610 0.00387092 0.00145275 0.00074356
C 23.95824642 12.76219230 13.27049777 0.00369695 0.00289501 -0.00311175
C 4.19072971 11.18500962 28.40740964 0.00401075 0.00203283 -0.00169413
C 10.95031312 21.19688281 13.55647014 0.00071492 -0.00214093 -0.00099326
C 1.50094095 1.75977303 2.91259889 0.00259629 0.00097727 0.00270150
C 5.91845130 25.16759972 12.20052933 0.00871392 0.00350562 0.00139289
C 5.78868317 2.03572216 8.96280270 0.00155867 -0.00157903 0.00386005
C 3.97137611 16.09704893 29.91203335 -0.00704723 0.00229105 0.00448545
C 22.92392640 11.11806845 17.49450030 -0.00108002 -0.00580902 -0.00360960
C 23.43153282 12.34502436 12.06550975 -0.00143460 0.00355413 -0.00265589
C 4.09028487 11.20846759 29.83034445 0.00252512 0.00060486 0.00226381
C 10.00619328 21.08205013 14.54334016 0.00267685 0.00307616 -0.00617780
C 1.20414289 1.85121367 4.22079847 -0.00204368 0.00398551 0.00300103
C 5.38989437 23.88867600 12.05792185 -0.00554861 -0.00527640 -0.00006045
C 4.70886323 1.40301436 9.55962867 -0.00659874 0.00315974 -0.00307940
C 3.24635942 16.98716902 0.00635953 -0.00641582 -0.00703163 -0.00059358
C 22.44676258 10.44542226 16.29129954 -0.00179469 -0.00547320 0.00301744
C 24.26588717 12.19357410 10.91186270 -0.00419348 -0.00204716 -0.00286302
C 3.10660390 10.52707230 30.50232035 -0.00622204 0.00463062 -0.00249077
C 8.88465983 20.18534391 14.39679320 -0.00315321 -0.00563500 0.00026648
C 0.48936480 2.99310969 4.66116831 0.00199293 0.00371605 -0.00010116
C 5.86360705 23.17805872 10.98062762 -0.00066493 -0.00676080 -0.00693586
C 3.51995264 1.37858970 8.84570963 0.00083990 -0.00777449 -0.00827116
C 2.00506129 16.52116072 0.47456966 -0.00632225 -0.00294970 -0.00726789
C 23.29367733 9.52966891 15.56299254 0.00657836 0.00448584 -0.00422028
C 0.56208583 12.46274033 11.11233223 -0.00397592 0.00167134 -0.00166608
C 2.19150522 9.71537754 29.80581428 0.00353755 0.00514571 -0.00130462
C 8.65527874 19.40871335 13.23104556 -0.00105529 -0.00019683 -0.00432295
C 0.23085266 4.00438643 3.78330716 0.00515812 -0.00006420 0.00361265
C 6.72558069 23.64647662 9.96324820 -0.00108837 -0.00085081 0.00166329
C 3.49232501 1.88651262 7.59779897 -0.00612102 0.00389727 0.00630931
C 1.52705466 15.24929662 0.12902445 -0.00351332 -0.00177376 0.00186799
C 24.52401232 9.22627578 16.11215633 0.00445210 -0.00180977 -0.00743672
C 0.96920963 13.05521534 12.27213841 -0.00048593 0.00204644 0.00476519
C 2.30669895 9.68682150 28.40577632 -0.00080213 0.00316610 -0.00127516
C 9.57986145 19.65745051 12.22565077 0.00136939 0.00543065 0.00596674
C 0.63702075 3.96806759 2.43698934 -0.00907266 -0.00167417 -0.00118130
C 7.23353407 24.91105642 10.08333880 -0.00303449 -0.00574681 0.00399223
C 4.63088311 2.42097889 6.95891815 0.00006564 -0.00400112 -0.00074625
C 2.22694751 14.31975141 30.01758190 -0.00561036 0.00361080 -0.00003103
C 25.04501776 9.91185518 17.28076269 -0.00485683 0.00149002 0.00266735
C 0.17805171 13.15368679 13.42990760 -0.00385310 -0.00317434 0.00002231
C 3.21500008 10.45368770 27.71889159 0.00106941 0.00478059 0.00396087
C 10.75130714 20.39049389 12.37669702 0.00330848 -0.00668791 -0.00466546
C 1.28637766 2.82227619 1.98994736 -0.00230362 0.00423027 -0.00608503
C 8.62748777 26.70071442 9.10340783 0.00619831 -0.00398220 0.01200133
C 5.01984895 4.12204497 5.15965400 -0.00795818 -0.00157814 0.00854744
C 0.38111468 12.65669258 30.12291351 0.00754179 0.00753626 -0.00407718
C 1.85753188 10.03370138 18.85848575 -0.00023207 -0.00285587 0.00528789
C 25.07688522 13.85705769 15.77569158 -0.00719616 0.00573421 0.00452117
C 4.19096224 10.68182601 25.44898690 -0.00475789 -0.00779379 -0.00054340
C 11.97958897 19.45301665 10.45245460 -0.00148943 0.00013708 -0.00659503
C 1.30213698 3.34963539 30.26885699 0.00314687 -0.00174173 0.00306834
C 4.00441155 14.79133089 25.86550329 0.00281170 -0.00199815 -0.00103441
C 5.79389471 5.12988256 6.01459031 0.00063616 0.00428488 -0.00757415
C 3.37583384 24.20274273 8.78832135 -0.00107310 0.00143791 -0.00178677
C 10.19912322 6.00304811 27.78651404 0.00696611 0.00804001 -0.00451555
C 5.62026129 2.89276152 1.66174388 0.00489034 -0.00031554 -0.00429001
C 3.92115739 10.44792709 23.91221763 0.00280927 0.00581045 -0.00330712
C 3.38801725 14.53598925 3.09118266 0.00667646 0.00087031 0.00083058
C 5.42729326 5.05498146 13.73494578 -0.00072239 -0.00282661 -0.00774506
C 8.11636619 0.58641385 14.37599153 0.00273956 -0.00837657 0.00313125
C 0.38370086 7.75383159 24.62679761 0.00036738 0.00313655 -0.00765449
C 24.57836451 12.64696679 22.32020554 0.00852459 0.00104770 -0.00105735
C 12.90891775 5.17530580 24.42569148 0.00177954 0.00621871 0.00372831
C 20.27603163 10.88021817 2.15044843 0.00159642 -0.00117326 0.00829210
C 6.38863228 10.30045977 13.37925643 -0.00342576 -0.00308999 0.00402968
C 11.82764011 23.03209272 23.42418217 0.00114608 0.00702724 -0.00806200
C 6.82472980 6.69246251 17.51512941 0.00504371 0.00638786 0.00702471
C 7.10607777 1.04130452 13.59165060 0.00438085 -0.00110263 0.00046918
C 1.64460370 7.35842157 24.39616408 0.00629801 -0.00179197 0.00360698
C 0.32242249 13.51302239 21.61273739 0.00423408 0.00877464 -0.01008358
C 13.62267104 4.81774479 23.30797284 0.00426608 -0.00081250 0.00246429
C 20.87964962 10.54052198 0.99427185 0.00544120 -0.00753428 0.00866368
C 5.16443648 10.36421887 12.83013987 0.00619602 -0.00244120 -0.00742747
C 12.37344910 24.10169104 24.15049607 -0.00069075 0.00280724 -0.00327121
C 7.35020130 5.82074984 18.51478089 0.00395738 0.00378278 -0.00852662
C 7.32242536 2.16555416 12.74174261 0.00129473 0.00039507 -0.00213788
C 2.39546194 6.76713300 25.43023542 -0.00562608 -0.00140209 0.00367964
C 24.91048194 14.34239329 20.59268992 0.00360563 0.00009800 -0.00029394
C 12.97752318 4.06466539 22.31421210 0.00620716 0.00450257 0.00864915
C 21.27969770 11.55078331 0.11328087 0.00097880 -0.00327564 0.00488820
C 4.00164521 10.65622009 13.62508206 -0.00010712 -0.00110439 0.00917230
C 11.82613771 24.40214446 25.39732778 -0.00051258 0.00096809 -0.00178709
C 8.02876268 4.63601367 18.27726608 -0.00913334 0.00464207 0.00209923
C 8.65646061 2.63788763 12.64404357 0.00360058 -0.00072337 -0.00428895
C 1.66804489 6.40871887 26.56152495 -0.00049957 -0.00697825 0.00380738
C 23.49862257 14.46577962 20.49911450 0.00479792 0.00039107 -0.00124939
C 11.67699332 3.61075756 22.55832995 -0.00418671 0.00219229 -0.00444132
C 21.23431034 12.87276147 0.52766612 0.00248556 0.00465530 -0.00598339
C 4.22845454 10.85778115 15.07014437 -0.00339671 0.00744787 0.00534814
C 10.65826642 23.73933588 25.82526708 -0.00002838 0.01026355 -0.00176578
C 7.89949150 4.16041358 16.92185136 -0.00336055 0.00139281 0.00657935
C 9.69808188 2.05778737 13.26136459 0.00038593 0.00138726 0.00162206
C 0.37206954 6.85419977 26.81115549 0.00615588 -0.00316013 0.00395188
C 22.68613388 13.66274426 21.25024317 -0.00314063 -0.00008899 -0.00583937
C 10.87631270 4.11927909 23.52529608 -0.00598591 0.00361656 -0.00202661
C 20.66813779 13.17587292 1.75491288 -0.00426698 0.00811868 -0.00100887
C 5.46132262 10.74533986 15.64820813 -0.00112671 0.00095222 -0.00107358
C 10.14862368 22.54651801 25.11953932 -0.00104769 -0.00090595 0.00512647
C 7.30873757 4.93191646 15.92315770 0.00210687 0.00757335 -0.00415264
C 9.42293119 1.18026236 14.33850182 -0.00244448 -0.00122824 0.00396670
C 24.84408009 7.61502871 25.86169687 -0.00416788 -0.00221337 -0.00038369
C 23.20745360 12.71564772 22.12566947 0.00386558 0.00553013 0.00234213
C 11.57640340 4.81508511 24.58245401 0.00117557 0.00270734 -0.00327550
C 20.16973311 12.21227924 2.59324869 0.00306037 -0.00264666 0.00195689
C 6.59447641 10.55332497 14.81283318 -0.00408549 -0.00002712 -0.00374279
C 10.80453363 22.22115541 23.95600471 -0.00384261 0.00492480 0.00713277
C 6.77466443 6.24194616 16.19015520 -0.00018510 -0.00317304 0.00421099
C 10.10341975 0.05721863 16.43550697 0.00211892 0.00074469 -0.00035775
C 22.86685872 8.03688322 27.14885029 -0.00092300 -0.00946986 0.00400273
C 22.53216284 10.92500000 23.67769594 0.00208994 -0.00617074 0.00194367
C 11.20757500 5.67164938 26.75828847 0.00000644 -0.00665493 0.00069038
C 19.23321893 13.76220324 4.24214171 -0.00560423 -0.00223718 -0.00463187
C 8.28630230 10.27606779 16.61447257 0.01083384 -0.00232522 0.00320595
C 10.28415486 21.17545253 21.82531275 -0.01001687 0.00064689 -0.00092376
C 5.88921378 6.48205791 13.93142771 0.00097410 0.00408991 0.00151373
C 13.00515482 24.11505995 13.54439499 0.00499936 0.00293299 -0.00269500
C 21.74227860 8.96697816 27.33420515 0.00323153 0.00588988 -0.00390174
C 19.86560181 24.59898633 20.24604423 0.00689923 -0.00088457 -0.00105388
C 3.03915827 9.18710459 19.22078408 -0.00032169 0.00277050 -0.00661135
C 2.58812864 5.10984196 16.98213941 -0.00176722 -0.00320155 -0.00291647
C 9.72359938 10.12233517 16.87857086 -0.00480338 -0.00428560 -0.00028140