1920
Time=20999.99999999 pbc="T T T" Lattice="24.81282373 0.00000000 0.00000000 0.00000000 26.31834067 0.00000000 0.00000000 0.00000000 31.32036799" energy=-12236.49317253 virial="-82.93598474 3.62729965 -2.99586621 3.62729965 -44.70766043 43.01799673 -2.99586621 43.01799673 -19.56629485" stress="-0.00166648 0.00010201 -0.00012352 0.00010201 0.00034984 0.00205874 -0.00012352 0.00205874 0.00140803" Properties=species:S:1:pos:R:3:vel:R:3
O 3.50596955 22.78126791 12.47763622 -0.00551297 0.00577431 -0.00285607
O 3.69943836 0.95356253 11.04514283 0.00358757 0.00625371 0.00491687
O 3.86254548 17.84315125 0.28959491 0.00028772 -0.00662478 0.00533639
O 20.47255798 9.70873978 15.38538042 -0.00764593 -0.00440550 0.00625351
O 23.38033774 11.64731849 10.46031594 -0.00028983 0.00032930 -0.00033435
O 3.75377120 10.38508553 1.43501770 0.00071895 -0.00391124 -0.00072949
O 7.79676085 20.23766387 15.25521075 -0.00116321 -0.00012729 0.00058539
O 0.70309251 3.33639315 7.61842632 -0.00028841 0.00169602 -0.00071588
O 9.29512932 0.72929427 17.60803463 -0.00273371 0.00187027 0.00282395
O 5.30442476 6.08913378 5.50146466 -0.00275768 0.00235039 -0.00063951
O 24.74006753 12.72608302 0.64511264 -0.00073030 -0.00106265 -0.00230207
O 12.27162018 5.31411844 27.85865940 0.00021919 0.00152573 -0.00450442
O 20.06022257 14.72076602 3.65590206 0.00273907 -0.00095672 0.00036692
O 5.33183874 10.79601146 26.63841292 0.00450397 0.00248656 -0.00601715
O 10.65104284 17.95308500 9.91844303 0.00322386 -0.00246222 -0.00020040
O 5.73479209 6.31871206 13.07296245 0.00767248 -0.00491865 0.00310329
O 8.54191360 2.87622480 11.73101967 -0.00125040 0.00150015 -0.00490681
O 3.85299016 6.22011251 26.18038540 0.00063632 -0.00194094 0.00005579
O 1.14117567 15.33587977 21.07511243 0.00485583 -0.00278709 -0.00656025
O 13.40604523 4.48926265 21.36731335 -0.00221027 0.00184349 0.00405811
O 20.62792621 11.48737234 29.53184396 -0.00015764 -0.00306909 -0.00052161
O 2.95418760 10.72711412 12.92115573 0.00988491 0.00110672 -0.00445519
O 12.02590616 25.12428030 27.69978102 -0.00054433 -0.00681537 -0.00255929
O 8.14218666 4.15874972 19.97694475 -0.00396147 0.00551131 0.00799449
O 8.02821316 0.61461213 10.40202200 0.00447884 -0.00148828 -0.00310891
O 23.66900790 8.15345729 28.81688903 -0.00201205 0.00320431 -0.00407969
O 23.64154643 10.50623509 24.19211454 -0.00129008 0.00122640 0.00214833
O 1.24793323 10.61956381 18.67639513 -0.00378166 0.00517696 -0.00461590
O 24.15912020 12.73018350 16.66131663 0.01255303 -0.00097853 -0.00624563
O 7.73781018 10.25697030 17.03657445 0.00579627 0.00238943 0.00322019
O 9.76508986 22.16356208 22.79169261 -0.00277815 0.00332568 -0.00090734
O 1.55695079 3.75461978 1.41213620 0.00539839 -0.00303578 -0.00551738
O 16.48570276 19.67716031 8.90050989 0.00240702 -0.00019903 -0.00028490
O 4.36156237 20.05508304 8.10153294 0.00663733 -0.00064821 0.00000694
O 7.05508516 24.45759329 2.71876728 0.00507495 -0.00363717 0.00741578
O 5.79495295 18.60856313 15.13054764 -0.00037913 -0.00101550 0.00320187
O 5.14325855 23.46556887 17.38257523 0.00198290 -0.00086027 0.00159867
O 3.88779113 25.46909772 30.19146897 -0.00383882 0.00119910 -0.00513359
O 8.04374349 19.83582570 5.18645607 0.01433914 0.00209394 0.00043615
O 3.54430057 25.87530126 25.37450701 -0.00101688 0.00043864 -0.00820254
O 3.06201429 16.02368541 26.89569577 0.00292627 0.00077014 0.00628686
O 3.80773398 17.61254451 13.82257946 -0.00080001 0.00160800 -0.00049854
O 3.88024580 22.57313737 7.68369885 -0.00085021 -0.00124607 -0.00270374
O 4.26793226 19.04085574 29.29273083 0.00010810 -0.00269962 0.00741795
O 5.38042921 1.08358889 31.29328043 0.00748406 0.00943359 0.00156001
O 1.27130513 24.56483075 4.68463667 0.00649915 0.00264402 0.00421589
O 3.46832122 15.57589835 4.64543695 -0.00253633 -0.00134861 -0.00397164
O 21.07132190 19.46546743 22.55639364 -0.00695697 0.00425783 0.00401844
O 22.14020939 15.33250369 29.33507419 0.00942846 0.00655031 -0.00574581
O 24.58835687 18.21100946 2.66268388 -0.00560388 0.00796940 0.00040515
O 0.17255178 20.32774332 22.18853048 0.00206727 -0.00435858 0.00730627
O 8.06625007 24.03100486 29.63633928 -0.00469178 0.00088783 -0.00417529
O 5.01428064 3.77298172 25.47219997 0.00018527 0.00318037 0.00384590
O 4.26616544 17.34989598 25.11184396 0.00344084 0.00204894 -0.00241542
O 3.07330840 11.38727367 20.34649398 0.00969532 -0.00181933 -0.00178683
O 18.49048433 19.23782800 27.98873484 0.00255959 0.00223794 0.00159044
O 13.85574428 21.21684346 14.46663195 -0.00086712 -0.00450116 -0.00604177
O 5.98505299 22.47523287 1.36289631 -0.00281823 -0.00041670 0.00399013
O 19.81314690 23.53493088 19.65408141 0.00041375 -0.00099375 0.00312210
O 3.43654528 15.48692642 20.05539833 0.00313624 0.00235777 0.00489113
O 4.25365138 3.38206397 17.21698853 -0.00450286 0.00192205 0.00028080
O 4.44643442 23.73837613 24.27479003 -0.00153221 -0.00185721 -0.00722126
O 7.54944248 15.77019151 21.68662596 0.00024666 0.00310660 -0.00062324
O 20.95652155 25.44279346 27.30143637 0.00084489 0.01384754 0.00215207
O 4.10248356 5.45205124 3.17701963 0.00404658 0.00699237 -0.00197685
O 8.24166769 7.13786309 12.50878187 -0.00179851 -0.00204749 0.00040162
O 15.48360873 9.45501794 27.31268632 0.00127006 -0.00199039 0.00590953
O 10.53994516 9.20164390 12.98408028 -0.00088060 -0.00061482 -0.00610214
O 11.46357684 11.61994797 7.63880796 0.00140335 -0.00941007 0.00252941
O 13.64183223 9.85903858 6.94327975 -0.00460521 0.00606333 0.00748256
O 17.79557582 4.12328702 11.73980794 0.00332752 0.00127193 0.00217172
O 20.10510721 11.69824254 13.54098409 0.00329510 0.00124560 0.00054319
O 22.41030068 1.55896600 15.86265371 0.00218327 -0.00242071 -0.00328666
O 7.81024169 4.21018646 7.01109189 -0.00426405 0.00411787 -0.00014217
O 14.50375279 13.90559091 0.56788382 -0.00415965 0.00280007 0.00024483
O 2.71093007 8.43368142 2.79784065 0.00068919 -0.00210742 0.00214797
O 8.62161995 16.69444808 30.90870087 0.00386461 0.00685952 -0.00023823
O 19.61403335 9.00212935 8.74143366 -0.00017751 -0.00873889 0.00211186
O 16.11351942 2.19209610 6.03442788 -0.00033860 -0.00546585 -0.00119928
O 19.39643812 3.72689921 27.76198772 -0.00029808 -0.00645330 -0.00246950
O 0.06375742 0.13511395 23.01808187 0.00626503 -0.00031574 -0.00596155
O 7.37608334 11.64396560 25.14046826 0.00115235 -0.00711994 -0.00524742
O 8.03416871 9.97595071 19.47131655 0.00445281 0.00115023 0.00443870
O 22.51300647 6.75976336 30.82764881 0.00041119 -0.00094195 0.00315685
O 8.65340089 10.31951236 30.23019826 -0.00358971 0.00757919 -0.00319179
O 18.54328156 0.72185564 14.93868220 0.00334314 0.00468177 0.00391663
O 12.95679865 2.45177356 19.65015440 -0.00303885 0.00198591 -0.00056016
O 18.24797037 7.89639356 0.66020993 -0.00099450 -0.00588444 0.00445692
O 4.86054324 6.00446947 28.37726761 0.00312186 -0.00273043 -0.00332484
O 8.94190740 4.83465711 22.17788464 0.00261623 0.00138418 -0.00045375
O 11.42590831 14.30854792 22.81648664 0.00759415 0.00502324 0.00519633
O 15.09707359 12.98698613 14.93317506 0.00238618 -0.00040887 -0.00138047
O 7.58598946 10.13886004 1.18850899 0.00115571 0.00145804 -0.00156632
O 19.02318720 4.86602723 21.39461047 0.00238159 -0.00406168 0.00019072
O 11.49612240 6.89939603 13.35975967 -0.00484411 0.00235724 -0.00188862
O 14.11481447 11.50780096 11.76560341 -0.00917016 -0.00202141 -0.00157024
O 11.03799095 9.22313760 29.95105477 0.00597774 -0.00438235 -0.00021171
O 3.91089250 14.88718886 6.95085250 -0.00512312 -0.00965785 -0.00660847
O 12.73943853 6.19946076 3.77235633 0.00158199 0.00461768 0.00267767
O 23.58602111 18.00199448 10.68521823 -0.00462698 0.00038027 0.00050531
O 11.93751604 25.03946322 8.73861624 0.00195089 -0.00095992 -0.00063897
O 17.27300272 22.12666507 13.61757330 -0.00320971 0.00052037 0.00154401
O 8.99808809 15.04727057 12.18419364 -0.00375610 -0.00015854 -0.00035441
O 8.59377138 19.03326732 8.97578965 -0.00238869 -0.00003081 -0.00406775
O 15.04319955 9.55251048 19.07479173 0.00249524 -0.00023204 0.00202583
O 8.83588280 9.69232939 9.29473966 -0.00284549 -0.00331080 -0.00074712
O 15.38101482 7.46821034 9.55460129 0.00648395 0.00043067 -0.00519444
O 11.26690713 4.49816739 2.64239200 0.00167185 -0.00638370 -0.00243145
O 7.75123983 1.43358609 26.68375741 -0.00001838 -0.00642182 0.00243047
O 16.86698667 2.02570045 13.26639736 -0.00176753 0.00302838 0.00405401
O 9.88572985 16.49444236 4.66106505 0.00433302 0.00484177 0.00062254
O 14.26834619 17.77348996 21.41778823 0.00676847 0.00254942 -0.00356724
O 15.05877378 15.31190381 21.64930496 -0.00164674 -0.00320418 0.00350844
O 8.10885060 14.12469056 23.59186794 -0.00485135 0.01007963 -0.00381369
O 16.88223744 23.65382141 7.55801411 -0.00054561 -0.00212057 -0.00400967
O 7.62766019 0.06386500 28.82885534 0.00162946 -0.00922478 -0.00201525
O 8.86777777 25.38107939 19.52135448 0.00332100 -0.00090767 0.00146892
O 18.64208481 17.20231191 18.89613266 -0.00151766 0.00349066 0.00485054
O 11.70772228 15.74335631 17.09915225 0.00328080 0.00074253 0.00355967
O 15.10197238 23.89764165 19.63416718 0.00039925 0.00240646 0.00144494
O 12.16891099 13.31545979 3.27185469 0.00212679 0.00850245 -0.00248953
O 11.15831978 13.28588403 28.98671983 0.00374095 0.00034732 -0.00183927
O 13.73237632 2.42271693 9.83501043 -0.00531221 -0.00712373 0.00239675
O 20.84564875 16.71300724 17.89137239 -0.00097182 -0.00033062 -0.00096581
O 9.60647455 24.75281665 14.59924730 -0.00447560 0.00162812 -0.00321247
O 15.73477620 17.84477369 24.57703650 -0.00356109 0.00257269 -0.00026617
O 6.75306169 15.68052635 13.47883775 0.00091707 0.00161513 -0.00083157
O 11.58388525 23.77776671 6.48966113 -0.00901706 -0.00147555 0.00481767
O 22.91186958 19.77364071 3.95656058 0.00175034 0.00131632 -0.01059191
O 0.08367760 5.23534785 18.94934405 -0.00648231 -0.00398311 -0.00316072
O 10.33683126 19.83870242 3.99397839 -0.00142653 -0.00504181 -0.00286550
O 18.19104562 6.13722063 3.98456893 -0.00247512 -0.00431023 0.00180166
O 12.64062069 13.72520900 11.51634882 0.00189676 0.00026348 -0.00730246
O 23.74197283 11.07646442 2.30868601 0.00894228 -0.00140722 0.00055405
O 20.72923505 3.86718655 7.73243533 -0.00366083 -0.00226740 -0.00567167
O 24.11452885 26.26305539 5.19057825 -0.00640048 0.00046344 0.00457105
O 6.93697186 20.84078660 19.80417420 0.00169269 -0.00375752 0.00241550
O 19.58016860 7.22700886 15.90033093 0.00486100 -0.00204682 -0.00212352
O 13.69324600 24.16393471 0.13587303 0.00002123 0.00169107 0.00139892
O 20.17189793 14.12991280 28.21915063 0.00529372 -0.00352281 -0.00229396
O 11.45266012 7.76829300 21.79929947 0.00039036 0.00143634 -0.00021068
O 0.35906410 11.61475562 8.58678796 -0.00149958 0.00034603 0.00722891
O 23.72020595 23.49224931 9.55519197 0.00052360 -0.00598596 0.00408569
O 24.33760898 5.18355873 21.42388150 -0.00240222 -0.00217008 -0.00265848
O 1.47312351 22.98752667 22.13354321 -0.00310292 -0.00910452 0.00784014
O 15.59165825 20.35018018 25.45554362 0.00070999 -0.00105987 0.00312951
O 17.84647399 6.23849885 23.36566840 0.00054468 -0.00619553 0.01207010
O 19.61357775 12.42451817 21.94599592 0.00133213 -0.00155229 -0.00335601
O 16.58581835 9.82199158 24.94557655 0.00299521 0.00489490 0.00108435
O 6.07413639 2.59051643 20.77961015 -0.00273733 -0.00221723 -0.00686422
O 23.46480345 22.16113759 30.53178618 0.00456550 -0.00172528 -0.00081281
O 20.17461535 2.81959004 25.35996250 -0.00354256 -0.00027167 0.00452618
O 18.08350424 23.43402124 5.41579992 -0.00098942 0.00154979 0.00604224
O 11.03903391 18.23961986 29.39691680 -0.00051080 -0.00034551 0.00392368
O 16.83869706 2.04004400 27.89269173 0.00215111 0.00362226 0.00120316
O 23.96532456 5.50973616 6.73795624 0.00223887 -0.00175678 -0.00113984
O 12.36311015 17.99445193 16.20764486 0.00015131 -0.00038263 -0.00295680
O 1.14906410 1.77743102 24.70047749 0.00251726 0.00180394 0.00429149
O 0.38103857 19.62420233 24.89715961 0.00109787 -0.00070597 -0.00054726
O 23.42686776 1.06845233 30.19438221 -0.00393165 0.00614521 0.00035017
O 24.07841859 21.15244804 8.60775775 -0.00162630 -0.00618146 -0.00282835
O 17.60936379 18.68074455 16.92657143 -0.00031703 0.00745770 0.00350920
O 12.59681146 4.71109334 30.33553188 -0.00400833 -0.00285148 0.00504192
O 23.53670806 21.51088375 14.05660531 0.00076212 0.00507448 -0.00562910
O 21.80299606 2.76141037 13.70034643 -0.00068630 -0.00376121 -0.00592803
O 22.13059803 17.50057579 31.01790247 -0.00319767 -0.00029794 -0.00537161
O 17.03447603 17.31306414 29.02652535 -0.00253494 -0.00166430 -0.00696707
O 13.77084645 22.12719354 6.45033982 0.00291310 -0.00246005 0.00008839
O 1.37141114 8.50250083 12.33398824 0.00086391 0.00922935 -0.00118845
O 20.51723446 14.31640453 13.50969982 0.00618820 0.00357488 -0.00155221
O 16.76506195 8.08212135 2.90186828 0.00133575 0.00572957 -0.00096487
O 0.25385627 15.83642175 3.25088194 0.00192248 -0.00742160 0.00192475
O 18.41243683 21.80555846 27.58434614 0.00942842 0.00059076 -0.00080131
O 18.78949016 16.69150871 4.81932510 0.00324736 -0.00439886 0.00257328
O 12.52881066 18.55921356 3.84064237 -0.00564411 -0.00299480 -0.00480998
O 18.85093193 10.05937070 21.21555115 -0.00054519 -0.00615150 0.00074564
O 20.27197564 7.20416167 10.37971280 -0.00196085 0.00797701 0.00346523
O 20.59580444 0.56245884 1.86033214 -0.00622206 -0.00530013 -0.00826145
O 22.12411182 20.75294884 15.85184531 0.00766815 -0.00368594 0.00051071
O 0.46174217 15.89531247 9.67267156 -0.00498833 -0.00581501 0.00634845
O 14.88561452 24.88688476 23.36663534 0.00660500 0.00650135 -0.00311918
O 24.50595610 16.95472542 19.81194593 0.00019757 0.00019342 0.00085265
O 13.31162551 25.72089110 20.02546802 -0.00376842 -0.00097032 0.00148137
O 17.34338726 13.25698212 16.01684113 -0.00035036 0.00067704 0.00690320
O 18.35025164 18.49350208 10.09654485 0.00388557 -0.00227031 0.00502091
O 15.28704632 25.54482118 29.95133644 -0.00483945 0.00627758 -0.00282698
O 16.83787181 23.39854701 17.97626489 0.00298171 -0.00493353 0.00766195
O 1.73633664 0.68154200 12.79314186 0.00698358 0.00614456 -0.00734078
O 18.85758048 25.34869392 9.48855292 0.00377492 -0.00104449 0.00007050
O 3.24816223 21.71773828 17.72640595 -0.00447971 -0.00070671 0.00599909
O 12.76143537 0.62054270 26.17566354 -0.00159033 0.00389751 0.00062333
O 19.08328068 20.89063119 3.01386563 -0.00010011 0.00173753 -0.00712605
N 13.62985937 22.59902139 12.56925200 -0.00526514 -0.00706297 -0.00536022
N 4.55434283 5.06986634 7.34092590 0.00472392 0.00256936 -0.00079445
N 4.38916369 24.81145788 7.63444635 -0.00186077 -0.00174712 0.00139097
N 1.08804442 9.21647920 16.91472904 -0.00173535 0.00051142 0.00456323
N 3.36093753 2.11609585 18.90867872 -0.00508027 0.00466737 0.00277436
N 3.24076981 10.24180788 27.16230819 -0.00061536 0.00286243 -0.00640955
N 5.01830605 15.78730493 2.95794571 -0.00840512 -0.00119141 0.00269650
N 1.57987783 1.76857886 2.54823635 0.00344269 -0.00753529 -0.00876479
N 2.03778225 14.09573785 26.46358532 0.00185387 -0.00140265 -0.00530693
N 23.78476922 8.62936884 26.61236325 0.00129103 0.00196460 -0.00179252
N 20.27756486 23.34093829 21.98202633 -0.00034475 -0.00388931 0.00039480
N 10.66603033 4.98627754 26.26700872 0.00175100 0.00614064 0.00090157
N 6.58781124 2.92945157 30.83511487 0.00003554 -0.00066009 0.00144223
N 7.97239292 9.58808192 14.83030621 -0.00608453 0.00584927 0.00157600
N 6.98783365 15.16950593 19.61342178 0.00253080 -0.00239566 0.00126784
N 5.95064338 6.24121090 15.28245566 -0.00438599 0.00440618 0.00329647
N 8.05594895 24.65628499 9.97650271 0.00046879 -0.00145004 0.00404519
N 1.88616995 18.28758022 12.75925746 0.00743919 -0.00755216 0.00720834
N 1.68312527 12.76623445 30.54123075 -0.00257825 0.00176163 0.00958075
N 4.96437784 17.20301746 20.47382093 0.00872034 -0.00912493 -0.00463501
N 0.90442474 13.27176565 15.14137220 -0.00316966 0.00547436 -0.00734343
N 1.37470062 22.90865320 3.10617085 -0.00432846 0.00108671 0.00823754
N 11.76115661 18.97772552 11.64922936 0.00303862 0.00568092 -0.00735873
N 23.22547443 25.56572484 27.51460913 -0.00081410 -0.00288006 0.00568998
N 11.08384172 0.99447007 16.23817944 0.00091247 0.00318187 0.00035546
N 3.94669351 21.60477781 0.97358623 -0.00630597 0.00742344 0.00142843
N 22.53647199 11.22277972 22.38482353 0.00643692 -0.00596657 -0.00192334
N 3.75868044 20.95722802 28.07351766 -0.00913391 -0.00105753 0.00267409
N 19.82653239 12.50709683 3.65321303 -0.00538569 -0.00077429 -0.00621741
N 6.22071543 22.50966911 25.04024409 -0.00106893 0.00341618 0.00438038
N 9.64240015 21.18299306 24.74717021 0.00654556 -0.00316311 0.00330966
N 21.12908234 17.41761225 23.49142283 -0.01221728 -0.00321412 0.00034918
N 12.50947579 11.04768040 3.67456108 -0.00884067 -0.00059319 0.00194927
N 9.54776149 5.56377768 7.43354420 0.00472277 0.00336691 0.00299410
N 14.47658318 5.41571958 9.00707102 0.00406744 -0.00033072 -0.00759946
N 12.93992318 13.63250939 15.22490915 0.00008111 -0.00482237 0.00467181
N 9.35570825 22.98815030 13.21982689 0.00141047 -0.00272692 0.00145076
N 18.70965146 11.09050575 9.06763782 -0.00202331 0.00019900 0.01249143
N 9.01153394 16.21574998 6.69057030 -0.00320286 0.00224725 0.00249878
N 15.52345133 10.02235250 10.80315241 -0.00168957 0.00168015 0.00316893
N 13.28927200 10.93032422 18.58628271 -0.00104887 -0.00394272 0.00611542
N 9.16589550 6.73750237 23.25492709 0.00242321 -0.00154346 -0.00372672
N 13.17803102 1.66024145 7.79470752 0.00373902 0.00505506 -0.00516914
N 0.69194213 8.32558900 3.91662538 -0.00892307 -0.00131457 0.00165114
N 7.97642948 1.13370438 24.49764563 -0.00436449 -0.00027340 -0.00557950
N 19.12580749 3.25206334 19.89370684 0.00304430 0.00675799 0.00619794
N 6.92472097 13.99538652 14.95641844 0.00250055 -0.00341016 0.00416422
N 19.76246011 3.04682708 29.92765880 -0.00184178 0.00583674 -0.00189899
N 6.28170144 7.19817712 29.66393814 0.00284624 0.00324465 -0.00568107
N 7.41646958 11.43505013 9.47059731 0.00511735 -0.00734950 -0.00331214
N 16.38817469 12.57901306 0.34582161 -0.00132879 -0.00141312 -0.00714897
N 21.36775631 17.17977523 15.78053640 0.00374282 0.00818048 0.00647559
N 8.65624917 9.97751205 3.10399750 -0.00549191 -0.00985892 -0.00383445
N 14.93302588 0.85535593 13.54550452 -0.00087665 0.00485810 -0.00901699
N 16.97279561 4.27221658 6.20599893 -0.00291399 -0.00544722 0.00454090
N 9.40353807 23.50583384 5.87294253 -0.00199636 0.00763343 0.00024483
N 23.23552056 0.45569725 17.67263791 -0.00498947 0.00483460 -0.00668272
N 10.94502722 15.40704194 28.15079057 0.00451364 0.00178933 -0.00777959
N 12.30612565 12.30626975 22.27717697 -0.00118823 0.00206965 -0.00081606
N 10.06668993 2.81634360 1.69301432 0.00184602 -0.00274671 0.00601357
N 7.91933089 15.72869343 28.91031887 0.00232667 0.00778277 0.00125341
N 17.29771069 16.24969581 24.20998484 0.00089470 0.00239688 -0.00898428
N 12.40009946 5.81563799 15.08154472 0.00017614 0.00032087 -0.00102219
N 13.37723560 19.49348109 22.60448983 -0.00217795 0.00079882 0.00371895
N 19.77398465 17.51447225 8.60602516 -0.00087558 0.00136976 -0.00119902
N 21.15174038 5.86812629 14.87605691 0.00720209 0.00125992 -0.00254462
N 15.06613115 8.90226569 1.61236515 0.00142139 0.00631307 0.00125015
N 22.74582948 7.36978199 7.02751573 0.00124252 0.00335787 -0.00201114
N 20.69081691 24.52883041 10.49221062 0.00006935 -0.00176071 -0.00070377
N 2.01450723 11.67391579 6.95470004 -0.00259018 0.00533427 0.00411078
N 14.05956697 18.74273331 2.23610658 0.00692045 0.01011983 0.00742035
N 23.06737968 2.64095990 0.42872340 0.00346838 -0.00166775 0.00311445
N 0.68821015 6.33281554 12.11016923 -0.00017719 0.00615962 -0.00268881
N 11.84596968 20.35113203 29.74272353 -0.00284536 0.00048714 -0.00339312
N 18.16824790 24.47281555 16.47076796 -0.00334385 -0.00254549 -0.00058860
N 18.22850238 13.30777125 27.26879458 -0.00084109 -0.00214138 -0.00150449
N 19.42403090 23.40010335 26.30472225 -0.00247597 0.01098514 -0.00488759
N 1.44890102 3.78387784 23.63786381 -0.00037831 0.00984680 0.00086996
N 13.71309018 2.24586838 24.75552968 -0.00123549 0.00221224 -0.00015652
N 23.31866691 6.64812777 22.80389546 0.00481465 -0.00551676 0.00076672
N 19.93843357 24.38618035 4.45926681 -0.00566280 0.00114356 0.00090952
N 19.43166669 16.00329729 12.41359686 0.00288558 -0.00009661 -0.00142509
N 11.41929734 24.28197999 0.61600578 0.00445819 0.00465380 -0.00130726
N 1.78601348 26.05497720 14.83453220 -0.00062300 -0.00068822 -0.00452073
N 14.32187502 17.64906987 15.09607961 -0.00143691 -0.00466484 0.00425231
N 17.63659169 17.15838956 2.93729533 -0.00419753 -0.00299277 0.00042547
N 23.78392879 25.64415330 8.91772660 -0.00285153 -0.00555375 0.00058647
N 17.37517562 22.12827233 2.20321070 0.00595782 -0.00089400 0.00384788
N 6.75885213 23.10631489 20.18902075 0.00318001 0.00157766 -0.00360906
N 17.21232922 24.62088651 29.22985031 -0.00778657 -0.00164996 0.00457060
N 16.46344273 4.23090565 28.30483456 -0.00137811 0.00076997 -0.00174284
N 23.38711408 15.04910772 4.51901040 -0.01309173 0.00463907 0.00649464
N 13.52429635 7.53661267 20.96911132 0.00034171 -0.00032918 -0.00817714
N 1.56732560 20.87234861 16.40018099 -0.00550104 -0.00490412 -0.00010174
N 23.80182881 18.49902560 26.34126222 -0.00036566 0.00761851 0.00016061
N 19.00369506 9.00255503 19.12569323 -0.00149705 -0.00712985 -0.00347273
C 6.27448685 25.05997428 11.68026330 -0.00205742 -0.00266777 -0.00208995
C 5.06888805 2.88748301 8.35445069 0.00462166 0.00824475 -0.00544120
C 3.41838600 14.45806935 30.11286207 0.00112998 0.00221013 0.00567208
C 23.61876320 9.74118349 17.48211075 0.00696159 0.00178859 -0.00069478
C 23.80906743 12.32221225 14.02431087 0.00141747 0.00408617 0.00277714
C 4.35775120 11.00882502 29.22706094 -0.00274067 0.00317053 0.00269995
C 11.02046000 19.62602586 13.79560936 0.00189935 0.00016128 0.00089487
C 2.03990943 1.36004899 4.92207400 -0.00279130 0.00483747 0.00006463
C 5.21813240 24.52308471 12.31317945 -0.00641265 0.00078024 -0.00433830
C 4.89010783 1.89312402 9.30119186 0.00995927 -0.00902650 0.00518188
C 3.93500499 15.72557169 30.37198809 0.00301952 0.00853988 -0.00343781
C 22.26085918 9.85057970 17.15819248 0.00612229 -0.00296824 0.01118294
C 23.22962166 11.94564779 12.87091616 -0.00349716 0.00389541 0.00696796
C 4.47398671 11.00013896 30.61088259 0.00061063 -0.00163397 0.00485057
C 10.05639456 19.87295056 14.76551891 -0.00863755 0.00159422 -0.00844970
C 1.59779384 1.69587992 6.14091112 -0.00000838 0.00575599 -0.00696646
C 4.78981425 23.17665696 12.11904171 0.00087924 0.00331143 -0.00025878
C 3.86274109 2.01594880 10.23701469 -0.00489955 -0.00010196 0.00402062
C 3.39556711 16.59751584 0.06240163 -0.00236348 0.00257056 0.00446844
C 21.87217874 9.58446186 15.82736290 0.00323716 -0.00337595 0.00734042
C 23.91005306 12.08535675 11.63240814 -0.00537958 -0.00107883 0.00213001
C 3.58431218 10.28504391 0.09246841 0.00118686 0.00119817 -0.00267620
C 8.70722685 19.82182657 14.39875659 0.00260324 0.00655409 0.00009280
C 1.15739643 3.01044301 6.39422345 0.00111485 -0.00358707 -0.00239665
C 5.73866747 22.29928301 11.65505781 0.00288724 -0.00237793 0.00240768
C 3.17400939 3.21414017 10.37380081 0.00196238 0.00120010 0.00444817
C 2.36790137 16.04362504 0.85371331 -0.00273729 -0.00670573 0.00160789
C 22.82218636 9.36134827 14.82523692 -0.00005296 0.00490951 -0.00330950
C 0.40236940 12.50062601 11.56528486 -0.00594509 0.00385222 -0.00578570
C 2.45712738 9.70771916 30.78175978 0.00230020 0.00086340 -0.00244565
C 8.35024052 19.25109125 13.16287799 -0.00312908 -0.00504953 -0.00355074
C 1.11736099 3.95914871 5.36717584 -0.00059799 0.00621459 -0.00356339
C 6.84759814 22.80414556 11.01968376 0.00422186 -0.00229107 -0.00125658
C 3.51258722 4.28295412 9.49285698 -0.00302217 -0.00663867 0.00553567
C 1.77516116 14.76070400 0.58425491 0.00133569 -0.00040838 0.00411322
C 24.11936320 9.16642143 15.20298761 0.00808441 0.00315409 0.00139992
C 1.06006901 12.95242762 12.77735580 -0.00675623 0.00072178 -0.00190543
C 2.43931968 9.61348882 29.36432639 -0.00585026 -0.00797634 0.00557135
C 9.27591598 18.91459054 12.25886528 0.00305801 -0.00285332 0.00258878
C 1.23092005 3.49938936 4.08554415 0.00056321 0.00051906 -0.00453704
C 7.02618497 24.18006494 10.81192978 0.00396494 0.01024047 0.00445282
C 4.31828838 4.07074579 8.34763768 -0.00320075 -0.00628156 -0.00804483
C 2.23770762 14.02695455 30.82212459 -0.00064547 0.00532162 -0.00018523
C 24.58550272 9.40369349 16.55938683 0.00149783 0.00276595 -0.00510830
C 0.31087189 12.81546986 14.00555790 0.00043931 -0.00089399 0.00881475
C 3.42157845 10.27131107 28.55915715 0.00822633 0.00662207 -0.00266540
C 10.64291537 19.16269196 12.52015031 0.00740956 0.00461805 0.00292315
C 1.71212206 2.28223916 3.82109620 0.00367309 0.00447997 -0.00306312
C 8.17143320 25.97707067 9.68938429 0.00104380 -0.00168697 -0.00275596
C 5.14127376 5.00695915 6.15310896 -0.00388957 0.00430347 -0.00085607
C 0.45764397 12.35776833 30.91099020 0.00406874 -0.00469491 0.00424481
C 1.63440248 9.59983203 18.13235257 -0.00406807 -0.00124676 0.00126806
C 0.39379347 13.24360172 16.40090562 -0.00084847 0.00889253 -0.00166994
C 4.18354365 10.55012248 26.27034459 0.00445534 -0.01011760 0.00851102
C 11.69567726 18.34655825 10.48616308 0.00414890 -0.00042848 -0.00560766
C 1.54789139 2.53269043 1.39587762 0.00493702 -0.01142640 -0.00798634
C 4.52171982 14.24605246 26.12823933 0.00219168 -0.00141343 0.00554842
C 5.53198206 3.67802634 5.48177933 -0.00110849 0.00805001 0.00719261
C 2.70710823 23.99896572 9.22138443 -0.00090294 -0.00292386 -0.00187547
C 10.21761033 6.64914471 28.16971430 0.00537944 -0.00306812 -0.00378237
C 5.81065720 2.52544798 1.82211148 0.00687918 -0.00572796 0.00307743
C 3.71455131 10.51468472 24.82178537 0.00784118 0.00129019 -0.00924882
C 3.49792818 13.89179568 3.01474513 0.00068269 0.00193987 -0.00268379
C 5.47276227 4.18677625 14.06231982 -0.00106854 -0.00268198 0.00281731
C 8.98228358 1.33672511 15.00404136 0.00896364 0.00160316 0.00298614
C 0.83710290 8.04401419 25.19736612 -0.00446148 0.00798487 -0.00104927
C 24.78816254 12.37939309 22.62471328 0.00466354 -0.00320205 0.00065481
C 12.62908530 5.38536012 24.88725581 -0.00102301 0.00018404 0.00019725
C 20.45132587 10.94635191 1.88044947 -0.00193390 0.00169921 -0.00225382
C 6.43050046 9.61266605 13.05259484 -0.00094768 0.00247730 -0.00294125
C 11.28364638 23.01039529 24.89615262 -0.00725154 0.00365083 -0.00102084
C 6.87869233 6.62012947 17.51957322 -0.00214003 -0.00161591 -0.00037927
C 8.34500461 1.84501454 13.84790629 -0.00099373 0.00294615 -0.00712857
C 2.08360683 7.49335210 25.03816137 0.00010270 0.00392144 -0.00035033
C 0.81622984 13.40392995 22.35645813 0.00239665 0.00344835 0.00344297
C 13.34351581 5.32220048 23.71822377 0.00207554 -0.00815392 0.00797783
C 20.62861795 10.66180649 0.49523433 0.00165204 -0.00169583 0.00194245
C 5.18001825 9.70701401 12.61245940 -0.00587232 -0.00275618 0.00065334
C 11.93004321 23.89764243 25.68606210 0.00197362 -0.00579670 0.00904817
C 7.42441821 6.04102642 18.66162065 -0.00191980 -0.00291306 -0.00494504
C 9.11597766 2.59490144 12.89450066 -0.00216084 -0.00073796 -0.00425960
C 2.53598311 6.57907977 26.01947449 -0.00275735 0.00108181 0.00389234
C 0.46298376 14.23406965 21.23469683 -0.00012768 0.00191458 -0.00567989
C 12.77273395 4.59556303 22.64845748 -0.00277279 0.00393191 0.00525542
C 20.62100187 11.74473114 30.88483882 0.00089957 0.00103467 0.00074391
C 4.20639768 10.28618642 13.38173324 0.00192958 0.00022589 0.00548729
C 11.51937391 24.15210545 26.98593537 0.00442414 -0.00477952 -0.00157687
C 7.69137476 4.67138372 18.79566652 0.00407857 -0.00272115 0.00070642
C 10.48172983 2.87500380 13.09763503 0.00963765 0.00344034 0.00109542
C 1.60602177 6.10680528 26.91522301 -0.00010803 0.00439376 0.00008265
C 24.24089046 13.81169129 20.39442251 -0.00959180 0.00145762 -0.00260043
C 11.54166022 3.92140169 22.82862274 -0.00134457 0.00058225 0.00100544
C 20.57801523 13.01272027 0.08841746 -0.00409189 -0.00082374 0.00825582
C 4.44232577 10.50161176 14.74063254 -0.00190516 0.00013699 0.00576714
C 10.60968258 23.26332847 27.53341406 -0.00200279 -0.00883235 -0.00117295
C 7.61077029 3.90467272 17.66244794 -0.00509121 0.00036239 0.00274116
C 11.06763156 2.30446314 14.20959352 0.00206738 -0.00613972 0.00336769
C 0.41568945 6.75295608 27.13581490 -0.00038526 0.00297685 0.00213386
C 23.33581075 12.78209635 20.72708020 -0.00170329 -0.00162223 -0.00117144
C 10.87739937 3.89281921 24.06060669 -0.00097784 0.00809234 -0.00499611
C 20.24217324 13.24291161 1.39665861 0.00130405 -0.00743729 0.00374826
C 5.64151553 10.18224740 15.23256604 -0.00295775 -0.00869027 -0.00093379
C 10.04411489 22.19334353 26.80632339 -0.00182209 -0.00674954 0.00503547
C 7.33559184 4.50628102 16.44285601 0.00461126 -0.00322312 0.00082048
C 10.36954236 1.54969234 15.18789203 -0.00151591 0.00307722 -0.00050990
C 0.01953412 7.77733157 26.31517051 -0.00097561 -0.00607178 -0.00043990
C 23.52599727 12.13660048 21.95926871 0.00547363 -0.00599332 0.00610694
C 11.37463531 4.68484216 25.08281308 -0.00609324 -0.00867767 0.00150853
C 20.15677058 12.22207029 2.32860124 -0.00450055 -0.00033427 -0.00574117
C 6.70643458 9.79297960 14.36972120 0.00141346 0.00078012 -0.00406667
C 10.29821221 22.15545315 25.43601332 -0.00248575 0.01031352 -0.00146206
C 6.66682345 5.74197808 16.39484264 -0.00838276 0.00266388 -0.00126758
C 10.46288379 0.41407668 17.29841645 -0.00248476 -0.00088948 0.00245948
C 23.13247379 8.68220050 27.81479410 0.00638755 -0.00265362 -0.00332499
C 22.57657524 10.63469451 23.62743873 0.00336994 0.00083935 -0.00457445
C 11.11864817 5.62191123 27.41685005 0.00086076 0.00050801 -0.00027177
C 19.62096384 13.68573166 4.21506151 0.00177464 -0.00594269 -0.00082238
C 8.40680395 9.79590561 16.13401102 0.00436117 -0.00154999 0.00475320
C 9.46431111 21.18887814 23.41983237 0.00937199 0.00030478 0.00403099
C 5.71618506 5.63434430 14.11196668 -0.00117487 0.00130464 -0.00011081
C 12.27857901 22.93567828 14.58296729 -0.00537977 -0.00587448 0.00634476
C 21.82716032 9.47809671 27.74923931 -0.00311988 0.00039675 0.00704755
C 18.45876939 24.78310456 21.21974810 -0.00094497 0.00080318 0.00027662
C 2.78954996 8.80252601 18.58663360 0.00026148 0.00129257 -0.00406060
C 2.80031340 4.43734404 18.70384501 -0.00189926 0.00834727 0.00209057
C 9.81440143 9.22592713 16.38030758 0.00485286 -0.01138141 0.00340820