1920
Time=99999.99999996 pbc="T T T" Lattice="24.62370675 0.00000000 0.00000000 0.00000000 26.74237992 0.00000000 0.00000000 0.00000000 31.15451532" energy=-12237.69368780 virial="-16.72629906 1.81122583 -46.33788572 1.81122583 3.05178456 -7.37580197 -46.33788572 -7.37580197 -48.76252679" stress="0.00159223 -0.00002817 -0.00218686 -0.00002817 0.00270961 -0.00039816 -0.00218686 -0.00039816 -0.00008092" Properties=species:S:1:pos:R:3:vel:R:3
O 3.71782772 23.37242122 12.65924868 -0.00657296 -0.00274802 -0.00725282
O 4.11595029 1.19980320 11.13879005 0.00176960 -0.00018571 -0.00525179
O 2.63224374 18.28012607 0.92801807 0.00048159 -0.00269185 -0.00398134
O 20.43480051 10.91328277 16.50616730 0.00091486 -0.00254531 -0.00362634
O 23.55719545 11.32978895 9.92924787 0.00096318 0.00163659 0.00440353
O 3.75001082 10.82734718 0.93726524 -0.00397966 0.00505733 0.00218971
O 7.52765558 20.47466891 14.52522080 -0.00354426 0.00151332 -0.00527246
O 0.53125561 3.51078092 5.54679605 0.00351339 0.00467205 -0.00049129
O 8.98321833 26.69104936 17.66239092 -0.00171809 0.00558751 0.00706695
O 4.69937924 4.26458013 4.07919196 -0.00172115 -0.00179081 -0.00540808
O 23.68224002 13.14170106 0.55953277 -0.00043620 0.00322365 -0.00045478
O 11.67043320 5.34179241 27.13447628 -0.00380740 0.00391337 0.00319912
O 19.34096602 14.54913924 4.01063549 0.00248271 0.00067579 -0.00399169
O 5.28602743 11.70994318 25.98346294 0.00273912 0.00425137 -0.00708731
O 11.17045573 17.67107386 9.96089776 0.00392747 -0.00298007 0.00318669
O 5.74893431 7.16848872 13.71016506 0.00108136 0.00665150 0.00444963
O 6.03816640 2.36042166 12.39695997 0.00804424 0.00192802 0.00081388
O 3.97663394 6.59603518 25.30223233 -0.00225891 -0.00090301 -0.00107872
O 0.99504076 15.19146782 19.99960891 -0.00382259 -0.00827887 0.00250741
O 14.29430594 4.30304181 21.39538272 -0.00118316 -0.00337355 0.00447884
O 20.83435926 10.77192440 30.42618380 -0.00249740 0.00277423 0.00457739
O 3.15867310 10.30197133 12.23682914 0.00024558 0.00192570 0.00883544
O 12.32964423 24.54743062 26.68681657 -0.00832045 -0.00393495 -0.00184167
O 8.55719261 3.92643231 20.11419520 -0.00491938 -0.00328832 -0.00051399
O 8.31199261 0.79000680 10.58015611 0.00293066 -0.00089306 0.01153836
O 22.81007514 7.25393819 27.93019199 -0.00038995 -0.00122619 0.00299548
O 23.19876263 10.60816853 23.66442907 -0.00477080 -0.00562604 -0.00017204
O 1.70895947 10.64851283 19.07543966 -0.00130886 -0.00083704 0.00228639
O 23.61662684 13.61484101 15.95374818 -0.00282410 -0.00256503 0.00127224
O 7.65112396 11.07021351 16.80591731 0.00333602 0.00304618 -0.00021985
O 11.85202194 19.53118992 22.96297222 0.00175348 -0.00340736 0.00619728
O 0.47729236 4.19625615 30.44283197 -0.00247850 0.00387637 -0.00706657
O 16.58384357 19.90988741 8.26036090 -0.00343015 -0.00010917 -0.00446962
O 4.27965486 20.24865647 8.19486817 0.00257460 0.00465239 -0.00142965
O 6.72799553 24.49851459 2.31539505 -0.00057492 -0.00562088 0.00280855
O 5.39616287 18.92808513 15.10349517 -0.00241612 0.00058485 -0.00106895
O 5.37967867 24.65716860 17.56484213 0.00397152 -0.00014130 0.00111475
O 3.09690960 26.43268773 31.13062899 0.00079262 0.00197975 -0.00678061
O 7.98024639 19.99581612 5.07940008 0.00003311 -0.00469869 -0.00373640
O 3.43897660 25.47802290 26.78480086 0.00480305 -0.00182741 -0.00622858
O 2.25974595 16.67631322 25.18893584 -0.00048802 0.00084290 0.00356133
O 3.54156806 17.60468750 13.87956441 0.00272775 -0.00485105 -0.00709744
O 3.96992115 22.87241060 8.06600513 -0.00353527 -0.00022290 -0.00865338
O 4.04757997 19.92051509 30.76233445 0.00370250 -0.00496043 0.00377344
O 5.43350757 0.69019522 0.24620891 0.00469617 0.00688191 -0.00178462
O 2.22771981 24.73409852 5.78054680 0.01056741 0.00311347 0.00398539
O 3.29205367 15.90760249 5.44532967 0.00150955 -0.00192014 -0.00495390
O 22.24482246 18.10852260 22.72206394 -0.00007730 0.00013127 0.00529332
O 21.91856464 14.46629843 29.48126858 0.00439992 -0.00367361 0.00132980
O 23.60357395 19.06910294 4.47029048 0.00454824 0.00655820 -0.00021426
O 0.63854048 21.06885592 24.25870200 -0.00159278 -0.00049414 -0.00345858
O 7.98848122 24.46010239 28.83412973 0.00067820 -0.00033030 0.00197951
O 4.24761626 2.68618006 25.35498958 -0.00019798 0.00142235 0.00451475
O 4.80720817 17.10535872 25.01348085 0.00166444 0.00059980 0.00134790
O 3.48059450 11.67725627 20.71675513 0.00619331 -0.00112039 0.00001613
O 18.23945716 18.88719779 27.61311908 -0.00380363 0.00057693 -0.00121023
O 14.35425306 22.06946691 13.61341979 -0.00066362 -0.00123396 0.00269233
O 5.00214497 22.72030954 1.34976340 0.00901820 0.00436828 0.00451083
O 21.75650257 23.10475206 19.52553622 -0.00054503 -0.00207046 -0.00726069
O 3.50404091 15.56394114 20.33874989 -0.00780164 -0.00146291 0.00774839
O 4.58175804 4.25334045 17.90975073 -0.01031401 -0.00264640 -0.00036042
O 4.71749227 23.28057827 26.32945825 0.00118436 -0.00373125 0.00116506
O 8.20975458 15.78388494 20.72663816 -0.00387726 -0.00496513 0.00147925
O 20.37857198 25.29020478 25.82913212 -0.00379780 -0.00790704 -0.00089350
O 3.48944086 5.96937780 2.60156583 -0.00075558 -0.00174293 -0.00751056
O 8.06402657 7.13414621 12.45483204 -0.00489777 -0.00355916 -0.00393225
O 15.69787815 9.01057222 27.34744318 -0.00231180 -0.00713913 -0.00053074
O 10.77752220 9.77467446 13.33568668 -0.00411203 -0.00147047 -0.00575029
O 10.57143741 10.91183505 8.06514614 0.00424869 -0.00321680 0.00198374
O 13.24241694 10.61374340 7.14688207 -0.00409910 0.00023060 -0.00462647
O 17.77405617 4.47288669 12.23805323 -0.00371013 0.00420753 0.00329532
O 20.23734048 12.56827173 13.15990918 0.00251157 -0.00275889 0.00043339
O 22.80893735 1.41316226 15.67600800 -0.00253962 -0.00030489 0.00344243
O 8.33920331 3.59695701 7.00401152 0.00038311 -0.00418704 0.00772379
O 14.26328978 13.75244140 0.13586053 -0.00248418 0.00711834 0.00625492
O 2.50191614 8.84129171 1.96442412 0.00350154 0.00273404 0.00283337
O 7.20302396 17.02459322 29.14784156 0.00701181 0.00165836 0.00355172
O 19.57259689 10.17199455 9.10053227 0.00360571 -0.00439965 0.00048516
O 17.81966269 2.85254593 6.20937401 -0.00711547 -0.00209448 -0.00362306
O 19.43493551 3.83393114 26.88302780 0.00524539 0.00134753 -0.00022559
O 0.25345091 25.24872250 22.35752081 -0.01145391 -0.00181411 0.00233164
O 6.67372264 11.54853176 24.04959990 -0.00090170 0.00011071 -0.00666132
O 7.41942352 10.29215941 19.38509917 0.00230207 -0.00533668 0.00427549
O 21.90001637 6.62426269 30.36406918 0.00387088 0.00290970 0.00528495
O 8.88887220 11.07661792 30.26053537 -0.00856296 0.00069345 -0.00441359
O 19.05336659 1.82255049 14.91687873 0.00305202 0.00047642 0.00358371
O 14.17325720 2.67832205 19.24440774 0.00046665 0.00303809 -0.00284091
O 17.81116995 7.87694378 0.44671234 -0.00220117 -0.00348685 -0.00029815
O 5.13005853 6.70545188 27.67089092 0.00118054 0.00103814 -0.00173785
O 7.75036356 4.18064159 22.40603742 -0.00560975 0.00039290 -0.00147436
O 12.35892952 13.78352495 21.20682707 0.00214403 0.00095851 -0.00008485
O 15.71834785 13.38403139 14.92140416 -0.00012425 0.00426043 0.00668812
O 8.90111342 11.61464487 1.71405194 -0.00299790 0.00322513 0.00413353
O 19.01195787 5.29028381 21.72205492 0.00182048 0.00176481 -0.00325678
O 11.61214739 7.34076070 13.55451139 -0.00184591 -0.00125337 0.00094909
O 13.94532442 12.03270142 11.79046981 -0.00606747 -0.00117725 0.00156721
O 11.19651584 9.60205135 30.21385755 -0.00129017 -0.00174323 -0.00242344
O 2.88940990 13.80238364 7.17899701 -0.00576191 -0.00235507 0.00059943
O 12.39762845 6.30909484 4.04860143 0.00012138 -0.00888282 0.00203906
O 24.15145113 18.17117661 11.02649543 -0.00060756 0.00413558 -0.00217186
O 11.88361553 24.74642039 9.17965741 -0.00022947 0.00458180 0.01164652
O 17.83304547 22.58489381 13.62453501 -0.00489318 -0.00091482 -0.00012474
O 9.05333021 15.65491591 11.89971115 0.00425441 -0.00312788 0.00004515
O 9.14269582 18.71665415 8.63855896 -0.00226087 0.00498099 -0.00041666
O 14.55392461 11.04672373 20.10020559 -0.00242672 0.00067365 -0.00111385
O 8.46380673 9.40051167 9.36189452 0.00060371 -0.00023534 -0.00310690
O 15.06248611 8.09376820 9.77476575 0.00175289 0.00039154 -0.00441914
O 12.19401023 3.96748162 2.84877998 -0.00122701 0.00793948 -0.00831749
O 7.50596338 0.93236392 26.68268847 -0.00485819 0.00089160 -0.00498855
O 16.93642727 2.08648400 13.49169718 -0.00317864 -0.00189963 0.00070193
O 9.67715135 15.91545354 4.35663072 -0.00368564 0.00363265 -0.00544615
O 15.94983978 19.01002561 21.92837389 -0.00121721 0.00759079 -0.00002541
O 16.82099232 16.77242738 20.68907584 0.00130340 0.00184900 -0.00808662
O 8.99600893 16.52421075 23.03131882 0.00111959 -0.00347646 0.00296759
O 16.03739683 24.23010977 7.96185032 -0.00424644 -0.00721403 -0.01147720
O 7.60895013 0.16454486 29.16633239 -0.00802821 -0.00443219 -0.00346436
O 9.48732177 25.47603830 19.78355244 -0.00251463 0.00190156 -0.00001873
O 19.85013083 19.42453240 19.44649570 0.00430034 -0.01270821 0.00353441
O 11.84368172 16.28415872 16.79660401 0.00365482 -0.00333305 0.00842439
O 15.13136530 24.11617449 18.20733642 -0.00658244 -0.00036313 0.00310422
O 13.16779613 13.82579655 3.21267476 0.00161245 0.00356235 -0.00038369
O 11.24994897 11.45214085 28.26730623 -0.00318702 -0.00070735 0.00650973
O 13.85440429 2.37867765 11.00567939 0.00246775 0.00277469 -0.00180352
O 21.43758040 18.12278650 17.97829986 0.00355336 -0.00039633 0.00185533
O 8.77393440 24.70316696 14.73660311 0.00305937 -0.00168629 -0.00099024
O 16.60868916 18.20045376 24.55431022 0.00140823 -0.00252970 0.00103799
O 6.81643923 16.19223683 12.97472898 -0.00158788 -0.00301356 -0.00406095
O 11.52000557 24.03233057 6.28911338 -0.00018605 -0.00458606 -0.00423648
O 21.32848526 20.39609940 3.91307509 -0.00081178 0.00592218 -0.00127305
O 23.90218938 5.69083928 17.55941194 0.00389055 0.00543366 -0.00515461
O 10.18892040 20.59023592 3.80543190 -0.00670226 0.00874309 0.00325232
O 17.53112005 7.36994678 5.11417117 -0.00006908 0.00254947 0.00371448
O 13.21043570 14.25938035 10.80874244 0.00112180 -0.00620646 0.00827277
O 23.23803433 11.43896245 2.39744894 0.00180870 -0.00289168 -0.00598270
O 19.93735970 3.73635181 7.40006194 -0.00047408 -0.00072468 0.00394276
O 21.71471860 1.31236998 5.37195628 0.00493676 -0.00416640 0.00471861
O 7.31580842 21.19153637 20.34022919 0.00433895 0.00480275 -0.00731709
O 19.28304690 9.20912871 14.97625991 -0.00046124 0.00484640 -0.00613851
O 12.77489273 23.59420807 30.14916904 0.00029968 -0.00404832 0.00052613
O 20.10909267 12.72657694 28.63710520 -0.00548376 0.00269679 -0.00031465
O 11.02490271 6.33447587 22.69035629 0.00893480 0.00334360 0.00326148
O 0.24199865 9.81736679 8.37070513 -0.00004694 -0.00228820 -0.00117344
O 23.15788493 24.06130116 9.02740786 -0.00379735 -0.00408158 -0.00418364
O 24.40240142 5.64530076 20.13872536 -0.00301393 -0.00265847 0.00490412
O 2.03236354 23.33363578 23.26786588 0.00802824 -0.00277707 0.00373434
O 15.36809984 19.90053723 25.98308789 -0.00441379 0.00410893 -0.00259988
O 18.57324215 6.58928244 23.97932949 0.00153365 0.00399656 -0.00193206
O 18.82040286 12.72471297 22.33205592 -0.00454126 0.00067323 0.00044878
O 15.19139614 10.19582656 25.29920570 0.00179574 -0.00278480 0.00275644
O 5.11990798 3.56385604 20.28145996 -0.00202853 0.00191350 0.00488410
O 21.13450691 22.70382011 0.81207823 -0.00209180 0.00327249 0.00308365
O 20.48436935 3.09851470 24.55339493 -0.00594184 -0.00318812 0.00197407
O 16.74292618 24.42099483 5.60994137 -0.01127232 -0.00517546 0.00300610
O 10.64489060 17.72112231 29.62936241 0.00182621 0.00011113 -0.00316414
O 16.68651403 2.07619192 27.71740914 0.00951232 0.00274905 -0.00490723
O 23.51359877 5.50170231 6.12316008 0.00109962 0.00079382 0.00408559
O 12.75693939 18.31215648 15.55288038 0.00297961 -0.00322772 -0.00353073
O 1.68815132 1.46721865 24.92392003 -0.00156886 -0.00379073 0.00596082
O 0.17974165 21.15245051 26.79966242 0.00135841 0.00176310 -0.00240182
O 22.57950425 1.53797625 30.15204968 0.00053395 0.00257587 0.00215743
O 23.68998057 21.60158354 8.59481525 -0.00244783 -0.00082737 0.00088498
O 17.84403018 19.35394695 17.80314236 -0.00084042 0.00740065 0.00218125
O 12.52829603 4.85620304 29.56545293 0.00548734 -0.00484527 0.00491393
O 0.25761933 21.64581190 13.60613037 0.00136450 0.00457251 0.00003566
O 22.33939677 2.84843551 13.31749337 -0.00595868 -0.00402036 0.00317839
O 22.28656592 16.23792371 0.11788019 -0.00271090 -0.00943868 -0.00379906
O 16.86757602 17.10083484 28.72143687 -0.00245452 0.00300014 0.00413963
O 13.51271597 22.64403881 5.34417609 -0.00038287 -0.00286381 0.00060586
O 1.18940703 8.64630720 12.99393571 0.00186075 0.00298414 -0.00229873
O 20.26029318 15.14648626 13.80154378 -0.00234094 0.00022314 0.00172394
O 16.45932335 7.43352927 2.86732389 0.00096857 -0.00006743 -0.00303545
O 23.94133843 16.38366752 4.43859885 0.00749170 0.00831175 -0.00113593
O 17.84523109 21.40634187 27.42333695 0.00116597 -0.00102201 0.00132524
O 18.75213508 16.54035961 5.30241254 -0.00067759 -0.00614779 0.00818410
O 12.04964484 18.80246115 3.35160034 0.00110641 0.00564967 -0.00383863
O 17.43715350 10.58572087 21.44003452 -0.00251650 -0.00351271 -0.00085708
O 20.20813687 7.76200084 9.75480173 -0.00667865 0.00372142 -0.00619201
O 19.74371554 0.25329343 2.05821115 -0.00308420 -0.00112798 -0.00470641
O 23.28043050 22.19313352 15.65166253 -0.00374486 0.00463131 0.00310099
O 1.94998051 16.95769214 10.15431901 -0.00385425 0.00126707 0.00058191
O 14.91014603 22.95349809 22.04310462 0.00418404 -0.00500614 0.00385127
O 24.40494605 16.99760309 18.74198861 0.00154313 -0.00512007 -0.00058452
O 14.24475591 26.56771826 19.17870543 -0.00237292 -0.00324814 0.00315092
O 17.84014347 13.63413948 16.05108773 -0.00206450 0.00172266 0.00342539
O 18.61625383 18.57633497 10.04623587 -0.00261214 0.00915499 0.00175211
O 15.24313358 24.52054869 29.94074718 0.00327882 0.00660560 0.00341812
O 17.65995630 24.16471778 17.82727208 -0.00325312 0.00654666 0.00550040
O 1.74897953 0.87147880 12.25391343 -0.00071161 -0.00329334 0.00472525
O 18.17327850 26.22870073 9.63137009 0.00514605 -0.00072034 0.00065649
O 4.22133820 23.03685617 19.16875160 -0.00021308 -0.00397346 0.00465383
O 12.49697629 26.64050331 25.30649639 -0.00570145 -0.00321194 -0.00269093
O 18.75602150 22.00320636 1.59964404 -0.00421430 -0.00124457 -0.00420930
N 13.76382407 23.10810590 11.70565858 -0.00041834 -0.00266777 0.00206188
N 4.08970916 3.47762703 6.02838189 0.00801695 -0.00378465 0.00389335
N 4.72847113 24.91467158 7.48942210 0.00156509 0.00197473 0.00137174
N 1.19514129 9.66367681 17.05496646 -0.00481185 0.00111698 -0.00270797
N 2.77994435 2.91805850 18.25941487 -0.00070033 -0.00060612 0.00083893
N 3.12981447 10.99688337 26.58145561 0.00772413 -0.00313536 0.00309108
N 4.74761924 15.68266749 3.70692627 -0.00279322 -0.00299248 -0.00046593
N 1.71789023 2.60318772 0.31029613 0.00050767 -0.00588854 0.00383701
N 1.50379930 14.64075744 25.79777535 0.00279118 0.00170685 -0.00344690
N 23.58134767 8.75147972 26.30909106 0.00154364 0.00361195 0.00239345
N 20.78743760 23.27482229 21.61797641 -0.00083301 -0.00295873 0.00184070
N 10.53290331 4.16997126 25.56761612 -0.00499626 -0.00558027 -0.00648273
N 5.91286285 2.70692086 30.68853973 0.00510745 -0.00025904 0.00313896
N 8.16703344 10.21689925 14.72998332 -0.00051712 -0.00083845 -0.00770747
N 7.01703510 15.52230215 18.76753650 0.00140846 0.00096314 0.00482301
N 6.41194832 6.79643038 15.83162724 -0.00491148 0.00086422 -0.00932098
N 7.91841547 25.46567142 9.51806181 -0.00159673 -0.00940152 0.00450350
N 1.93174508 19.06339285 13.02898436 -0.00015908 0.00423306 0.00084973
N 0.84620647 13.38025154 30.27423866 0.00296044 0.00497826 0.00833635
N 4.83179747 17.32982346 20.39859599 0.00111123 0.00501450 -0.00411234
N 0.86787449 13.38512065 14.64675558 0.00276451 -0.00383478 -0.00118749
N 0.82810180 23.78290859 4.26276654 0.00017153 0.00173886 0.00354075
N 11.99538813 19.40019596 11.23850277 0.00231298 0.00034375 0.00184013
N 22.40665244 25.54482908 26.60119825 0.00806590 0.00361005 -0.00219114
N 10.10150248 0.64077460 15.74910552 0.00048128 0.00098008 -0.01124074
N 2.91127188 22.01174733 1.80491232 -0.00390599 -0.00139090 0.00011008
N 21.74689087 11.95589147 22.46226601 -0.00755942 0.00577645 0.00735736
N 3.26719190 21.68250750 29.63015932 0.00554947 0.00190294 -0.00360700
N 19.23195042 12.25251773 4.38232487 0.00280652 -0.00063682 -0.00387405
N 5.93137597 22.59316292 24.54007795 -0.00260855 0.00273804 0.00064929
N 10.03865931 20.35462112 23.90009824 -0.00299224 0.00235417 0.00272411
N 22.39484875 16.74799276 24.49294222 -0.00290752 0.00124034 -0.00491010
N 12.52224909 11.81281875 3.96129264 0.00062292 0.00725183 -0.00356710
N 9.94771595 5.15384581 7.53343720 0.00219267 -0.00320023 -0.00327327
N 14.39957999 5.99490830 9.23295583 -0.00443701 0.00015369 -0.00682151
N 13.62169486 14.35406413 14.63599924 0.00478568 -0.00361319 0.00070156
N 8.02843915 23.49613196 12.93264902 -0.00171393 0.00351791 0.00251436
N 18.27756959 12.11156116 9.22516361 0.00268868 0.00618108 0.00395951
N 8.73190099 15.79436745 6.37103660 -0.00469088 0.00238004 -0.00940075
N 15.45691678 10.53273165 11.03298347 0.00885446 -0.00121990 0.00469505
N 13.89334552 12.71910922 18.56751956 0.00075200 0.00261868 0.00088023
N 8.15485669 6.21748810 23.43010819 0.00438600 -0.00173638 -0.00480543
N 12.79410979 1.67857962 9.12076869 -0.00261805 -0.00651591 -0.00324573
N 0.75395661 8.07229421 3.32752952 0.00313206 -0.00018900 -0.00138871
N 7.91233086 0.89837150 24.53155647 0.00490539 -0.01079304 -0.00599529
N 19.45726068 4.75837771 19.57919660 -0.00797517 0.00568570 -0.00035417
N 7.04441892 14.39650052 14.30523511 0.00175486 0.00154870 -0.00442462
N 19.13355716 3.16641893 29.01894176 -0.00774197 0.00256626 -0.00374134
N 6.33283534 7.77240310 29.24450789 -0.00394327 -0.00003780 -0.00042636
N 7.66895884 11.34012306 8.66934568 -0.00253237 0.00169024 0.00180418
N 16.18376587 12.49875937 0.50940155 0.00409058 0.00413946 -0.00631113
N 21.31434821 18.42540995 15.79081201 0.00080379 0.01174009 0.00133681
N 8.27117595 9.91757231 3.02292855 -0.00229978 0.00428567 0.00095923
N 15.42840854 0.85267982 14.61906536 0.00366407 -0.00645260 0.00430023
N 17.10803293 5.00383514 6.75669682 0.00491173 0.00218239 0.00590058
N 9.40051053 23.48077574 5.70289441 0.00005668 0.00232439 0.00051519
N 23.77452961 0.10377866 17.23755286 0.00316814 -0.00541281 -0.00009088
N 10.69546563 13.36463625 27.27039763 -0.00428349 -0.00284007 0.00456651
N 11.89740433 11.77796297 22.07847279 -0.00159547 0.00547906 0.00748995
N 10.89553451 2.44809688 1.89124356 0.00755114 -0.00768845 -0.00569141
N 7.86029930 15.71352991 27.37117911 -0.00401617 -0.00188631 -0.00453251
N 18.33130179 16.87998084 24.22665631 0.00499514 -0.01110396 -0.00301597
N 12.56516619 6.51978315 15.39075622 -0.00189422 -0.00082984 0.00984372
N 13.88558289 19.54228045 21.08560413 0.00184898 0.00161417 0.00284552
N 19.54532394 18.09659136 8.01208423 -0.00539151 -0.00923006 0.00308823
N 19.78250136 7.17067465 14.13467743 0.00474389 0.00298618 0.00774512
N 14.76559707 8.58123217 1.82968830 0.00415544 -0.00259410 0.00638728
N 22.74582504 7.47686127 6.89470692 0.00117082 -0.00733537 -0.00392183
N 20.01780319 25.26034151 10.70067337 0.00264917 0.00369166 0.00352276
N 1.79040974 10.30486656 6.86907260 0.00441541 0.00009268 -0.00001214
N 13.53773827 18.52813619 1.71408288 0.00117877 0.00089165 -0.00428769
N 21.74367866 3.31517172 0.07125127 -0.00305552 -0.00289163 0.00187380
N 0.46510638 6.58007061 12.41034397 -0.00769605 0.00464914 -0.00338748
N 11.06177139 19.90119025 29.36376735 0.00763624 0.00021467 0.00392657
N 18.77915774 25.43994699 16.27120272 0.00439443 -0.00136244 0.00174053
N 17.87735600 12.81748383 27.92873812 -0.00376261 -0.00178952 0.01037703
N 18.95680119 22.84023616 25.95346579 -0.00361473 0.00417972 -0.00282768
N 0.98380524 3.26651725 23.77179783 0.00602690 0.00454248 -0.00317206
N 14.41927402 0.69434738 24.68478113 -0.00330458 0.00094978 0.00399883
N 23.27891898 6.93339196 21.66447537 0.00074856 0.00540384 -0.00032788
N 18.78009622 25.20704401 4.89280381 0.00044687 0.00305660 -0.00223523
N 19.43022458 17.13440027 13.02358629 -0.00163141 0.00178481 0.00523228
N 10.92408799 24.47541338 31.04290268 0.00020711 0.00390933 -0.00257224
N 2.01573117 26.66066219 14.31508519 -0.00002813 -0.00241150 0.00023614
N 14.56993833 18.34320102 14.29702353 -0.00442195 -0.00015915 -0.00230650
N 17.98661903 17.46254310 3.35880288 -0.00433217 -0.00434215 -0.00089443
N 23.33951396 26.25347698 8.49937368 0.00443690 0.00136649 -0.00014848
N 16.69299056 22.80229269 0.88519936 0.00528469 0.00250139 0.00289471
N 6.95684515 23.48010356 20.65719253 -0.00785748 -0.00217078 -0.00641974
N 17.04886861 25.02863086 28.67451305 0.00538410 0.00514622 0.00358794
N 16.10924605 4.17486601 28.40272432 0.00195955 0.00154559 -0.00628130
N 23.70462709 14.61612150 5.94034439 -0.00185435 0.00211545 0.00502754
N 12.63265579 7.26526401 21.36800949 -0.00127383 -0.00230068 0.00113917
N 2.34140817 21.85944497 18.90409239 -0.00111413 -0.00464132 -0.00002447
N 23.63984121 19.60042702 28.01389798 -0.00341780 0.00704801 -0.00013743
N 18.27380252 9.46366219 19.61681674 0.00061778 -0.00348854 -0.00010911
C 6.34014380 25.68338850 11.45626449 -0.00757804 0.00461875 -0.00397684
C 5.30163242 2.75524043 8.05013960 0.00038456 0.00233982 -0.00055775
C 2.66890847 14.89139395 30.65426520 0.00476962 0.00519018 0.00521655
C 23.85914460 10.95261485 17.85657596 0.00202092 -0.00129795 -0.00372342
C 23.54239052 12.61433279 13.29428251 0.00306698 0.00257299 0.00290260
C 4.45174550 11.54671142 28.55708296 0.00295334 -0.00216398 -0.00132155
C 11.04760476 20.19422646 13.34808376 0.00004606 -0.00104800 -0.00450597
C 1.62330981 1.83449340 2.49831005 0.00196888 0.00218559 -0.00501525
C 5.44378532 25.03243451 12.30529974 -0.00302062 0.00324983 -0.00754027
C 5.32424724 2.08691687 9.28531901 -0.00352988 -0.00477712 0.00141704
C 3.16602684 16.16253291 31.02087321 0.00692519 0.00359703 -0.00090267
C 22.53011602 11.29365782 17.62805932 0.00149898 -0.00652389 0.00412862
C 23.14126409 12.13664414 12.09209690 0.00514958 0.00351008 -0.00639756
C 4.62615428 11.48311015 29.95909515 0.00069028 -0.00418659 -0.00095866
C 9.94504381 20.60880002 14.12322929 0.00063662 0.01240065 0.00088053
C 1.34047747 2.02961723 3.84377405 0.00348766 -0.00244606 0.00414384
C 4.82717349 23.84473831 11.96797862 -0.00358609 -0.00496041 0.00713112
C 4.07591978 1.83321669 9.95959796 0.00091578 -0.00514752 0.00165885
C 2.24913239 17.06967066 0.58783098 0.00413295 0.00273382 0.00199845
C 21.79729049 10.79571640 16.56205453 -0.00510948 -0.00125136 -0.00753830
C 24.02512395 11.75130942 11.05925557 -0.00827941 0.00156758 -0.00057434
C 3.69188201 10.81799545 30.73749694 -0.00235705 -0.00390902 0.00160220
C 8.65166976 20.15194956 13.82839767 0.00376692 0.00172294 0.00012257
C 0.82188503 3.26664915 4.27993806 0.00242334 -0.00863618 0.00229770
C 5.37454405 23.10448159 10.90421719 0.00085147 0.00164597 -0.00189806
C 2.87080204 2.03793911 9.26737198 0.00077835 0.01032116 0.01010274
C 1.05646172 16.51652830 1.02114072 0.00538772 -0.00372403 0.00105982
C 22.49594991 10.18517166 15.47505911 -0.00391664 0.00045911 -0.00520510
C 0.77440282 11.84662772 11.31742244 0.00416311 0.00196376 -0.00099775
C 2.63921663 10.10854625 30.09317099 -0.00629275 0.00499066 -0.00188304
C 8.47643036 19.41328351 12.60855230 0.00064163 -0.00594591 0.00575764
C 0.60869256 4.29372742 3.31363340 0.00195042 0.00272201 -0.00044581
C 6.37129863 23.68580521 10.10914398 -0.00652482 -0.00214860 -0.00103294
C 2.92421878 2.71236931 8.02726237 -0.00668920 0.00089853 0.00057219
C 0.58081154 15.32995176 0.53914244 0.00113543 0.00107264 -0.00408636
C 23.79499921 9.78275074 15.68827906 0.00206010 0.00694462 -0.00514233
C 1.29190541 12.46356569 12.48274681 0.00172584 0.00234269 0.00017989
C 2.47107001 10.27165280 28.74068802 0.00463359 -0.00030957 0.00300574
C 9.54927138 19.05336181 11.80514196 -0.00540396 -0.00166236 0.00587757
C 0.73678566 4.05840391 2.00258702 -0.00590117 0.00723792 -0.00183650
C 6.83745603 24.96522387 10.31876289 -0.00755551 0.00478018 -0.00048272
C 4.13559780 3.00252577 7.34381733 -0.00555996 0.00077084 -0.00311867
C 1.36926852 14.49864646 30.89835030 -0.00197979 -0.00369356 -0.00145135
C 24.52688496 10.18512236 16.91177183 -0.00509973 -0.00750189 -0.00131753
C 0.34617126 12.82995134 13.49476670 0.00193515 -0.00039157 0.00058489
C 3.38008237 10.99352957 27.91578443 -0.00235932 -0.00150823 -0.00125895
C 10.86285609 19.57653995 12.11381604 0.00102296 -0.00216618 0.00488699
C 1.30833711 2.86870509 1.59663448 0.00791558 -0.00383872 0.00134720
C 8.37646324 0.08489746 9.52734300 -0.00287209 0.00622607 -0.00411741
C 4.83119068 4.30422482 5.33998027 -0.00041614 -0.00239522 0.00367807
C 24.37019716 12.78879691 30.74982003 -0.00327062 -0.00808137 -0.00266148
C 2.01467557 9.98331965 18.09208395 -0.00332817 0.00052780 -0.00125485
C 0.15442546 13.75595869 15.72339881 -0.00375512 -0.00401160 0.00275011
C 4.07272307 11.47556928 25.70904303 -0.00525000 -0.00074597 0.00203251
C 12.09820647 18.37280511 10.37970025 -0.00047725 0.00432444 -0.00582375
C 1.31993008 3.33550318 30.39013983 -0.00224269 0.00317088 -0.00430675
C 3.46230347 15.50486624 26.94683464 -0.00235798 0.00499876 0.00015666
C 5.88602040 5.21638017 5.97215048 0.00200571 -0.00456618 -0.00495537
C 3.12706179 24.63339115 9.38352324 0.00200627 0.00325977 -0.00219934
C 9.31713544 5.31128312 27.41337090 -0.00294124 0.00480520 -0.00231939
C 5.50308226 2.46065222 1.89122458 -0.00017005 -0.00006353 -0.00083394
C 3.59181300 11.83852313 24.37306384 -0.00281491 0.00554363 -0.00003441
C 2.83766295 14.11299929 3.88422878 0.00076790 -0.00612989 0.00350994
C 5.21941577 4.98478563 14.49409846 -0.00568911 -0.00026970 0.00276922
C 7.71339304 0.69819709 15.07740750 -0.00031065 -0.00247825 -0.00057094
C 0.97105835 8.57676852 25.00577340 0.00104677 0.00534281 -0.00735603
C 24.13772393 12.49321457 21.96017005 0.00141631 0.00217035 0.00155396
C 12.84405136 4.77186804 24.71245280 -0.00301302 -0.00528542 -0.00220326
C 19.89301142 10.57145331 2.81223140 0.00324685 -0.00144490 -0.00347604
C 6.76920593 10.06509719 12.73345984 0.00424960 -0.00578633 -0.00560924
C 11.88067435 21.92635651 24.19480174 0.00517017 -0.00112249 -0.00034794
C 6.70793542 6.50574349 18.15256765 0.00303880 0.00003524 0.00662600
C 6.70877242 1.18409194 14.25337422 0.00181973 -0.00364038 0.00321485
C 2.15667040 8.02368435 24.72471271 0.00208803 0.00156284 0.00715533
C 0.43916406 13.29586432 21.34834079 0.00395979 0.00788868 0.00819023
C 13.75959762 4.83937920 23.67965902 -0.00334302 0.00538780 0.00321530
C 20.39703985 10.21058933 1.59370212 -0.00200829 -0.00009485 0.00387621
C 5.53226615 9.92459373 12.07757412 -0.00707611 -0.00027825 -0.00084120
C 12.43138877 22.99801790 24.92602391 -0.00706692 -0.00216903 -0.00163158
C 7.15829429 5.72406131 19.23291877 0.01088060 -0.00721122 0.00401318
C 7.05859595 1.92415195 13.12223759 0.00277795 0.00137866 -0.00035340
C 2.70247173 6.99018704 25.48755126 0.00257723 0.00086611 0.00750319
C 0.09563515 14.36594050 20.54072723 0.00306277 0.00798351 0.01256493
C 13.47222968 4.18243903 22.49521265 0.00499646 -0.00746537 -0.00282609
C 20.67679319 11.12828288 0.55099705 -0.00102946 0.00693805 0.00257627
C 4.38748706 10.33802926 12.84491772 0.00491116 -0.00048206 -0.00486689
C 11.75214421 23.49335996 26.05393184 0.00033071 0.00598816 -0.00394158
C 7.95335780 4.59074315 19.06798230 -0.00055044 -0.00012393 0.00490305
C 8.44365934 2.28575350 12.92656708 0.00313606 0.00411512 0.00329596
C 1.94799726 6.60702864 26.60352932 0.00413697 0.00151834 0.00486241
C 23.34650042 14.52396801 20.25849436 0.00143844 -0.00039449 -0.00820511
C 12.27700957 3.50812333 22.32869376 0.00580555 0.00058813 0.00318823
C 20.56169533 12.48767491 1.00222919 0.00021332 0.00186566 -0.00027048
C 4.48677905 10.80105565 14.14973254 -0.00211172 0.00558920 -0.00513344
C 10.57082838 22.93779512 26.50836280 0.00158127 -0.00923697 0.00362583
C 8.15196159 4.09738468 17.79446472 0.00271567 -0.00455176 -0.00006557
C 9.38277344 1.92471972 13.83923570 -0.00090168 0.00131828 0.00840129
C 0.66550906 6.99905425 26.72539155 -0.00204647 -0.00242856 0.00448433
C 22.37175906 13.78698496 20.94124056 -0.00062630 -0.00167808 0.00971258
C 11.32897697 3.58631430 23.34769429 0.00119714 -0.00245919 0.00479451
C 19.99287510 12.89766153 2.15982176 -0.00317862 -0.00251189 0.00322976
C 5.74190080 10.74023999 14.78213819 -0.00017954 -0.00403309 0.00783538
C 9.97958630 21.90651184 25.79177051 0.00115556 0.00749560 -0.00009555
C 7.67756296 4.73902909 16.65631120 0.00664769 -0.00021126 0.00186949
C 9.08496151 1.15034656 14.92704796 0.00457674 -0.00296209 -0.00513211
C 0.09153336 8.09094853 26.01970042 0.00105201 0.00413654 -0.00398215
C 22.69304119 12.72539195 21.77918034 0.00192359 0.00320565 0.00401529
C 11.57634200 4.13716937 24.62963068 -0.00250912 0.00522265 0.00277586
C 19.66937434 11.93917946 3.13418677 0.00302822 -0.00201488 -0.00854811
C 6.93961814 10.39359836 14.11663422 -0.00454953 0.00205028 0.00278913
C 10.60593930 21.45373133 24.63661053 0.00359991 -0.00799777 0.00242312
C 6.96495313 5.97046876 16.84254217 -0.00390754 -0.00308710 0.00731225
C 9.93280543 26.57488899 16.87134892 -0.00225817 0.00303425 0.00209185
C 22.63800683 8.25693150 27.25885566 -0.01031215 0.00443899 0.00032612
C 22.03683696 10.88360208 23.27005511 -0.00273883 0.00135988 -0.00229390
C 10.61438857 4.90979223 26.69240780 0.00164997 0.00418605 0.00393559
C 18.93323206 13.51887924 4.70904372 -0.00417785 -0.00261555 0.00160763
C 8.36522831 10.45721592 16.05884626 -0.00087794 -0.00483025 -0.00112619
C 10.61206576 19.67176254 22.89177694 0.00574062 -0.00400699 -0.00166762
C 5.77489702 6.37232345 14.66080376 -0.00392880 -0.01039308 0.00073458
C 13.08011327 24.12028931 13.75980125 -0.00499130 -0.00232439 -0.00128601
C 21.39436946 9.09404433 27.44989949 -0.00439231 -0.00301780 0.00613710
C 20.22992079 24.92753719 19.92221679 0.00027020 -0.00351248 -0.00418648
C 3.48458772 9.42395044 18.06148376 0.00165104 0.00054541 -0.00163641
C 2.42019019 5.17303471 17.34167294 0.01282169 0.00029936 -0.00499708
C 9.70221870 10.05588611 16.60583934 0.00082625 -0.00544163 0.00114319