1920
Time=70000.00000007 pbc="T T T" Lattice="25.25044934 0.00000000 0.00000000 0.00000000 26.58541803 0.00000000 0.00000000 0.00000000 30.78341225" energy=-12233.32914668 virial="-60.60876425 -19.34315131 0.28055442 -19.34315131 -58.45281288 -26.95930862 0.28055442 -26.95930862 -45.30549254" stress="-0.00062580 -0.00094659 0.00003417 -0.00094659 -0.00032422 -0.00116917 0.00003417 -0.00116917 0.00019411" Properties=species:S:1:pos:R:3:vel:R:3
O 4.50931691 23.17467208 12.45552687 -0.00532236 0.00515515 -0.00915059
O 4.77417221 1.30952189 11.27563450 0.00186332 -0.00392844 0.00340665
O 3.47205021 17.73146067 1.34105158 -0.00442827 -0.00006583 0.00130655
O 21.35614995 10.42492797 15.47439021 -0.00197928 0.00152409 0.00453752
O 24.38361572 11.26369700 9.78364904 0.00414795 -0.00079792 0.00561009
O 3.50603318 10.98904386 1.06655066 -0.00086138 -0.00661698 0.00579349
O 8.33108518 19.98382411 15.87145145 0.00635479 0.00166461 0.00412534
O 0.16186765 2.93240351 5.80667528 0.00044909 0.00123312 -0.01030029
O 9.66499059 26.39390359 16.95811556 0.00187031 -0.00222863 -0.00589808
O 4.86776622 3.84165130 4.43215148 -0.00870842 0.00422270 -0.00097726
O 0.07887695 12.19355008 0.46782869 -0.00106856 -0.00024933 0.00257357
O 12.56096753 5.35328301 27.16252085 -0.00107181 0.00007836 0.00437486
O 20.32286779 14.29873984 4.05429739 0.00531746 -0.00259144 -0.00566316
O 4.86280446 10.71673689 25.30340858 -0.00936162 -0.00146511 -0.00159515
O 10.99746702 18.26276334 10.26033438 -0.00173132 0.00202491 -0.00082434
O 5.47765081 7.62068713 13.72832187 -0.00261384 -0.00496852 -0.01073233
O 6.51679571 2.97010332 12.36270948 -0.00161336 0.00287182 0.00158104
O 3.82830050 6.50240981 25.51896790 -0.00538959 -0.00643623 0.00102386
O 0.31613682 14.79219591 20.03446524 0.00144189 -0.00390530 0.00612664
O 14.07616720 3.90016272 20.90834757 -0.00368774 0.00309836 -0.00037296
O 21.90094143 11.30975579 29.20921996 0.00059508 0.00071107 -0.00124526
O 3.35860977 10.55882646 12.12280946 0.00662541 0.00426521 0.00025603
O 12.46206927 25.22473751 26.72973651 -0.00037384 -0.00008488 -0.00151407
O 8.69656856 3.80770906 19.46258484 0.00014119 0.00481497 0.00706942
O 8.62383575 1.13172527 10.29202167 0.00184258 -0.00216091 0.00115242
O 23.29787184 6.90465876 27.49369004 -0.00373096 0.00345556 0.00210378
O 23.26551883 9.77857635 23.57353369 -0.00403076 -0.00567250 0.00205107
O 1.15782232 10.63095339 19.28717301 -0.00435007 -0.00090785 0.00306969
O 24.23295094 13.34477886 15.69507807 0.00427636 0.00122675 -0.00543939
O 7.32779904 10.21161982 17.10766860 0.00487770 0.00106134 0.00382832
O 12.66545628 20.00297239 23.36500869 -0.00217482 -0.00076044 0.00405902
O 1.12972048 4.32276096 30.64695002 -0.00794115 0.00090783 -0.00166153
O 16.65775212 20.36779238 8.40835591 -0.00569772 0.00084833 -0.00398324
O 4.77739729 20.37356874 8.38927345 0.00511741 -0.00116622 0.00429795
O 6.42796036 24.72186400 2.54269625 0.00017235 -0.00563379 0.00591740
O 5.79087444 18.61049051 15.57057406 -0.00336925 -0.00199873 0.00601300
O 5.03313642 24.05856722 18.55653153 -0.00220814 0.00563468 -0.00399567
O 2.84674629 25.56499730 30.08867811 0.00103560 -0.00433859 -0.00074657
O 7.84086427 19.79750980 4.68631662 -0.00056464 -0.00573588 -0.00201457
O 3.95066752 25.32066470 26.59905265 -0.00512734 0.00040223 -0.00222662
O 3.48414335 15.75849879 25.93378449 0.00140940 -0.00198141 -0.00146092
O 3.77835160 17.63362319 14.05968196 0.00068084 0.00639582 -0.00818737
O 4.04315723 22.69085579 7.95697108 -0.00250749 0.00071533 0.00365929
O 4.22508693 19.25331647 30.11067845 0.00083223 0.00151362 0.00537895
O 4.60605692 0.91395877 29.69268612 -0.00237298 0.00473210 0.00031229
O 2.23787984 23.82473493 5.35022019 -0.00041506 -0.00046882 -0.00074553
O 3.21144473 15.39132302 4.52068388 0.00317686 -0.00706691 -0.00005452
O 23.00338626 18.88545743 23.02773836 -0.00155177 0.00099396 0.00579049
O 23.18924020 14.82129031 28.71253560 0.00361119 -0.00037010 0.00469187
O 24.50930662 18.99051498 4.34874182 0.00000556 0.00394091 0.00015000
O 1.05027075 20.91119558 23.57346183 0.00403544 0.00370677 0.00502566
O 8.25871270 24.11117589 28.81716217 -0.00366790 0.01079307 -0.00535688
O 4.99533349 4.20454532 24.42272046 0.00490537 0.00024608 0.00084845
O 5.54764971 16.76500540 24.71880778 0.00270636 -0.00162620 -0.00198205
O 3.02098583 11.62015282 20.48772654 0.00181817 -0.00367689 0.00204628
O 19.16979374 19.44761409 27.84305820 0.00189973 0.00028728 0.00112323
O 14.20094899 21.92671941 14.09213377 0.00535679 0.00213765 -0.00179930
O 5.22071324 22.61714585 1.47535338 -0.00046479 0.00602062 -0.00500145
O 21.51962929 23.12820861 19.81132160 -0.00463989 0.00256978 -0.00171159
O 2.77778707 15.47619902 20.33707962 -0.00084090 0.00453751 -0.00563248
O 4.33207658 3.51709471 17.07706319 0.00403587 -0.00007776 -0.00303985
O 4.76347731 23.00149264 25.79230117 0.00417955 -0.00073336 0.00041360
O 7.44403687 15.85401466 21.22455841 -0.00322145 0.00070166 0.00305090
O 21.78109719 25.49990390 27.04653027 0.00200164 0.00040849 0.00369088
O 4.08167747 5.40841177 2.49415101 0.00292193 -0.00269804 0.00250946
O 7.81110132 7.30330858 12.45150761 0.00011939 0.00225850 -0.00249557
O 16.35619897 9.33103060 26.92160974 0.00459299 -0.00273575 0.00015193
O 10.57071835 9.50932826 13.07840746 -0.00365337 -0.00022354 -0.00116534
O 11.60830071 11.35606165 7.34706403 0.00149993 0.00854127 -0.00262430
O 13.75162869 9.77323134 6.70241243 0.00619726 -0.00417650 0.00303604
O 19.16844944 3.98626740 11.49965276 0.00613059 -0.00403086 -0.00016234
O 20.05797281 12.51424066 12.58846783 0.00066763 -0.00158790 -0.00255628
O 23.16100653 26.27733679 16.16477957 0.00664806 0.00385674 0.00295977
O 8.38364696 3.98767268 7.08669081 -0.00332210 -0.00322692 0.00122564
O 14.56998271 13.82694998 0.52414785 0.00442782 -0.00029142 0.00087134
O 2.67854864 8.51097323 2.02787296 0.00029325 0.00067137 -0.00020545
O 7.45891965 17.86929300 29.41027074 0.00562171 0.00601030 0.00055859
O 19.99360210 10.35999696 8.34326420 0.00207362 -0.00086625 0.00454461
O 16.47126860 2.03748760 6.03360942 -0.00277745 0.00239370 0.00116086
O 20.48802335 3.92340000 27.01599764 -0.00885639 -0.00428255 0.00484034
O 0.81815599 26.24095484 23.28346155 0.00096938 -0.00034531 -0.00212688
O 6.91278204 11.50237382 23.91298051 -0.00045340 0.00458110 0.00219271
O 7.99851490 10.84489658 19.49265593 -0.00205051 -0.00665210 -0.00167379
O 22.34051534 6.39512681 30.16888157 0.00265844 0.00473213 -0.00053861
O 7.23120710 11.62194456 30.41353162 -0.00317540 -0.00150352 -0.00089190
O 19.40276975 1.94837979 14.60130344 -0.00289710 -0.00280401 -0.00200395
O 13.38879531 2.16421071 18.95873005 0.00427752 0.00126480 0.00588673
O 18.15985857 8.19890177 0.43522260 0.00264227 -0.00335951 0.00659446
O 4.96869045 7.97808224 27.65436911 0.00243386 0.00138068 0.00363978
O 9.46512851 4.72593900 21.89865011 -0.00027870 -0.00214187 -0.00159513
O 12.86015392 14.33631168 22.05670413 0.00008435 0.00191908 -0.00421125
O 15.24811018 13.60526978 14.28883095 0.00082698 -0.00378639 -0.00013245
O 8.23345874 11.46203743 2.10792806 -0.00272382 -0.00672172 -0.00208038
O 20.09394355 5.42854070 21.27364482 -0.00021628 0.00655644 0.00346709
O 11.93510166 7.37756133 13.30411724 -0.00137673 0.00211628 -0.00189549
O 14.02079864 12.19413608 10.26425110 -0.00416416 0.00156059 -0.00158849
O 9.76986062 9.37475147 28.86748661 -0.00230306 0.00031945 0.00429460
O 3.24174672 13.49310634 6.24448249 -0.00214027 -0.00099370 0.00363118
O 12.72655751 6.08942203 3.88625333 -0.00130554 0.00005682 -0.00143289
O 24.58387419 18.39667214 10.77095381 0.00136017 0.00593709 0.00057532
O 12.22250629 25.25301240 8.43319203 -0.00325207 0.00076436 0.00571159
O 17.92220387 22.61063505 14.36757782 -0.00216287 0.00178914 -0.00005667
O 9.14248725 16.37233291 11.73205120 0.00139292 0.00062310 0.00515822
O 9.83740280 18.66017478 8.01761334 0.00342106 0.00117029 0.00324576
O 15.74111793 9.71401237 18.76739715 -0.00001562 0.00226628 -0.00053691
O 9.81347768 11.40157727 9.39963875 -0.00225809 -0.00159386 -0.00723048
O 15.64935628 7.87273166 9.39643703 -0.00395575 -0.00187304 -0.00452834
O 11.81384904 3.95563371 2.97157601 -0.00007746 -0.00485541 -0.00744455
O 7.51652376 1.16698684 26.00682398 -0.00355083 0.00650171 0.00181196
O 17.62492474 2.20845051 12.81195551 0.00495317 0.00023023 -0.00376756
O 8.93409585 14.79337550 4.61297973 -0.00664343 0.00071500 0.00336410
O 15.51352302 17.84025378 19.91455026 0.00205691 0.00216537 0.00054276
O 16.47193234 15.60977604 20.61412448 -0.00690522 -0.00229540 0.00035520
O 9.10463660 16.37642840 23.12927186 -0.00453841 0.00179629 -0.00203011
O 16.21938555 24.69946648 7.65256261 0.00280901 0.00342323 -0.00119801
O 7.93327676 0.13109654 28.42199472 0.00120797 0.00950337 0.00285321
O 10.32599555 25.11174607 19.37013221 0.00040485 0.00509632 0.00317514
O 20.46789631 18.68632283 19.15336499 0.00994375 0.00768771 0.00526585
O 11.80488943 15.98865386 17.46669046 0.00116592 0.00262402 -0.00479878
O 15.57406638 24.04468154 18.30178874 0.00091690 0.00460133 -0.00088883
O 11.90856491 13.12014580 2.88905641 -0.00181845 -0.00574707 -0.00323994
O 9.49680075 11.31112839 27.14925163 0.00133470 -0.00089795 0.00264964
O 12.81310786 1.93026877 11.27168647 -0.00508070 0.00607531 -0.00011472
O 21.17098495 16.85636935 17.36115855 -0.00343627 0.00494939 0.00328897
O 8.83117390 25.60934123 13.70502332 -0.00269230 0.00168097 0.00208165
O 17.56098526 18.19972648 24.82170345 0.00184861 -0.00250508 0.00526760
O 7.05825903 16.27080632 13.23658082 0.00257011 0.00528138 0.00061846
O 11.96281454 24.11452479 6.07973141 0.00323791 0.00380759 0.00050832
O 21.94683471 19.81355450 4.57071556 0.00597122 -0.00337169 0.00085446
O 24.70099081 5.69780876 17.39076481 0.00108456 0.00132892 -0.00779566
O 10.15766141 19.49185643 3.53096898 -0.00372678 -0.00322449 -0.00159126
O 17.79634823 6.24663705 4.00114790 -0.00141502 0.00221739 -0.00249982
O 12.75670745 14.40726012 11.10069699 -0.00588693 0.00155314 0.00275961
O 23.84439186 10.93716892 2.26822003 -0.00666582 -0.00124541 0.00497628
O 21.39508940 3.81837887 8.09850719 0.00482414 0.00270936 0.01242713
O 23.15007791 0.57617593 5.13168582 0.00320974 -0.00304006 -0.00282139
O 7.61559542 20.69513928 20.45385039 0.00092383 -0.00610096 0.00107173
O 20.90548223 8.55580045 13.59462461 -0.01146525 -0.00472241 -0.00011152
O 13.49637002 23.38591482 30.71318375 -0.00227247 -0.00376948 0.00278700
O 21.08822763 13.49636043 27.81122342 0.00052630 0.00485554 -0.00126717
O 11.67126367 7.56647503 21.57478667 0.00520507 0.00072966 -0.00114476
O 0.25504064 9.60421200 8.26271343 0.00141404 0.00080850 0.00063526
O 23.94065832 23.48035840 9.26697945 0.00448445 0.00122637 0.00532384
O 23.72417386 6.11915820 19.80852956 0.00570412 -0.00264294 -0.00003361
O 2.62903325 23.06269807 23.43204002 0.00080700 0.00276969 -0.00151275
O 15.73084910 19.88813248 25.53481308 0.00001986 -0.00550492 -0.00263289
O 18.82566342 6.27420087 23.23124705 0.00370353 0.00414158 -0.00141816
O 19.14550048 12.49264555 21.82417803 0.00700556 0.00186851 -0.00200779
O 16.51283473 10.13709208 24.49898078 -0.00468797 0.00807363 -0.00129898
O 5.54880975 4.50205066 19.31190915 0.00421685 0.00239655 -0.00067187
O 22.36355248 22.70409570 30.70404937 -0.00102611 0.00188495 0.00125246
O 21.77720951 2.96495400 24.96754875 0.00441950 -0.00246574 0.00643982
O 18.39463723 24.83099134 6.03935150 -0.00002862 0.00095022 -0.00018364
O 11.26877706 17.99860236 29.30100968 0.00895249 0.00032185 0.00151684
O 16.38678458 2.45174985 27.58328132 -0.00107299 0.00179594 0.00534715
O 23.64384968 4.77262882 6.10045553 -0.00162556 -0.00025051 0.00287141
O 12.94440587 17.87166856 16.05478364 -0.00488782 -0.00385999 0.00294047
O 1.92081565 1.88376017 23.95632467 0.00066388 0.00230063 0.00165799
O 1.08213501 20.32556416 26.08533179 -0.00172088 0.00466132 0.00229097
O 24.27188940 1.96962656 29.82750984 -0.00113315 0.00394761 -0.00311375
O 24.64967369 21.02488635 8.92909530 -0.00508250 -0.00331042 -0.00054466
O 18.34592566 19.29475885 17.42118827 -0.00570000 -0.00386776 -0.00294568
O 12.41195500 4.58932530 29.70618204 0.00067574 0.00365959 0.00284433
O 24.78058931 21.61110513 14.15224560 -0.00439194 -0.00616189 0.00349851
O 23.47995722 1.32407385 13.95310271 0.00090397 0.00455586 -0.00046599
O 23.58641554 16.28629365 0.08623345 -0.01188741 -0.00141001 0.00136066
O 17.66569809 17.23696274 28.61233823 -0.00140893 0.00026246 0.00306433
O 13.80728782 22.43301506 6.23252878 -0.00318693 -0.00035592 -0.00737851
O 1.26746945 9.20313677 11.67900313 -0.00462078 -0.00177958 0.00232839
O 19.69047725 14.85141232 13.35115811 -0.00047377 0.00101605 -0.00110997
O 16.52121959 7.89988931 2.54360959 0.00127462 -0.00437436 0.00045533
O 24.77318558 16.40026320 5.03978521 0.00403207 0.00884984 0.00240253
O 18.84161214 21.91454032 27.31576842 -0.00095574 0.00244725 -0.00465974
O 19.61916091 16.54985594 4.95960031 0.00798218 0.00000302 0.00112988
O 12.12494145 18.01538287 3.17684693 0.00193369 -0.00055800 -0.00479187
O 18.51486007 10.11752150 20.56867976 -0.00309419 0.00119815 0.00195230
O 21.00259507 7.99695798 8.75215187 -0.00198889 0.00476470 -0.00083624
O 20.67296983 0.36938163 1.87997078 0.00296711 0.00186104 -0.00137759
O 22.75602750 21.20986311 15.42531880 0.00209483 0.00809635 0.01258552
O 2.23838917 16.48260323 10.97079320 -0.00121814 -0.00265399 -0.00042281
O 15.79479780 23.70546413 22.16408754 -0.00063921 -0.00129954 -0.00558533
O 24.62746227 17.11118737 19.24102473 0.00439294 0.00370870 0.00049797
O 14.82523580 26.31400906 19.22334526 0.00266164 -0.00441770 0.00323840
O 17.38818612 13.80187004 15.66720089 0.00754976 -0.00484711 0.00259039
O 18.61934877 19.14215262 9.17291314 -0.00211911 0.00421664 -0.00033830
O 15.56625880 24.75381193 29.94558644 0.00243319 -0.00092317 0.00363806
O 17.94888642 24.64973280 18.01238273 -0.00008258 -0.00337564 -0.00534769
O 2.99499257 0.13787397 12.65387171 0.00385769 0.00231951 0.00951451
O 19.16790396 25.91398363 9.67842843 0.00027470 -0.00339949 0.00320993
O 3.82233029 21.74299396 18.55332333 0.00374139 -0.00725265 0.00110908
O 12.33171371 0.54376307 25.01351525 -0.00299147 -0.00299635 -0.00607914
O 18.08525663 20.80130553 1.95072271 0.00590518 0.00215113 -0.00229907
N 14.14966548 23.35380131 12.34905703 0.00520859 -0.00065594 0.00431845
N 3.92827505 4.04047421 6.50962478 -0.00576595 -0.00465437 -0.00703953
N 4.45692049 24.95283488 7.65680913 -0.00397628 -0.00918814 -0.00121055
N 1.44438629 9.79158384 17.15895940 -0.00330001 -0.00331232 -0.00310692
N 2.83577086 2.47994905 18.52959009 -0.00036836 -0.00076514 -0.00193676
N 2.82276285 10.13482707 26.20957895 -0.00119555 -0.00358246 -0.00073199
N 4.77277517 15.43821990 2.86983674 0.00125344 0.00420676 -0.00119055
N 2.45703254 2.59908287 0.66102674 0.00244009 0.00598564 -0.00004801
N 2.01177809 14.32709518 24.92489334 0.00262010 -0.00588827 0.00225276
N 23.84743343 8.20283186 25.70598466 0.00729258 0.00056027 -0.00466729
N 21.22715490 22.68629883 21.99398935 0.00087136 -0.00196172 0.00022338
N 11.12984437 4.40099822 25.65223940 0.00462155 -0.00176603 0.00117009
N 6.15453913 2.61933116 29.64931221 0.00555916 -0.00108092 -0.00064043
N 8.01714172 9.90390511 14.90191856 0.00394472 -0.00154337 -0.00334648
N 6.82145697 15.28214404 19.09479351 0.00632504 0.00286960 -0.00387487
N 6.16030756 7.26227485 15.91782905 0.00246764 0.00958692 0.00243659
N 8.22549443 25.83999142 9.15562338 -0.00366752 -0.00022693 0.00160483
N 2.27002559 19.15744638 13.18000213 -0.00308448 0.00273218 -0.00258040
N 1.44292903 13.09623122 29.60941073 -0.00469844 -0.00309264 0.00080580
N 4.41310928 17.11550951 20.75479873 -0.00083765 0.00358372 0.00356392
N 0.96489342 13.53013960 14.62580586 -0.00519394 -0.00424380 -0.00025597
N 0.87946540 22.92251663 3.75574156 0.00324416 -0.00066817 0.00386272
N 11.86437631 19.88098112 11.56497320 -0.00484510 0.00236027 0.00320302
N 23.85909271 26.29085497 27.47778680 -0.00372879 0.00006839 0.00380713
N 10.75650345 1.28446408 15.56248853 0.00457300 0.00357231 0.00778225
N 3.24236252 21.57970939 1.45546118 -0.00354859 0.00156500 0.00717094
N 22.02430839 11.10757158 22.13822393 0.00574517 -0.00334855 -0.00123814
N 3.48631551 21.17179108 29.03721778 -0.00064825 -0.00142509 -0.00171723
N 19.86279448 12.05732101 3.48727762 -0.00160912 0.00337620 -0.00402654
N 6.25039936 22.16570277 24.14194140 -0.00229521 0.00606425 -0.00247641
N 10.64615021 20.72445384 23.91717362 -0.00590063 0.00513926 0.00393525
N 22.41110079 17.01442823 24.06625014 -0.00000701 -0.01110699 0.00120338
N 11.73535943 10.81485318 3.15750361 -0.00251441 -0.00272589 -0.00258184
N 10.05315735 5.42141888 7.57225965 -0.00188067 0.00582757 0.00385180
N 14.91271002 5.76987926 9.01245153 0.00184359 -0.00451919 -0.00036174
N 13.06631748 14.21875544 14.54146817 -0.00624941 0.00660411 -0.00951230
N 8.67127387 23.82176840 12.34803007 -0.00166481 0.00046882 -0.00567808
N 18.43786481 12.10091075 8.30727731 0.00817652 0.00145032 -0.00735102
N 8.20660955 16.25910996 6.20797041 0.00156098 0.00572061 -0.00147854
N 15.48693821 10.52520819 10.34608023 0.00257595 -0.00592934 -0.00225283
N 13.95190328 11.08501447 18.40311835 0.00750897 -0.00398130 -0.00354767
N 9.28742575 6.67385287 22.97620794 -0.00936346 -0.00824891 0.00266662
N 13.02997618 2.48946866 9.05565213 0.00346494 -0.00377569 -0.00256155
N 0.82610851 7.92378339 3.27354048 -0.00100848 0.00570484 0.00445006
N 7.78576226 0.60500105 23.85158741 -0.00232509 0.00654057 0.00535947
N 20.55437857 4.28667454 19.42840394 -0.00013317 -0.00813188 -0.00690481
N 7.21034697 14.45320641 14.51263255 0.00194743 0.00468479 0.00617282
N 19.43149989 3.30909508 28.96501759 0.00362032 0.00289201 0.00163549
N 6.72417466 7.92511344 29.08169924 -0.00327586 -0.00004491 -0.00128630
N 7.78844510 12.43098951 9.27950560 -0.00466936 -0.00143588 -0.00070324
N 16.63767687 12.70298475 0.59750449 -0.00220597 -0.00308714 0.00610331
N 21.62005122 17.68225569 15.37638206 -0.00386060 0.01248935 0.00230946
N 8.13901080 9.51659273 3.43657433 0.00063993 0.00444367 0.00178342
N 15.81019372 1.14822798 13.65684763 -0.00568015 0.00022610 -0.00710660
N 17.13818291 4.25192552 6.37682939 -0.00135687 0.00207804 -0.00707608
N 9.73363952 23.70138130 5.57613121 0.00459760 0.00572580 -0.00283663
N 23.63123185 25.87379280 18.35914690 -0.00323969 0.00013185 0.00057500
N 11.16673262 12.81121843 26.75871078 0.00054173 -0.00006231 0.00213246
N 12.76331677 12.04460687 21.84674527 0.00109046 -0.00549243 -0.00615512
N 10.38323522 2.66892131 1.91476148 -0.00502976 -0.00613891 0.00461539
N 7.60173475 16.42124609 27.67033777 0.00262189 0.00388073 0.00024103
N 17.71603240 16.38178000 23.48462705 0.00038169 -0.00750415 -0.00235071
N 12.60758525 6.06122116 15.00891066 0.00268767 0.00052872 -0.00717851
N 14.06735001 19.32314006 20.92490397 -0.00543416 -0.00082239 -0.00171575
N 20.20038249 17.98081057 7.96144897 -0.00323823 -0.00462480 -0.00165756
N 21.04804455 6.31339042 13.23102830 0.00191419 0.00275733 0.00196341
N 15.01353142 8.94027608 1.28792690 0.00262013 0.00027117 -0.00565200
N 22.79636375 6.78178962 6.41274592 0.00390896 -0.00112844 0.00236793
N 20.95236435 24.71381970 10.27174900 -0.00008212 0.00362488 -0.00498579
N 1.65243360 10.56356830 6.75540195 0.00384656 0.00093459 0.00104207
N 13.80674281 18.08256431 1.70436813 -0.00504498 0.00653485 -0.00162612
N 22.69657759 3.18215992 0.24388236 0.00079430 0.00730721 0.00123155
N 0.31502670 7.05594183 11.79287998 -0.00032770 -0.00226672 0.00958457
N 11.73945466 20.16840260 29.24782469 -0.00191605 0.00342934 -0.00596269
N 19.35033673 25.48869478 16.38644756 0.00104363 -0.00111988 -0.00433822
N 18.90914580 12.94473541 27.30940211 0.00033748 -0.00531325 -0.00157827
N 19.81959464 23.57625781 26.07987502 -0.00005938 0.00320787 -0.00237339
N 1.48262023 3.94097916 23.20487624 -0.00114970 -0.00118329 -0.00038736
N 14.03504740 1.77814696 24.30087366 -0.00116309 -0.00152377 -0.00006415
N 23.54478721 7.13116820 21.85063485 0.00403031 0.00596929 -0.00442679
N 20.09887310 24.93715345 4.48098985 0.00077042 -0.00792629 -0.00359069
N 19.42434664 17.00285548 12.59363961 -0.00164159 0.00060485 -0.00620229
N 11.22920414 23.83797329 0.28520187 0.00292699 0.00922364 0.00151998
N 2.22745801 26.45310450 14.90244759 -0.00497555 -0.00129093 0.00609247
N 14.48956236 18.37512166 14.48345132 -0.01085513 0.00653534 0.00019786
N 18.99873315 17.52151152 2.96102847 0.00618709 0.00036662 0.00490995
N 23.88226368 25.53252725 8.44131307 0.00781935 -0.00969662 -0.00158867
N 17.27620092 22.97252847 1.93486358 0.00925206 0.00083168 -0.00382199
N 7.21699726 22.85274560 20.24921544 0.00194901 -0.00342597 0.00016027
N 17.34558397 25.02501996 28.54490339 -0.00008965 -0.00342366 -0.00238188
N 16.37763769 4.69918228 27.85805817 0.00058328 -0.00390537 -0.00335952
N 24.88790453 14.60144760 6.40687013 -0.00145141 0.00136542 -0.00325197
N 13.82075848 7.06790689 20.92105925 -0.00641073 0.00582628 0.00053733
N 2.27178886 21.33785145 16.95136089 0.00417694 0.00082784 -0.00061548
N 24.79802876 19.11244995 27.26204991 0.00239704 0.00088657 -0.00257252
N 18.93551992 9.25413916 18.46229212 0.00087311 0.00033497 -0.00522833
C 6.78758660 25.79352020 11.20461446 0.00747769 -0.00046049 -0.00743802
C 5.48841493 2.98828782 8.04963839 0.00136108 0.00417951 -0.00327914
C 3.11372508 14.86040659 29.73551822 0.00229443 0.00342250 -0.00410627
C 24.31993217 10.50484476 17.55075512 0.00438619 -0.00010131 -0.00285870
C 24.37425489 12.63466768 13.22712416 -0.00516685 0.00373693 0.00271957
C 4.01567212 11.19056109 28.14942453 0.00195465 -0.00394646 -0.00341996
C 11.10094670 20.77041828 13.65728274 0.00411009 0.00010024 0.00164554
C 1.98275653 1.65485872 2.96690281 -0.00250925 -0.00132392 0.00033837
C 5.80246130 25.16587079 11.89182014 -0.00017392 -0.00892618 -0.00169706
C 5.67599372 2.34104001 9.22610775 0.00171327 -0.00410090 -0.01100107
C 3.59303409 15.98966300 30.39587337 -0.00089248 0.00536117 0.00545274
C 23.05657962 10.70878276 17.08314036 0.00236854 -0.00188572 -0.00404824
C 23.85741933 12.07951100 12.03377047 -0.00153903 -0.00056722 0.00470833
C 4.21016337 11.36341250 29.49192128 -0.00249479 -0.00135518 0.00224449
C 10.26286533 21.00541537 14.66813639 0.00358172 0.00462890 0.00232780
C 1.50404982 1.76333109 4.21196788 0.00112116 0.00284671 -0.00484718
C 5.39183277 23.86006867 11.64740163 -0.01008445 0.01136440 -0.00533077
C 4.55637599 1.89793180 9.99907674 0.00287298 0.00633708 0.00236110
C 2.98652543 16.55226056 0.76586615 0.00423587 0.00376569 -0.00124073
C 22.63621262 10.19918968 15.82648916 -0.00143171 0.00688225 0.00168239
C 24.74635846 11.85060961 10.96082917 0.00065447 0.00358942 -0.00447591
C 3.35449834 10.80746232 30.47833689 -0.00770972 -0.00393020 -0.00295250
C 9.10053628 20.17535562 14.72354255 0.00322046 0.00445548 -0.00215392
C 0.80799413 2.89918326 4.66682818 0.00026626 0.00154270 0.00316909
C 5.92452592 23.31400636 10.46146330 0.00625979 -0.00364907 0.01045728
C 3.23982030 1.95120453 9.57331835 0.00077557 0.00227284 0.00443786
C 1.77480987 15.93882788 1.21485405 -0.00513918 -0.00116656 -0.00087378
C 23.61803781 9.54048042 15.08672890 -0.00373455 -0.00341739 0.00349603
C 0.74741599 12.33879041 11.14438006 -0.00562484 0.00062857 0.00011008
C 2.25600890 10.07765684 29.94234763 0.00476339 0.00535696 -0.00072533
C 8.69191073 19.45957959 13.60544811 -0.00449765 -0.00653756 0.00507695
C 0.79656069 4.00478901 3.71840749 0.00391951 0.00240773 -0.00004336
C 6.84105531 23.97369936 9.64870435 0.00143261 -0.00464238 -0.00955735
C 3.12220700 2.72281164 8.37536457 -0.00034394 -0.01073748 -0.00396038
C 1.26749660 14.85353118 0.55607398 -0.00480895 -0.00372067 -0.00182262
C 24.84377757 9.19036672 15.62678474 -0.00324898 0.00099496 0.00443068
C 1.26210683 12.94291607 12.27801110 -0.00041371 0.00370084 -0.00032893
C 2.20714192 9.77740184 28.55556535 -0.00150048 -0.00558413 -0.00422318
C 9.57566411 19.38340391 12.50433946 -0.00082891 -0.00345877 -0.00637081
C 1.41052158 3.96103586 2.54534415 0.00042597 -0.00541621 -0.00568665
C 7.28021961 25.22383502 10.00841440 -0.00183313 0.00835743 0.00247798
C 4.18312974 3.29927070 7.63932910 0.00048587 -0.00256344 -0.00759286
C 1.94985076 14.20446296 30.30286707 0.00037633 -0.00269717 -0.00196176
C 0.03345273 9.79674183 16.75579387 0.00122873 -0.00439181 -0.00879399
C 0.43506943 13.03900967 13.41067688 -0.00429602 -0.00122436 -0.00237960
C 2.99616530 10.37720103 27.63532588 -0.00172528 -0.00651837 0.00031269
C 10.82442113 19.99652342 12.56681291 0.00309084 -0.00068731 0.00100833
C 1.94768324 2.81154722 2.00894185 -0.00941902 0.00232117 0.00154780
C 8.56111845 0.54019653 9.22517865 -0.00284010 0.00117181 0.00549556
C 4.87475102 4.28392974 5.63673072 -0.00575131 0.00400830 -0.00438477
C 0.39749994 12.36604106 30.04918548 -0.00041595 -0.00020968 -0.01238991
C 1.83751556 10.01419174 18.46038994 0.00248835 -0.00477411 0.00224978
C 0.16864935 13.66497538 15.73404439 0.00106385 0.00149105 0.00107359
C 3.60982686 10.54051710 25.20140962 0.00666641 0.00288656 0.00103114
C 11.83517566 19.11327008 10.46218081 0.00156458 0.00784199 0.00173331
C 2.05741740 3.53281201 30.51224979 -0.00565553 -0.00686828 -0.00330538
C 4.37590549 14.00970719 24.56826279 -0.00217394 0.00212131 0.00037506
C 5.90930147 5.30455811 5.90799828 -0.00397364 -0.00733404 -0.00087272
C 2.75716773 24.24850394 9.19979558 -0.00316752 0.00268832 0.00444690
C 10.29645742 6.12889214 27.30028914 -0.00703458 -0.00203386 0.00650354
C 5.58267470 1.60564021 0.98958535 0.00130129 -0.00346135 0.00565880
C 3.10667506 10.42340345 23.76749431 -0.00767217 0.00180515 -0.00015053
C 3.38908673 13.45948271 3.21297895 0.00005799 0.00700038 -0.00063255
C 4.82789506 5.54081976 14.59305635 -0.00839155 0.00514293 -0.00513037
C 8.36680738 1.47564431 15.10543382 -0.00568171 0.00107691 0.00417842
C 0.77987410 8.17014665 24.61356877 0.00146480 -0.01280243 -0.00684101
C 24.33199540 11.83368295 21.82876513 0.00437905 0.00345532 -0.00093171
C 13.18272357 4.90776511 24.36575239 -0.00287100 -0.00289173 0.00007175
C 20.49192256 10.66907068 1.66308077 -0.00819900 -0.00675609 -0.00512625
C 6.82729192 10.27160701 12.92448851 0.00235645 0.00159987 0.01106460
C 12.44240801 22.41384019 24.37727638 -0.00076054 0.00673012 0.00063222
C 7.14585675 6.76221885 18.12071457 0.00291899 0.00279050 0.00505876
C 7.38271609 1.94413729 14.27593871 -0.00354905 -0.00049969 0.00470037
C 2.04857745 7.61098865 24.48293570 0.00750513 -0.00425137 -0.00261468
C 25.20338458 12.77652282 21.30088011 0.00095882 0.00188315 -0.00452305
C 13.90665149 4.81444861 23.21179454 -0.00060096 0.00037190 0.00622575
C 21.07787130 10.40316140 0.47649409 0.00279780 0.00310098 -0.00179406
C 5.68182598 10.33572149 12.15679062 0.00114385 0.00005675 0.00086492
C 12.81748735 23.58433681 24.94319189 -0.00315480 0.00037727 -0.00446619
C 8.00201673 6.05047124 18.87217460 -0.00545099 0.00134710 0.00553264
C 7.57453928 2.56304629 13.06382095 0.00891145 -0.00327481 -0.00568370
C 2.50548640 6.88186211 25.50934920 -0.00501480 -0.00497714 0.00445775
C 24.74312481 13.94206147 20.62235680 0.00178726 -0.00177652 0.00473342
C 13.37690074 4.06428921 22.15394972 -0.00404590 0.00205384 -0.00309223
C 21.63121631 11.41478159 30.54063933 0.00219843 -0.00176279 -0.00524847
C 4.40367887 10.48553893 12.78847255 -0.00049083 -0.00724287 -0.00016175
C 12.16440673 24.09351769 26.06810400 -0.00374961 -0.00483704 -0.00256498
C 8.22002543 4.68147986 18.56460560 -0.00285970 -0.00420540 0.00374958
C 8.93481752 2.94695264 12.74761048 0.00420540 0.00694883 -0.00355172
C 1.71825813 6.26536077 26.47510841 0.00437159 -0.00730752 0.00119888
C 23.33440131 14.06426408 20.51149954 -0.00230540 -0.00593592 -0.00501053
C 12.11850714 3.44153608 22.29200223 0.00405107 -0.00327855 0.00337233
C 21.71980050 12.70853501 0.33749607 0.00408856 -0.00323730 0.00118526
C 4.40958201 10.63805509 14.21058718 -0.00072793 -0.00110222 0.00629612
C 11.07710266 23.33781080 26.54909078 -0.00254111 0.00048960 0.00328795
C 7.78595558 4.21848090 17.31452335 0.00474453 0.01028544 -0.00138772
C 9.92608583 2.50138699 13.53456145 -0.00037939 -0.00286825 0.00036579
C 0.35793586 6.54648820 26.39346855 0.00481941 0.00314153 -0.00122823
C 22.46880117 13.09546689 20.91029551 -0.01112294 -0.00357870 -0.00549999
C 11.43715427 3.54239528 23.51107566 -0.00377054 0.00877989 -0.00300574
C 21.22358734 12.96833293 1.59765412 -0.00290690 0.00951981 -0.00417869
C 5.57679569 10.44678314 14.95295037 -0.00063737 0.00400448 -0.00275478
C 10.56564334 22.26975417 25.84736483 -0.00082236 -0.00865234 0.00430821
C 7.17600957 5.04291298 16.42655885 -0.00549324 0.00302344 -0.00171663
C 9.68379961 1.71574077 14.72165306 0.01145169 -0.00013989 0.00672839
C 25.13445640 7.61364888 25.59807611 0.00629003 -0.00548749 0.00112639
C 22.93280772 12.00152251 21.70804871 0.00462014 0.00290794 -0.00116770
C 11.97086576 4.22643956 24.56154250 0.00696860 0.00154021 -0.00969807
C 20.53084134 11.89259145 2.28993213 -0.00332851 -0.00275486 -0.00694039
C 6.85301615 10.22849027 14.31986872 0.00321967 -0.00329278 -0.00666291
C 11.23564979 21.76439922 24.73847991 -0.00733117 -0.00288967 0.00069099
C 6.85230753 6.38449739 16.80615004 0.00534552 -0.00145821 -0.00156303
C 10.72536384 0.34857039 16.51058554 0.00229418 0.00186043 0.00515764
C 23.14090356 7.94052917 26.84628888 -0.00143216 -0.00199709 -0.00780070
C 22.17452401 10.18281438 23.14987687 -0.00284454 0.00391894 0.00306684
C 11.41925526 5.26780569 26.64295002 0.00207532 0.00391187 -0.00588403
C 19.61762360 13.21114255 4.15563473 -0.00114173 0.00106172 -0.00766708
C 8.21603154 9.89490736 16.32067161 -0.00622674 0.00060632 0.00041723
C 11.45723471 19.96028168 23.20889780 0.00251951 -0.00862900 -0.00023800
C 5.54578094 6.85221982 14.73834045 -0.00121153 -0.00622848 -0.00840218
C 12.98414520 23.88707207 14.44516514 -0.00489281 -0.00173230 0.00555392
C 22.11946083 9.07956979 27.22798409 0.00554892 0.00412230 -0.00428856
C 19.29503427 23.07897966 20.58870758 0.00306503 0.00099527 0.00092617
C 3.18153699 9.43382240 18.75793309 0.00326507 -0.00203442 -0.00321353
C 2.47424985 4.81738522 17.94754099 -0.00065077 -0.00305233 -0.00176044
C 9.48395909 9.47643191 16.89425650 -0.00325459 0.00093335 0.00744466