1920
Time=5000.00000000 pbc="T T T" Lattice="24.95126635 0.00000000 0.00000000 0.00000000 26.54718171 0.00000000 0.00000000 0.00000000 30.88231984" energy=-12234.00109500 virial="-50.19089642 -22.46282132 -5.33845910 -22.46282132 -87.58281732 21.34768338 -5.33845910 21.34768338 -16.33471512" stress="0.00000191 -0.00114546 -0.00017664 -0.00114546 -0.00181200 0.00104656 -0.00017664 0.00104656 0.00148312" Properties=species:S:1:pos:R:3:vel:R:3
O 4.10645738 22.35366514 12.42088897 -0.00836190 -0.01037017 -0.00308033
O 4.63189872 0.82309245 10.90910310 -0.00722945 -0.00202355 -0.00596194
O 4.35736237 17.11215336 0.47884269 0.00548110 -0.00410278 0.00147138
O 21.98852212 9.64242305 16.69196852 -0.00554336 -0.00234995 -0.00773534
O 23.86523207 11.24972391 10.53128364 0.00120786 0.00274602 -0.00124419
O 4.45056226 10.33629087 1.12372870 0.00456492 0.00245060 -0.00209426
O 7.64432072 19.88061575 14.37521116 0.00306745 -0.00078844 0.00205888
O 0.72685357 3.71732871 6.70407288 -0.00232195 -0.00510919 0.00192801
O 9.32510271 26.42359972 16.97041763 0.00215373 0.00607429 -0.00657317
O 3.85382213 4.57562478 4.81761738 0.00030796 -0.00203889 -0.00135901
O 24.23925748 13.38917247 0.85225655 -0.00413088 -0.00513516 -0.00137913
O 12.48128841 5.19735805 27.41418056 0.00247621 0.00199528 -0.00708418
O 19.85852091 14.86636797 3.90599427 -0.00146115 0.00040296 -0.00498819
O 5.12743423 11.65204467 25.70635049 -0.00183021 0.00131738 0.00605438
O 10.72445456 17.04686174 9.39150109 0.00110940 -0.00060631 -0.00341331
O 5.21983107 6.91767102 13.63114746 -0.00229020 0.00030374 -0.00355047
O 7.02910617 2.84267847 11.63572879 0.00377645 -0.00502137 0.00457663
O 3.91097516 6.46257198 25.54019825 0.00687085 0.00533256 0.00560318
O 1.21155163 15.65333541 20.93521021 0.00305892 0.00409831 0.00071663
O 13.69497111 4.45489827 21.21451026 0.00041411 0.00234528 0.00159606
O 20.11291675 11.72015967 29.29446885 0.00023878 0.00134090 0.00308888
O 2.82290388 10.67211319 13.19664626 0.00066018 0.00476761 -0.00049490
O 12.41731588 25.76290139 26.63064741 -0.00284553 -0.00166376 0.00198761
O 8.49024547 3.68143573 19.62444319 0.00317135 -0.00159614 -0.00109709
O 8.14139266 0.23908076 10.15978289 -0.00235011 0.00447492 -0.00158614
O 22.98664456 7.29629484 27.73282629 0.00674452 -0.00666010 -0.00665988
O 23.79810648 10.95362547 24.35411387 -0.00530524 -0.00630989 0.00472441
O 2.95538567 10.88006593 18.95914511 0.00773314 0.00620101 -0.00823617
O 24.20196541 12.93718590 16.54333506 -0.00284160 0.00629236 -0.00177475
O 7.84893414 10.39285683 16.98197685 -0.00550957 -0.00156774 0.00789148
O 10.18479879 22.27867916 21.84048968 -0.00206360 0.00444461 -0.00452982
O 0.60552359 4.04013854 0.31370040 -0.00213309 0.00568682 0.00128825
O 16.34921656 19.30503853 8.53823643 0.00035082 0.00064888 0.00055712
O 3.85496603 20.06869913 7.69224671 -0.00516769 0.00297523 -0.00256771
O 7.00691656 23.92074744 2.19384002 -0.00752949 -0.00479384 0.00223139
O 5.69339879 18.09692083 14.96762837 0.00175272 0.00192289 0.00169774
O 5.21044549 24.04955465 17.16752347 -0.00126980 -0.00881982 -0.00147956
O 3.01833279 26.20474193 30.03313155 -0.00021927 -0.00481315 0.00368650
O 7.84368020 19.86414969 3.77775169 -0.00896482 -0.00131358 0.00712200
O 3.84135536 25.47528526 24.93268355 0.00865009 0.00248667 0.00637227
O 2.64220220 16.11307113 26.66682916 0.00357514 0.00556411 -0.00346043
O 3.57898586 17.47244185 13.41082701 0.00545384 -0.00079620 -0.00645451
O 3.41133045 22.38103785 7.02039132 0.00271175 0.00185486 -0.00082465
O 5.07310430 19.02244281 29.91144056 -0.00442723 0.00182177 -0.00043614
O 4.79611414 1.22081374 0.22460889 -0.00398163 0.00559169 0.00238088
O 1.18174288 24.60600553 4.71648024 0.00371499 -0.00454195 0.01137799
O 3.33337012 15.29566156 3.72179436 0.00072956 0.00116456 -0.00948236
O 20.25625830 19.72512641 21.37619126 -0.00262358 -0.00595906 -0.00055810
O 21.50676659 15.33955267 27.77930069 -0.00318463 -0.00622826 0.00472552
O 24.32780247 18.43436511 2.34426455 -0.00503038 0.00726272 -0.00087034
O 0.34904721 21.26352127 21.53385849 0.00280285 0.00352353 -0.00288706
O 8.17986640 24.56864867 29.36273706 -0.00152346 0.00572871 -0.00259853
O 5.00695227 3.90867948 25.22178126 0.00618503 0.00416678 0.00011278
O 4.32771225 17.33260979 24.99608178 0.00091818 0.00260270 0.00473995
O 3.93202261 11.96420285 21.20520997 0.00217863 0.00529353 -0.00312222
O 18.50664843 19.83854913 27.42545857 0.00119788 0.00077339 0.00287242
O 14.36920361 21.14097788 14.13773820 0.00433207 -0.00349208 -0.00573423
O 5.60591883 22.56308779 0.55397229 -0.00360320 0.00164521 0.00103382
O 20.29590777 24.68341910 19.22807045 -0.00596375 0.00603476 -0.00174285
O 3.62287207 15.65316098 20.26826551 -0.00787548 -0.00138981 -0.00426006
O 4.94868464 3.91447178 18.40758629 -0.00034211 -0.00236150 0.00226616
O 5.24268092 23.54217080 23.87110996 0.00050136 0.00007633 -0.00250648
O 8.23642668 16.59514472 21.37774177 -0.00449154 -0.00106528 0.00134272
O 21.46643420 25.60420348 26.93496428 -0.00701872 0.00093437 -0.00193712
O 3.32653674 6.06239668 2.90743661 0.00192923 -0.00169195 -0.00553193
O 7.35482329 7.39207970 12.55221277 0.00094424 -0.00556508 -0.00325308
O 14.43417409 10.40072191 27.21706280 0.00699392 0.00094209 -0.00101882
O 10.52328989 9.47855993 12.99927609 -0.00257733 0.00079258 -0.00043846
O 10.87247224 10.86828920 8.48735043 0.00289119 0.00029859 0.00537050
O 13.24663519 9.99465728 7.47877236 -0.00604327 0.00314080 0.00521146
O 17.88533478 3.92284841 11.99572260 -0.00603827 -0.00196313 0.00135582
O 20.20660502 11.95110635 12.98000554 0.00208471 0.00149190 0.00030557
O 21.90436096 2.75729782 16.65867652 -0.00755513 -0.00255616 0.00518783
O 8.15916222 3.94952697 7.46505582 0.00037780 0.00442365 -0.00463523
O 16.18450756 14.81739474 0.45533396 -0.00112897 -0.00170349 -0.00331529
O 2.29687904 9.49721017 2.52718624 -0.00068721 0.00380622 0.00505461
O 9.27304570 16.16331543 29.70423525 -0.00000055 -0.00434530 -0.00242972
O 19.64969627 9.95851163 8.69401788 -0.00186179 -0.00004455 -0.00378223
O 18.36136872 2.45574999 6.18742889 0.00027771 0.00488877 -0.00363781
O 20.04474720 3.96231077 26.98706849 -0.00540260 0.00407589 -0.00200427
O 1.19867590 0.65951005 22.24756565 0.00753893 -0.00333420 0.00344475
O 7.52930303 11.86119874 24.45469118 -0.00705261 0.00158984 0.00302480
O 8.34421653 10.21815019 19.48283531 0.00027995 0.00190739 -0.00183884
O 22.11761964 7.73000615 29.95681388 0.00105329 -0.00042692 0.00925134
O 9.66118604 9.90866674 29.86821422 -0.00244012 -0.00037275 0.00130156
O 18.57807418 0.62115950 15.35254359 0.00527719 0.00193971 0.00297042
O 12.86900508 2.20979928 19.39968254 -0.00424528 -0.00591189 -0.00150754
O 18.60501970 8.19688438 0.62879275 0.00009432 0.00334994 -0.00661462
O 4.84989734 6.75550732 27.85213902 0.00028018 -0.00562030 -0.00027707
O 8.42575936 4.82190528 21.87709324 -0.00070757 -0.00528074 -0.00359771
O 12.20128896 14.63822068 21.93745689 0.00230799 0.00117129 -0.00238625
O 15.72491675 12.85039017 14.65727106 0.00104175 0.00090837 -0.00034115
O 8.59529020 10.02417499 1.34047977 0.00132435 -0.00580214 -0.00132118
O 19.27142893 4.90987655 21.72818032 0.00510665 -0.00094740 -0.00150303
O 11.56426642 7.35448134 13.80320143 -0.00315570 0.00171382 -0.00284933
O 13.95384482 12.05889569 11.56990625 -0.00059303 -0.00029912 -0.00634469
O 11.69338238 8.91901224 0.17743274 0.00255596 0.00289341 0.00056979
O 3.34395965 13.74663834 5.73035079 -0.00286054 0.00136105 0.00080095
O 12.62906223 6.24120842 4.02178798 -0.00019770 0.00088063 0.00145689
O 24.70097332 17.52090815 10.32092248 0.00081347 -0.00800765 0.00105900
O 12.01880881 24.64534269 9.18638325 0.00235246 0.00263753 0.00575395
O 16.87129981 22.11345361 14.74526296 0.00462026 -0.00582690 -0.00194373
O 8.68720354 15.41808205 11.68953043 -0.00294339 -0.00571329 0.00187904
O 9.02907949 18.23467576 7.95803346 0.00620163 0.00282438 -0.00172884
O 15.97370183 9.77811440 18.83627917 0.00422022 -0.00558485 -0.00048874
O 8.71232563 9.76171092 9.43162371 0.00787105 0.00428136 0.00454906
O 15.47413558 7.25497437 10.05606123 0.00417299 -0.00416659 -0.00591980
O 11.13242565 4.30654577 3.35197192 0.00459900 -0.00001076 -0.00337518
O 7.53633167 1.58028949 26.40683058 0.00040191 -0.00311377 -0.00019427
O 16.94011827 2.05883207 13.50722105 0.00896246 0.00317395 0.00392110
O 8.75366514 14.52532452 4.22687861 0.00454087 0.00224148 0.00607631
O 14.23410826 17.96988706 21.44853128 0.00074310 0.00599345 0.00785252
O 15.69267282 15.85711615 20.18478688 0.00226753 0.00000573 0.00326484
O 9.35595647 14.81783846 22.81092637 -0.00573351 -0.00423895 -0.00208130
O 17.07779789 23.22049682 8.05122299 0.00160402 0.00095683 -0.00191851
O 7.64265737 0.52775938 28.59632973 -0.00631155 -0.00473920 -0.00159582
O 9.79518993 25.85316336 19.38019540 -0.00270566 -0.00108355 -0.00010307
O 18.65613605 17.66029566 18.14655129 -0.00194997 -0.00386403 -0.00493746
O 11.32974898 15.87576905 17.20664271 -0.00144669 0.00399004 -0.00182805
O 14.74689240 23.82521930 18.93762083 -0.00577165 -0.00431006 0.00364825
O 13.63921432 13.92462832 3.57674677 0.00280063 0.00074655 -0.00197805
O 11.62722774 13.55456452 28.47874630 0.00400134 0.00189976 0.00722634
O 12.97847122 0.94693937 10.72849465 -0.00114586 0.00418228 -0.00287043
O 21.23634699 16.99860493 17.25498114 0.00144454 0.00020479 0.00021794
O 9.14012121 24.25361614 14.68400301 -0.00158263 0.00042144 0.00092335
O 15.78712072 19.24975247 23.59763706 0.00476821 0.00608413 0.00697574
O 6.29471991 16.29072018 13.07717990 -0.00085912 -0.00151319 -0.00591793
O 11.72196071 23.97422361 6.69531531 0.00387476 0.00120967 0.00644765
O 22.31370053 19.48490950 3.86202052 -0.00182697 -0.00180806 0.00269739
O 24.17140498 5.28701884 17.69040794 0.00059286 -0.00396796 0.00185840
O 10.32504485 20.30605690 3.66507748 -0.00095868 0.00084378 0.00442089
O 17.92422039 6.20404939 3.93050601 0.00239093 -0.00369899 -0.00858303
O 12.74566321 14.29413666 10.97575369 -0.00228406 -0.00238483 0.00007991
O 23.37798064 11.67180356 2.57181953 -0.00114487 -0.00263769 -0.00134749
O 20.52216199 3.42132176 7.54300004 0.00247213 -0.00262467 -0.00030065
O 23.79119649 25.85086202 4.91663490 -0.00536467 -0.00142168 -0.00117889
O 7.15192995 21.47340088 20.08937368 0.00002992 -0.00417498 0.00129343
O 17.90961851 5.51633512 16.51272358 0.00290567 0.00760281 0.00189755
O 13.53394246 24.43688478 30.65533229 0.00163430 0.00701169 -0.00195918
O 19.72628283 13.58667443 27.34362011 -0.00788274 -0.00231612 0.00360498
O 11.43719323 8.05135376 22.02065434 0.00721531 0.00472980 0.00036557
O 0.14927653 10.33378362 8.47786673 0.00325762 0.00433658 -0.00212943
O 23.28217699 23.25582455 9.56270416 -0.00309280 0.00026646 -0.00427183
O 24.08021225 5.35830781 20.18627728 -0.00225829 0.00197742 0.00408208
O 1.40441684 23.75129309 21.56203707 -0.00030844 0.00166559 0.00089883
O 15.58840327 21.11820357 25.17580654 0.00018739 0.00225480 0.00132769
O 18.39324460 6.54475708 23.83433433 0.00220751 0.00295823 0.00120613
O 20.17962154 12.45689506 21.08516587 -0.00106860 -0.00716129 0.00660469
O 16.35472155 9.92943184 25.56531805 -0.00688672 0.00312496 -0.00256661
O 5.45204748 3.90120494 21.06122535 -0.00492966 0.00483078 0.00116287
O 1.46358063 23.05782914 27.95620003 -0.00181600 -0.00164641 0.00193629
O 20.36223335 2.69391619 24.84451717 -0.00307397 -0.00011109 0.00258554
O 18.77369843 24.03725584 6.18317526 0.00446040 0.00463036 -0.00243479
O 10.90911218 18.47402461 28.51136960 -0.00141697 -0.00266675 -0.00660333
O 16.71260434 2.03688361 28.03236859 -0.00340026 0.00483965 -0.00165686
O 23.54034594 5.11578169 6.67308634 0.00607119 -0.00559592 0.00272159
O 12.36628379 18.01758488 15.91709551 0.01144278 -0.00458911 0.00617253
O 0.71135973 1.65948002 24.75070472 0.00390000 0.00113305 -0.00469657
O 0.79115957 19.10570592 23.03592344 0.00248923 0.00071409 -0.00131125
O 22.70496512 2.53346258 29.95095852 -0.00343610 -0.00033188 -0.00131056
O 24.26451223 21.14637768 8.30853492 -0.00386596 -0.00225062 0.00419814
O 17.22405138 18.74855912 16.05872091 -0.00676894 0.00041858 0.00230617
O 12.98023467 4.47312252 29.80246969 -0.00221771 -0.00081919 -0.00108878
O 23.88509891 21.13275562 14.26259689 -0.00191395 0.00189170 0.00389520
O 22.03054173 3.08115807 13.98940169 -0.00138080 0.00530330 0.00091782
O 21.09407806 17.29982214 29.54997119 -0.00263250 0.00661693 0.00174577
O 16.67257531 18.02880776 28.28718919 0.00458947 -0.00276127 0.00271905
O 13.61329018 22.34887299 5.60942959 -0.00115516 -0.00301523 -0.00171764
O 1.40371194 9.05463074 11.87566581 0.00708638 -0.00110194 -0.00129017
O 20.59083573 14.40211303 12.91797778 -0.00151641 0.00102954 0.00341373
O 15.75714156 7.60537193 3.76210339 -0.00147959 -0.00101600 0.00310566
O 0.42103207 16.73534899 3.75343525 -0.00264886 -0.00293553 -0.00730983
O 18.37683818 22.28815420 27.14094369 0.00202043 -0.00184509 -0.00278376
O 19.57046434 17.29878989 4.79491022 -0.00098023 0.00224495 0.00359165
O 12.48989349 18.86940464 3.76032537 0.00007807 -0.00472813 -0.00317584
O 21.25339348 10.24483959 20.14055635 0.00368226 -0.00445685 -0.00055917
O 20.16583028 7.72727273 10.10827908 -0.00153123 -0.00496097 -0.00067420
O 20.74343284 26.42380240 1.82272959 0.00064090 0.00392043 -0.00505113
O 22.12868154 20.54307393 15.98766384 0.00760938 -0.00163885 0.00396017
O 2.04056030 15.91868194 9.97080606 -0.00292415 -0.00215547 -0.00245536
O 15.15108914 25.32466831 22.93998199 -0.00654146 -0.00706440 0.00220724
O 24.61618346 17.54047536 19.90692932 0.00459561 0.00536028 -0.00293488
O 13.83662012 26.22780064 19.29353335 -0.00341733 -0.00716452 -0.00052995
O 18.17761320 13.20161047 15.02761695 -0.00210793 0.00186202 -0.00089889
O 18.66049026 18.48499000 9.37632943 0.00416732 0.00555190 0.00443580
O 15.34497519 25.69654557 29.40721929 0.00478401 -0.00567961 0.00028080
O 17.04871489 23.56854682 18.11551707 -0.00171457 0.00180204 0.00403110
O 2.49380287 26.11269923 12.30255936 0.00740502 -0.00865333 -0.00107798
O 18.75205026 25.40756500 10.64398393 -0.00276630 0.00140259 0.00896272
O 3.61308439 22.32833101 17.80483326 -0.00769950 0.00220020 -0.00045961
O 12.43959436 1.22134481 25.10547843 0.00792634 -0.00181917 0.00812809
O 18.17579809 20.50291414 1.81228992 -0.00573125 0.00293844 0.00185722
N 13.79158836 22.39544705 12.35990059 0.00231799 0.00284509 -0.00115010
N 3.98261415 4.97371534 7.08546637 -0.00145163 0.00616865 -0.00184513
N 4.58116257 24.24541953 7.13884436 -0.00113847 0.00848972 0.00198599
N 2.46789771 9.15221511 17.52442766 0.00550349 0.00958263 -0.00030637
N 3.09727964 2.55237375 18.03869834 0.00284657 -0.00344528 -0.00051579
N 3.38308706 10.35093623 26.50622254 0.00827861 0.00221636 0.00380530
N 5.19202021 15.15737612 2.38127044 0.00634664 0.00079865 0.00618145
N 2.03955181 2.67856937 1.45298521 0.00302029 -0.00366057 0.00673986
N 1.85234893 14.01080443 26.14704622 0.00010734 -0.00514418 0.00099586
N 24.00418526 8.76868932 26.26670363 0.00465583 0.00739305 -0.00898159
N 20.30950903 23.72412737 21.34172315 -0.00004925 -0.00119410 0.00438300
N 10.75072170 4.96542990 25.97790549 0.00396356 0.00209679 -0.00240152
N 6.20991304 3.00108995 30.67139586 0.00053941 -0.00311875 -0.00233681
N 8.14971033 9.81238828 14.84501096 -0.00323803 -0.00138299 0.00148061
N 7.49061027 15.90751984 19.29981452 -0.00098596 0.00301379 -0.00116626
N 5.72135370 6.54092848 15.77504296 -0.00155014 0.00032755 0.00579356
N 8.09840442 24.69778090 9.27343868 -0.00235648 0.00056321 -0.00245755
N 2.09041655 19.14209574 12.84809854 0.00399452 0.00098055 -0.00999198
N 0.84662178 12.99993905 30.10580075 -0.00159354 -0.00379498 -0.00263745
N 4.80807646 17.59349872 20.39203612 -0.00070626 -0.00095345 -0.00387652
N 1.01049955 13.21905832 15.18662894 -0.00309578 0.00247044 -0.00013489
N 1.05288931 22.84372032 3.21141411 -0.00507860 0.00375912 -0.00450568
N 11.84426803 18.27450250 11.00813249 -0.00146412 0.00151344 -0.00487565
N 23.66587861 25.57507006 27.05813878 -0.00760784 -0.01279949 -0.00248562
N 10.66735851 0.98973126 15.53575266 0.00491274 0.00188567 0.00085988
N 3.49915810 21.77839302 0.56403161 -0.00355728 -0.00750016 0.00384556
N 22.90477044 11.36427499 22.25463335 -0.00436168 0.00256294 -0.00513177
N 4.49114031 20.50464428 28.18242160 -0.00123759 0.00586096 0.00160675
N 19.92114087 12.50713030 3.93642088 -0.00030041 -0.00019704 -0.00726132
N 6.44058354 22.43207325 25.47989819 -0.00182910 -0.00305227 -0.00198503
N 10.11875039 21.58561368 24.03641520 0.00125018 -0.00533500 0.00218027
N 20.71731675 17.91372061 22.72165348 -0.00560172 0.00632670 -0.00303483
N 13.13684551 11.97331098 4.63842432 -0.00209599 0.00787152 0.00440939
N 10.08903357 4.89013936 8.32523575 0.00014215 0.00988781 -0.01043039
N 14.55449082 5.45016519 9.01966325 -0.00819828 -0.00336558 -0.00377470
N 13.60726492 13.71295999 14.97346428 -0.00363685 -0.00622506 0.00344826
N 8.30267065 23.03885405 12.96882669 -0.00468578 0.00348003 0.00500153
N 18.33354241 11.73332484 9.19663078 -0.00018897 0.00090814 0.00273726
N 8.02649113 15.38959697 6.25310884 -0.00107247 0.00149358 0.00235230
N 15.24073370 10.22996458 11.04177474 -0.00186434 -0.00217542 -0.00793974
N 13.97021635 10.83070375 18.47291378 0.00344272 0.00079467 0.00462946
N 8.91501754 6.99874409 22.44051740 0.00214140 0.00315809 0.00172044
N 13.30720021 0.83480015 8.40552179 -0.00357763 0.00075948 -0.00144005
N 0.38798651 8.62922881 3.51152788 -0.00076373 0.00415022 -0.00326160
N 7.78805420 1.33978146 24.20734776 0.00964137 -0.00103550 -0.00560016
N 19.05718865 3.24611025 20.25753279 -0.00848414 0.00218631 0.00215822
N 6.80009549 14.33702974 14.26802581 -0.00142390 -0.00238468 -0.00287180
N 19.31778402 3.34301793 29.07901248 0.00794135 0.00537789 0.00051773
N 5.81260579 8.13333405 29.36866254 0.00864911 -0.00673219 -0.01627600
N 6.81580918 11.12741718 9.21939467 -0.00385907 -0.00007062 -0.00292458
N 17.05996750 12.65189254 0.62636968 0.00361652 -0.00345415 0.00501852
N 21.90362259 17.49823315 15.16842688 -0.00475674 0.00283241 0.00105141
N 8.69966987 9.65533619 3.52139463 0.00220934 0.00269952 -0.00399527
N 15.09094325 0.72633150 13.68446212 0.00170811 -0.00477816 0.00327552
N 17.21222508 4.41679352 6.54317785 -0.00541153 0.00136761 0.00451457
N 9.93554226 23.19146492 5.46843129 0.00740663 0.00196275 0.00032006
N 23.00254874 0.98819593 17.68531552 0.00000474 0.01083010 -0.00057220
N 11.37055018 15.73602157 27.96213550 0.00199429 0.00579695 0.00408156
N 12.86400531 12.49545583 21.68452365 0.00106385 0.00245506 -0.00586049
N 10.38246918 2.68160578 1.97043052 -0.00844233 0.00295382 -0.00038038
N 8.17797061 14.87583918 28.11637470 0.00159063 0.00883427 -0.00443584
N 17.02371545 17.26928734 23.47590940 0.00243923 -0.00583829 -0.00424064
N 12.34909854 5.92505209 15.27987218 0.00394402 0.00540749 0.00255783
N 12.38636247 19.32726946 21.32182217 0.00059414 0.00137449 0.00201729
N 20.24794672 17.29688416 8.37381653 -0.00302048 0.00217013 -0.00278601
N 19.44988270 5.98638469 14.93949479 -0.00758088 -0.00268856 -0.00100683
N 14.88155248 8.65364336 1.91681896 -0.00805820 0.00520141 -0.00232799
N 22.49084114 7.05663177 7.09696055 0.00273565 0.00197883 -0.00407171
N 20.89863443 24.96611745 11.15140008 0.00825484 -0.00252524 -0.00113478
N 1.73406060 10.41640430 6.82073963 0.00701750 -0.00731050 0.00342692
N 13.90406586 19.02539793 2.05960261 -0.00539424 0.00792893 0.00041491
N 22.26348522 3.21777500 1.26704625 -0.00199332 -0.00521902 -0.00003526
N 0.45407122 6.88903256 11.94436009 0.00562949 -0.00737485 -0.00246168
N 11.91951198 20.50824863 29.13645345 -0.00518942 0.00182755 -0.00374897
N 18.42887762 24.54756933 16.51451898 0.00028749 -0.00151552 0.00538061
N 17.88379535 13.14448818 26.03608889 -0.00199149 0.00870555 0.00030943
N 19.49321619 23.83364421 25.88678710 -0.00175275 0.00296975 0.00103571
N 1.02751347 3.91090561 24.43297045 -0.00316010 -0.00556303 0.00588235
N 14.20171768 2.26465870 24.17058118 -0.00491190 -0.00161499 -0.00653144
N 23.45257264 6.40513898 22.16975817 -0.00350738 0.00187171 -0.00749677
N 20.04983465 24.55687977 4.40140160 -0.00808439 0.00579680 0.00257521
N 20.50773468 16.59553114 12.18715687 0.00030272 0.00327683 -0.00029656
N 11.21593086 24.41350325 30.80316703 -0.00644048 -0.00284297 0.00111157
N 2.14568575 25.61294875 14.51155768 0.00260160 -0.00221695 -0.00416165
N 14.46619622 17.54903519 15.08033496 0.00578772 0.00466747 0.00097082
N 17.92584544 17.67291013 3.20574767 0.00417444 0.00164413 -0.00117240
N 23.38641778 25.45442551 9.11049146 -0.00584597 0.00083628 0.00455091
N 17.42097590 22.64634603 1.65967489 0.00917477 -0.00414973 0.00146793
N 6.79856410 23.68992982 20.49514836 -0.00384122 -0.00461276 -0.00712257
N 17.32941550 24.78897978 28.77185898 -0.00496554 -0.00134981 -0.00192551
N 16.21811562 4.23053244 28.41971045 0.00149150 0.00155324 0.00205475
N 24.78059061 14.91769601 4.91670058 -0.00908576 -0.00989688 -0.00261128
N 13.57038400 7.74121635 21.14319187 -0.00315371 -0.00259378 0.00715091
N 2.18042657 21.02776797 16.44696434 0.00458538 0.00037820 0.00607689
N 24.85085180 18.69371605 25.15196416 -0.00327606 -0.00485277 -0.01281884
N 19.47398116 9.44878657 18.88373585 -0.00330622 0.00492320 0.00224493
C 6.57493535 24.83633714 11.19044633 -0.00606050 0.00559984 -0.00372349
C 4.99233453 2.88164319 7.82080240 -0.00109755 0.00886842 -0.00199690
C 2.79476142 14.29660171 29.58720808 -0.00877267 0.00486466 -0.00469908
C 0.36910575 10.22705123 18.14884869 0.00244443 0.00569651 -0.00911213
C 24.03592196 12.29860999 14.03676574 0.00037403 -0.00221353 -0.00039438
C 4.90036986 11.16501347 28.45177856 0.00833429 -0.00405537 0.00285554
C 11.03219014 19.10427907 13.15081135 -0.00108846 0.00185563 -0.00262559
C 2.04703302 2.05781068 3.73762206 -0.00101320 -0.00311022 0.00367056
C 5.56952060 24.24245318 11.95742834 -0.00211004 0.00103313 -0.00639469
C 5.14998400 1.88736254 8.73476781 0.00221881 0.00427323 -0.00573956
C 3.74920877 15.30043657 29.91475545 -0.00368171 -0.00730376 -0.00849074
C 23.93414057 10.20474517 17.97484089 -0.00126616 0.00529857 0.00416191
C 23.55631818 11.89751330 12.80254012 -0.00873347 0.00383340 0.00311070
C 5.09658262 11.26565969 29.83539782 -0.00251410 -0.00285456 -0.00830239
C 10.04430569 19.42315678 14.03080723 -0.00948366 0.00466082 0.00150434
C 1.78509929 2.31209667 5.02723892 0.00220492 0.00392121 0.00146469
C 5.13351646 22.93865947 11.69335889 -0.00233764 0.00288644 0.00275375
C 4.56327611 1.88918390 9.98622010 -0.00096204 -0.00755205 -0.00664758
C 3.45464842 16.19273604 0.03157548 -0.00671229 -0.00661637 -0.00040799
C 23.34850665 9.62161851 16.86980977 -0.00365187 0.00181856 -0.00101002
C 24.32354646 11.86364716 11.64047737 0.00514240 0.00604514 0.00357656
C 4.23702338 10.53645205 30.66471167 0.00251524 0.00649491 -0.00047899
C 8.64832753 19.39933599 13.62104057 0.00746955 -0.00772030 0.00648350
C 1.05377183 3.42556574 5.43403815 -0.00319702 -0.00007589 0.01315655
C 5.83042646 22.10062915 10.74773666 -0.00228260 0.01079324 -0.00107472
C 3.71380047 3.04341799 10.22027391 -0.00201215 0.00151903 0.00922716
C 2.23114217 16.10730273 0.67943407 0.00338236 -0.00496693 0.00316001
C 24.14737017 8.88878468 15.99950688 -0.00234271 0.01053892 -0.00012150
C 0.61355694 12.42880733 11.72854755 0.00160393 -0.00118146 -0.00351848
C 3.04174857 10.07263209 30.19819788 0.00471350 0.00492090 0.00467840
C 8.32635228 18.80735172 12.42482396 -0.00003652 -0.00535552 -0.00111507
C 0.63432781 4.32411729 4.40965579 -0.00418717 0.00024610 0.00153816
C 6.83346728 22.73426931 10.06584039 -0.00274147 -0.00020621 0.00459191
C 3.48020257 4.07750269 9.25604471 0.00044693 0.00235995 -0.01140234
C 1.33356112 15.11654462 0.38280839 0.00216262 0.00562826 0.00290805
C 0.53038834 8.81377149 16.14627863 0.00188953 -0.00287889 0.00682659
C 1.09690076 12.98896584 12.86360674 -0.00122370 -0.00287915 -0.00402165
C 2.85127114 10.00757092 28.85484781 0.00200191 -0.00418317 0.00033253
C 9.40861847 18.39541991 11.54568462 0.00190069 0.00209457 0.00616760
C 0.94561194 4.17750725 3.11003075 -0.00202535 -0.00040955 -0.00207476
C 7.15507022 24.08825260 10.14099027 -0.00303296 -0.00458691 0.00865717
C 4.15740270 3.98465930 8.09088836 0.00710669 -0.00579885 0.00266974
C 1.63032806 14.10814353 30.30297927 -0.00192713 0.00960360 -0.00070838
C 1.15841402 9.40234896 17.28684977 -0.01064720 0.00570095 -0.00136492
C 0.39252817 12.81313008 14.05845568 0.00284640 -0.00258153 0.00094533
C 3.71490393 10.60491502 27.89965490 0.00947848 -0.00144701 -0.00307598
C 10.73958858 18.53824648 11.83865286 -0.00063917 0.00061136 0.00208497
C 1.70875212 3.05140654 2.75973133 0.00787666 0.00118065 -0.00022337
C 8.28591934 26.05616499 9.16877838 0.00460931 0.00398049 0.00669482
C 4.54000635 4.88415827 5.77000403 0.00128996 0.00835032 0.00414794
C 24.48394589 12.84715387 30.62644797 -0.00299864 -0.00288485 0.00362290
C 3.13623268 9.73988313 18.54123229 -0.00810898 0.00156197 -0.00304815
C 0.44596422 13.15571119 16.40295812 0.00351200 0.00516683 -0.01019512
C 4.15057147 10.91868265 25.52527870 0.00499505 0.00551503 -0.00307171
C 11.77163138 17.50759897 9.85531091 -0.00030065 0.00011097 -0.00379717
C 1.42713384 3.10145393 0.31184881 -0.00031964 -0.00604559 -0.00117777
C 4.27548694 14.43527572 26.25445689 0.00481544 0.00305514 0.00598819
C 6.08471533 5.10467600 5.71675445 -0.00057182 -0.00873160 0.00166681
C 3.12293522 23.84807011 8.92168356 -0.00680870 0.00441402 0.00257735
C 10.60078002 6.46370630 28.01078207 0.00086747 -0.00538479 0.00377368
C 5.70895520 2.53104909 2.09772910 0.00414197 0.00384102 0.00343400
C 3.72170018 10.70332278 24.07252943 0.00001817 0.00522984 0.00329161
C 3.51725248 13.40561111 2.17940100 0.00279377 -0.00237965 -0.00646157
C 4.85525509 4.69134164 14.40547389 0.00380235 0.00046516 0.00433126
C 8.33380129 1.01175574 14.54972591 -0.00258319 -0.00001666 0.00132990
C 0.85197808 8.29118961 24.81458511 0.00675490 -0.00022313 -0.00038957
C 0.19906770 12.46740431 22.31218491 -0.00115065 0.00274360 0.00290278
C 12.79751970 5.38595460 24.66768472 -0.01347460 -0.00192782 0.00298012
C 20.52865683 11.21198193 2.03785270 0.00035943 -0.00220280 -0.00688050
C 6.49570181 10.13018239 13.05198813 0.00209234 0.00098070 0.00068315
C 11.80633882 23.31244603 24.07864328 -0.01064722 0.00774413 -0.00048651
C 6.73792898 6.39318012 17.89436024 0.00334213 -0.00506728 -0.00489153
C 7.49325033 1.42767752 13.55785928 0.00515143 0.00541513 -0.00089446
C 2.09644772 7.68775797 24.58779081 -0.00002655 0.00386760 -0.00145993
C 1.08800294 13.43370700 21.77472406 -0.00105710 0.00226420 0.00887409
C 13.58649002 5.16905644 23.49340273 0.00203441 -0.00627217 -0.00336288
C 20.54724637 10.95773078 0.70223177 0.00288635 -0.00522649 0.00281164
C 5.13889912 10.14168683 12.71230207 0.00389231 -0.00515062 0.00782144
C 12.39562220 24.43050609 24.73686615 0.00104746 -0.00031610 -0.00102621
C 7.46378439 5.69030038 18.85581174 -0.00103861 -0.00561549 0.00934823
C 7.88375534 2.41476727 12.62961240 -0.00356018 -0.00136913 0.00362764
C 2.64121766 6.85569254 25.60280940 -0.00194712 -0.00156859 -0.00356635
C 0.51111938 14.51693880 21.10131154 -0.00421464 -0.00692912 -0.00211629
C 13.06902640 4.53028566 22.37770985 0.00590967 0.00329418 -0.00300763
C 20.30627033 11.99405242 30.60827687 -0.00194859 0.00496353 0.00104984
C 4.11747942 10.45515997 13.58796844 -0.00778005 0.00014260 -0.00617824
C 11.92650300 24.76415237 25.99015277 0.00660720 0.00063257 -0.00291492
C 7.94162474 4.41874133 18.66077152 -0.00169255 0.00001371 -0.00201633
C 9.20590912 2.83906501 12.68683549 -0.00293938 0.00197390 -0.00735245
C 1.84139270 6.45644322 26.70188164 -0.00024570 -0.00579024 -0.00133757
C 24.19591898 14.34455776 20.51129668 0.00191385 0.00336035 0.00565491
C 11.78270847 3.95836810 22.54490612 0.00157021 0.00124499 -0.00270604
C 20.22511153 13.30696933 0.29247246 -0.00345630 0.00983708 -0.00522509
C 4.52794566 10.50477083 14.89735268 0.00017650 -0.00007946 0.00341382
C 10.99130800 23.92461370 26.69831690 -0.00001655 0.00311948 -0.00011456
C 7.80265777 3.90667905 17.34325206 0.00042240 -0.00523032 -0.00174794
C 10.08467013 2.43919115 13.66720288 0.00304105 -0.00413597 0.00206664
C 0.54259730 6.87095641 26.74287136 -0.00654925 0.00270690 -0.01187924
C 23.35449014 13.32077634 20.96330205 0.00635848 -0.00097341 -0.00062575
C 11.05019435 4.12294290 23.69100862 -0.00572520 -0.00037807 0.00308448
C 20.21685991 13.57679728 1.66673013 -0.00308379 0.00181410 -0.00594000
C 5.81341233 10.39694130 15.36784438 0.00071045 0.01040942 0.00162910
C 10.49351907 22.83765551 26.06024768 -0.00128278 -0.00676396 0.00418360
C 6.98278612 4.48615033 16.41788025 -0.00292136 0.00242544 -0.00013322
C 9.71146941 1.49887682 14.62017014 -0.00090905 0.00411260 -0.01186110
C 0.18993109 8.01279901 25.98801535 0.00205555 -0.00473731 0.00373591
C 23.82548401 12.40072388 21.86606807 0.00022862 0.00088187 -0.00547170
C 11.57117731 4.83275665 24.79104545 -0.00117219 -0.00288602 0.00310971
C 20.22931877 12.48014798 2.51728860 -0.00522580 0.00658423 -0.00534837
C 6.85543842 10.08648199 14.41815687 -0.00657325 -0.00110610 0.00016229
C 10.77812147 22.60113596 24.72526269 -0.00231104 0.00047221 0.00149641
C 6.42274394 5.78465412 16.68373725 -0.00630153 -0.00143143 0.00214130
C 10.44428891 26.53154186 16.45376966 -0.00867553 -0.01163753 0.00428444
C 22.97661704 8.41340704 27.06002592 -0.00194443 -0.00334610 0.00659916
C 23.01319558 10.72321195 23.43158566 0.00593638 -0.00039437 -0.00170850
C 11.26893670 5.43030472 27.11484435 0.00482891 0.00236105 -0.00596730
C 19.62164319 13.73281587 4.50566005 -0.00109756 0.00550761 0.00063468
C 8.55489371 9.86552423 16.10115792 0.00071858 -0.00404524 0.00185561
C 9.78638396 21.54114319 22.74411416 0.00057197 0.00671466 0.00476911
C 5.24490440 6.14737277 14.56878349 -0.00390136 0.00286096 -0.00103665
C 12.56068209 22.68635849 14.34746205 -0.00652117 0.00148388 -0.00077718
C 21.81702470 9.31688691 27.07715810 0.00720667 -0.00322375 -0.00160970
C 18.46447114 25.12324445 20.63852800 -0.00084844 -0.00373736 0.00112047
C 4.09633009 8.82394957 19.22863519 -0.00048618 0.00798486 -0.00841716
C 2.79521901 4.95609579 18.08698243 -0.00428463 0.00523568 -0.00005404
C 9.86436072 9.37588425 16.48695131 -0.00279796 0.00291142 -0.00006264