1920
Time=58000.00000005 pbc="T T T" Lattice="24.86797039 0.00000000 0.00000000 0.00000000 26.80373868 0.00000000 0.00000000 0.00000000 30.99190579" energy=-12238.47406703 virial="-36.06605126 -0.82057273 6.83674973 -0.82057273 -65.91549348 8.81230140 6.83674973 8.81230140 -95.10896591" stress="0.00068245 -0.00003044 0.00030276 -0.00003044 -0.00065010 0.00029453 0.00030276 0.00029453 -0.00218860" Properties=species:S:1:pos:R:3:vel:R:3
O 3.71822838 23.39000477 12.40667953 -0.00196255 -0.00302180 0.00392398
O 4.48372041 1.44408148 11.52358035 -0.00218549 0.00192080 0.00347091
O 3.78805622 18.36705949 1.14412277 0.00858924 0.00790921 -0.00238016
O 22.18301994 10.72000644 15.27026388 0.00512300 0.00022984 0.00081985
O 23.43111733 12.14148223 9.52547942 0.00289408 -0.00230780 -0.00241036
O 3.93221489 10.43823809 0.93020080 -0.00114409 0.00055156 0.00058763
O 8.42389622 20.29468547 15.52513098 0.00405560 -0.00248183 0.00082721
O 0.76509999 3.37234769 6.32318392 -0.00197351 -0.00479858 0.00020949
O 9.50756796 0.15559176 17.28598939 -0.00289453 -0.00109199 0.00203698
O 3.99519070 4.17979552 4.51568737 0.00615868 -0.00019687 -0.00231192
O 24.63073363 13.48302093 0.18665239 -0.00046704 -0.00183495 -0.00195345
O 12.41250548 5.23168727 27.55699879 -0.00213215 -0.00256766 -0.00706514
O 18.73981391 14.55394565 3.25588462 0.00568734 0.00429224 0.00166211
O 5.13967560 10.99127175 25.46080772 0.00300544 0.00402829 0.00302066
O 10.44007336 18.08068307 9.82119376 0.00587171 0.00214475 0.00028073
O 5.53438949 7.25270248 13.74499173 -0.00606457 -0.00613789 -0.00138315
O 6.71770345 2.64101047 12.09146269 0.00371610 -0.00201126 0.00270887
O 4.24608512 6.10959280 25.47881247 -0.00357825 0.00336192 -0.00628407
O 0.73147012 14.87508302 20.46490893 0.00089675 0.00263656 0.00006274
O 14.09513592 4.12479450 21.48438478 -0.00053969 -0.00362397 0.00001053
O 21.24135433 11.36352085 29.65204732 0.00158906 0.00304013 -0.00232653
O 3.06120660 10.74132631 13.30259787 0.00705914 0.00302165 0.00370598
O 12.24403382 25.08758922 26.59420095 0.00086530 -0.00293964 0.00743850
O 9.06151912 3.97435081 19.20205443 0.00307910 0.00697168 0.00384780
O 8.58249957 1.01102786 10.25005039 0.00010088 0.00089417 0.00059722
O 23.34173270 6.58544184 27.79655435 0.00281221 0.00513732 0.00299947
O 23.34450262 9.34178515 23.17012977 0.00128770 -0.00456315 0.00072675
O 2.02933251 10.40245813 19.32322178 -0.00300026 0.00121872 0.00401830
O 24.34391652 13.61738715 15.58538972 0.00683199 0.00065817 -0.00327874
O 7.97777047 10.65179131 17.18506789 0.00067157 0.00943593 0.00434536
O 10.56690155 21.59838737 21.80817830 0.00059171 -0.00019530 -0.00366878
O 0.75257374 4.21576168 0.25071617 -0.00108621 -0.00265061 0.00045136
O 15.52088200 20.38546047 8.11781163 0.00288548 -0.00575488 0.00533502
O 4.27391172 20.98445073 8.10963175 0.00324053 -0.00566351 -0.00148897
O 6.64014823 25.40096543 2.18449351 -0.00369447 -0.00568658 -0.00481886
O 5.80454219 18.90596086 15.68195772 0.00039935 -0.00645240 0.00255329
O 4.82084293 23.41610530 17.63172023 0.00139263 -0.00294425 0.00396466
O 3.18911647 25.88226968 30.31230367 -0.00000583 0.00367001 -0.00540708
O 7.18734488 20.55496950 4.59851909 -0.00064027 -0.00041030 -0.00364542
O 3.36647606 25.53455213 26.78561498 0.00421916 0.00202023 -0.00207745
O 2.95770286 16.51462946 25.92108437 -0.00380154 -0.00198647 0.00108346
O 4.08087780 18.28364605 13.86880642 0.00219688 0.00511355 -0.00243304
O 3.80913949 23.46890197 7.47801040 -0.00302476 0.01027339 0.00406409
O 4.77435429 19.97919568 30.33575291 -0.00470124 -0.00489755 0.00704184
O 4.75693928 1.05869560 30.78268652 -0.00057689 -0.00834511 0.01024023
O 0.41134126 25.06468152 5.09015844 -0.00235262 -0.00055668 -0.00299941
O 3.63047487 15.32768297 4.43016591 -0.00128964 0.00809393 0.00193271
O 22.47796272 18.10578329 22.93533335 0.00377133 0.00121515 0.00270684
O 22.43255500 15.27012163 29.24401754 0.00289542 -0.00043412 -0.00270567
O 24.60924046 19.40226616 4.29808636 -0.00242711 0.00360866 -0.00361101
O 0.73744768 21.40054173 23.18974777 -0.00628047 0.00363933 0.00107764
O 8.62004305 24.48021237 28.45507424 -0.00093033 0.00081624 -0.00146625
O 4.83179583 3.15969844 24.58382270 -0.00466843 -0.00142001 0.00410894
O 5.06446929 17.46034458 24.72893322 0.00138673 -0.00109355 0.00431437
O 3.66516983 11.75203539 21.01964938 0.00427171 0.00021537 -0.00096869
O 18.62793794 19.87630518 27.81003370 -0.00357809 0.00291921 0.00046210
O 13.92509958 21.98141644 14.22501741 0.00285426 0.00080942 0.00119460
O 5.23987707 23.34408588 1.17795060 0.00367742 -0.00457574 0.00492147
O 20.32127274 20.83736861 19.55830329 0.00228243 0.00805312 0.00065193
O 3.32405338 15.37051168 20.31612772 -0.00044039 -0.00596795 0.00037111
O 4.40576967 2.96982375 17.09042755 0.00240870 -0.00380729 -0.00289145
O 4.13804630 23.67259809 25.31620289 -0.00016424 -0.00200248 -0.00460590
O 8.15100325 16.31844398 21.12698826 -0.00155069 0.00406371 -0.00673159
O 20.81739647 25.79769965 25.31074910 0.00618835 0.00156432 -0.00464323
O 3.60546267 6.00362961 2.70387305 -0.00628647 0.00110992 0.00039796
O 7.96252141 7.48952577 12.71387058 -0.00672434 0.00548598 0.00386491
O 16.98716256 9.95241804 26.42953762 -0.00176564 0.00557577 0.00378298
O 10.58006942 9.59911805 13.43275441 0.00201950 0.00381356 -0.00634682
O 10.98914206 11.64061128 8.00164735 -0.00188099 -0.00405091 0.00433648
O 13.52550192 10.21485371 7.02430138 -0.00165578 0.00489078 -0.00051563
O 18.21228687 5.29872380 11.99545717 -0.00244969 -0.00302672 -0.00242786
O 19.76819022 12.80143907 12.98804539 -0.00177150 -0.00047129 -0.00018148
O 22.40740524 0.48380593 15.75437234 -0.00496656 -0.00538851 0.00172679
O 8.24962682 3.83280011 7.64966932 0.00044309 -0.00262900 -0.00406177
O 14.76667941 13.85801360 30.80275329 -0.00357098 -0.00359683 -0.00233554
O 2.31784313 8.75225475 2.44547497 0.00149078 -0.00473695 0.00459887
O 7.47567318 16.61062206 29.05777504 -0.00369430 -0.00127655 0.00636201
O 19.65273403 10.84248812 9.13733733 0.00113894 0.00486562 -0.00079669
O 16.08899299 2.23804370 6.84069167 0.00220536 -0.00098539 0.00248175
O 20.03503120 3.72155815 27.07491427 -0.00107108 -0.00480797 -0.00373238
O 0.38467578 26.23166459 22.78123561 -0.00110906 -0.00194291 -0.00065605
O 7.67820047 11.44754210 24.68124602 0.00422709 -0.00496158 -0.00687131
O 8.40678758 11.06119345 19.68930145 -0.00026621 -0.00323508 -0.00072538
O 22.15518895 6.51032563 30.17781470 -0.00097691 0.00166727 0.00271295
O 9.10848966 10.76508753 30.54688944 0.00180540 -0.00669748 0.00605564
O 18.70193279 1.84930642 14.64341192 -0.00305094 0.00663982 -0.00423270
O 13.61696579 2.51037207 19.60891435 -0.00002963 -0.00035110 -0.00385862
O 19.07079390 7.16176302 1.24901825 -0.00079059 0.00310477 0.00632516
O 5.29513018 6.52486651 27.73810647 -0.00541951 -0.00314410 -0.00016337
O 8.84480192 4.54868071 21.72517985 0.00617146 -0.00304771 -0.00046119
O 12.10255509 15.32591117 22.54281245 -0.00137189 -0.00205652 -0.00289773
O 15.17340927 13.74977181 14.60243232 0.00821825 0.00388241 0.00462495
O 8.95914426 11.36580204 2.03696826 0.00173508 -0.00569933 -0.00621879
O 19.41202612 4.96147727 21.64629998 0.00598232 0.00825626 0.00238533
O 11.19184242 7.26049841 13.94387861 -0.00203484 0.00099931 0.00013088
O 13.50770672 12.26818439 11.66611244 -0.00509953 -0.00348933 -0.00131004
O 11.26082129 8.66638654 0.33625172 -0.00215225 0.00431052 0.00467904
O 3.18260905 14.23976874 6.71383685 0.00418522 0.00205727 -0.00307789
O 13.17488858 6.15367975 4.08867663 -0.00290962 0.00402581 -0.00233655
O 24.04535714 17.95971372 11.05026676 0.00055373 0.00023156 0.00202005
O 11.69524341 25.77187791 9.09911723 -0.00131875 0.00118681 -0.00249675
O 17.51629264 22.43968470 13.62345805 -0.00299974 0.00653354 -0.00218526
O 9.01361984 15.11354852 11.95905241 -0.00631310 0.00035044 0.00031152
O 8.42960936 19.52143423 8.94130391 0.00157575 -0.01218781 0.00789646
O 16.01148149 10.60703394 18.54185507 0.00393095 0.00337505 0.00083154
O 9.16983238 10.63436173 9.81365948 -0.00517021 -0.00324800 0.00252553
O 15.33996497 8.01367111 9.88127618 0.00098989 -0.00457743 -0.00285425
O 11.83494048 3.91333930 3.52235352 -0.00406317 -0.00368527 -0.00103641
O 7.47429378 0.99828729 26.53531790 -0.00224107 0.00422588 -0.00183035
O 16.64450250 1.97904702 12.92111267 -0.00005793 0.00338898 -0.00117075
O 9.59817399 16.26208376 4.27325805 -0.00111619 -0.00191123 -0.00275069
O 14.85635132 18.20813310 20.46123030 0.00022040 0.00312708 0.00077461
O 15.71337464 15.99168393 21.39878929 0.00147314 0.00365613 -0.00598590
O 8.40465640 16.51257246 23.62804798 -0.00187828 -0.00926624 -0.00257855
O 16.03862471 24.49513401 7.85950513 -0.00594246 -0.00566815 -0.00232397
O 8.00359853 0.24102335 28.89278351 0.00278588 -0.00709319 -0.00329541
O 9.51261996 25.39566007 19.36840783 0.00090153 -0.00146469 -0.00278780
O 19.15245323 18.00989518 19.17043055 0.00053967 0.00051324 0.00084428
O 11.14937608 16.19252072 17.11214831 -0.00207311 -0.00244583 -0.00579012
O 15.07355211 24.39039906 18.16795970 -0.00679640 -0.00439638 0.00230019
O 12.75661154 14.09387800 3.52431696 0.00095346 -0.00406702 0.00566078
O 11.74747806 11.20303972 25.51129982 0.00238888 0.00268027 -0.00668602
O 13.95324733 3.11065001 10.20699182 -0.00830244 0.00044383 0.00162585
O 20.84963527 16.48698174 17.96506363 0.00528951 -0.00462315 -0.00240687
O 8.65680009 25.05831212 14.65979025 -0.00430079 -0.00142558 -0.00101780
O 16.84179226 18.16451331 25.36491422 -0.00106047 -0.00339523 0.00213408
O 6.56963245 15.53780057 12.64552532 0.00021299 -0.00856482 0.00212450
O 11.34052473 24.45641770 6.51311567 0.00514337 0.00414504 -0.00470666
O 21.91416722 20.25377349 4.06314775 -0.00530420 -0.00250584 -0.00256758
O 24.35754596 4.95858629 17.15037830 0.00232935 -0.00222786 -0.00269860
O 9.75186183 20.58483253 3.79841121 -0.00278005 0.00023513 -0.00065647
O 18.34643079 6.20690256 4.41314491 0.00313049 -0.00226058 -0.00578503
O 12.94576641 14.79840870 11.03483013 0.00605210 0.00381698 0.00016060
O 24.01637486 11.33059760 1.54266032 0.00007703 0.00354280 0.00502657
O 21.29922629 3.96843305 8.64778769 0.00536265 0.00318388 0.00296912
O 23.26997457 26.64961908 5.32251065 -0.00296274 0.00127723 0.00326326
O 7.77152219 20.94797981 20.46091242 -0.00065777 -0.00510201 -0.00286807
O 20.19412606 9.00589675 14.73523752 0.00051627 -0.00627438 0.00331736
O 13.10822742 24.06562523 30.68708376 0.00248195 -0.00307231 -0.00789309
O 20.48843391 13.59513287 28.50404733 0.00300110 -0.00372419 -0.00468808
O 11.47074805 7.53909112 21.38271140 0.00203737 0.00009317 -0.00089753
O 24.66606707 10.48544128 7.85124636 0.00696094 0.00001460 0.00093848
O 23.06603497 23.58573266 9.55304467 -0.00220401 0.00236299 -0.00161502
O 23.86991220 5.51741412 19.60818035 -0.00320072 -0.00302935 0.00220715
O 2.33899313 23.33406730 22.66505213 -0.00282427 -0.00241331 0.00259649
O 15.31793260 20.17801232 26.20596724 -0.00044379 0.00449895 -0.00160405
O 18.61354982 6.58026731 23.24563881 -0.00718977 0.00320894 -0.00529118
O 19.52296370 12.32318892 22.13173260 -0.00071347 -0.00590364 0.00174274
O 15.47210586 10.86083102 24.67519147 0.00119805 -0.00438204 -0.00013378
O 5.48761919 2.76779908 19.42066577 0.00402451 0.00398674 -0.00303063
O 22.75662425 23.18500150 30.60543937 -0.00319756 -0.00435855 -0.00651086
O 20.87660150 3.04273275 24.72903756 -0.00444040 -0.00281699 0.00286714
O 17.32936123 24.37341937 5.68197078 -0.00283306 -0.00082472 -0.00203542
O 10.53922259 18.07764071 29.69114064 -0.00341143 -0.00471609 0.00156102
O 16.11752489 2.37550377 27.42913154 0.00281877 -0.00106194 0.00004306
O 23.99172133 5.34411813 6.86865609 0.00652344 -0.00874408 0.00334042
O 11.77320819 18.33037352 15.86324782 0.00430587 -0.00512222 0.00331390
O 1.59649900 1.32018996 24.05524779 0.00293396 0.00432959 0.00534869
O 1.10031315 20.98165314 25.59651471 0.00185617 -0.00308337 0.00132835
O 23.79219347 1.60996865 30.10265639 -0.00239071 -0.00284098 -0.00015360
O 24.07572511 21.54626117 8.37538174 0.00060892 0.00254695 0.00182470
O 17.24130265 19.49185530 17.54470924 0.00273043 0.00082659 0.00046933
O 12.53381394 4.78224612 30.08805279 0.00236762 -0.00729974 -0.00121504
O 23.59139937 21.82246776 13.68306271 -0.01035991 -0.00505260 -0.00212148
O 22.53456544 2.21840650 13.81953575 0.00036972 0.00228971 -0.00126534
O 23.15569424 16.74984436 0.35803994 -0.00306247 -0.00026148 0.00278714
O 17.25400800 17.81924822 29.28312622 0.00582261 -0.00061450 -0.00464900
O 13.16625514 22.92196619 5.83597348 0.00744555 0.00510086 0.00013190
O 1.39582438 9.19511651 12.21558533 0.00158869 0.00828407 0.00223233
O 19.83486696 15.53324809 13.23052177 0.00502118 0.00082573 -0.00072226
O 16.97036321 7.66366449 2.81928153 -0.00179355 -0.00157933 0.00498374
O 0.03747897 16.92419572 3.96515720 -0.00070819 0.00505994 -0.00334248
O 18.18209607 22.18510305 27.40121209 0.00423078 0.00762862 0.00292527
O 18.74055725 16.80672230 4.73636349 -0.00010604 -0.00320306 -0.00062349
O 11.61285626 18.68029548 3.51589789 -0.00242658 0.00352178 0.00089729
O 18.58404559 10.30832317 20.81803138 -0.00401892 -0.00068889 0.00431615
O 20.44615447 8.44090001 9.98523508 0.00412209 0.00226790 0.00180404
O 20.45715728 26.73921580 2.46847916 -0.00053952 0.00733740 -0.00385088
O 22.16758222 21.64003309 15.66894656 -0.00660699 -0.00353831 -0.00196538
O 1.89800601 17.07705043 9.99456701 -0.00068924 -0.00530318 0.00129326
O 15.39776327 23.39819121 21.91558024 0.00119707 -0.00788753 0.00174040
O 24.14920136 16.60230959 19.13278506 -0.00485820 -0.00256945 0.00109874
O 14.46998197 26.67392106 19.35580174 0.00377828 -0.00101894 0.00157410
O 17.22631679 14.11648310 15.94212287 -0.00116712 0.00583174 -0.00440289
O 18.10143785 19.36412423 8.80388346 0.00282221 0.00200619 -0.00026888
O 15.29063211 25.43349367 29.96808514 0.00320624 0.00893155 -0.00847331
O 17.43546997 25.16046708 17.77962429 0.00440211 -0.00060685 0.00517895
O 2.60643415 26.61094124 12.50274309 0.00407439 -0.00332955 0.00465550
O 18.62463374 26.16302149 9.73662677 -0.00062331 -0.00752835 -0.00664547
O 3.17735771 21.58587697 17.64754983 -0.00258166 -0.00630689 0.00610991
O 12.40908996 0.43773316 25.28928994 0.00199254 0.00255982 -0.00070293
O 17.32408226 20.70519337 2.03296836 -0.00802036 0.00760880 -0.00369599
N 13.96266448 23.53160958 12.48345210 -0.00224094 0.00299785 -0.00506561
N 3.56674155 4.15001208 6.82001177 0.00018713 -0.00076804 -0.00520561
N 4.63676810 25.58877373 7.30718650 0.00209277 0.00385600 -0.00216804
N 1.85951797 8.88599860 17.69410889 0.00343475 0.00001371 0.00616918
N 2.75903457 1.72098687 18.14184825 -0.00309893 0.00390354 0.00153435
N 3.15984820 10.36538147 26.36234271 0.00387506 0.00371430 -0.00291038
N 5.44639081 15.50149421 3.06390298 -0.00682202 -0.00267804 0.00062265
N 2.08371738 2.53004167 0.98417288 -0.00644882 0.00304422 0.00353313
N 1.92049816 14.45033931 25.83450564 -0.00248538 0.00339142 -0.00332078
N 23.99371694 7.94238530 26.09577277 -0.00265309 0.00368966 -0.00140851
N 20.33375358 22.04193257 21.47205342 -0.00251811 -0.00100369 0.00071975
N 10.79341203 4.72813712 26.00324596 -0.00476819 0.00864674 -0.01285546
N 5.59112918 3.10761561 30.12864042 0.00346084 0.00149269 0.00462295
N 8.14182357 9.57122463 15.12169658 -0.00832758 0.01052270 -0.00252768
N 6.94452489 15.82145772 19.22861565 0.00104430 0.00344426 0.00086484
N 5.49512642 6.53668045 15.91864493 -0.00147135 0.00567277 -0.00054271
N 8.04450580 25.65422083 9.53270340 0.00280322 -0.00358528 0.00249522
N 2.11529005 18.96187641 12.86035794 0.00406381 0.00123988 -0.00168290
N 1.61866892 13.70847655 29.79953383 -0.00431364 0.00928779 0.00070338
N 4.27435295 17.39970246 20.72047004 -0.00296036 -0.00265612 -0.00234167
N 1.30829718 13.21214780 14.27064517 -0.00184650 -0.00166621 -0.00314725
N 0.83497860 23.39351418 3.63377300 -0.00712472 -0.00404332 -0.00155672
N 11.63719383 19.54700990 11.01569929 0.01062515 0.00624810 -0.00363677
N 22.70457670 26.00237281 26.44768553 0.00773355 -0.00098237 -0.00479387
N 10.68973828 1.35338644 15.63312527 -0.00001872 -0.00232161 -0.00109710
N 3.30593674 22.20264000 1.31095702 -0.00105237 -0.00273197 -0.00597605
N 22.03026040 11.01740700 22.23541885 0.00513501 0.00085276 -0.00570282
N 4.00920928 21.51365290 28.77253767 0.00197919 -0.00413985 -0.00107633
N 19.64849789 12.56236812 3.89450650 -0.00148382 -0.00294611 -0.00120167
N 5.92713581 22.91214939 24.15935903 0.00419108 0.00270296 0.00540356
N 10.32766772 20.67088187 23.86353923 -0.00526340 0.00038636 -0.00218141
N 21.75962400 16.62524092 24.55161028 -0.00211275 -0.00164862 -0.00312170
N 13.13015529 11.98613162 4.37555226 0.00101732 -0.00102703 -0.00725452
N 9.65378524 5.63380042 7.73670511 -0.00415388 0.00501464 -0.00481510
N 14.75967932 5.84910861 9.33290306 -0.00547350 0.00227621 0.00108878
N 13.07547348 14.34370861 14.69336715 -0.00525109 -0.00552132 0.00460065
N 8.34630016 23.49779281 12.92958749 -0.00127093 0.00057067 -0.00136718
N 18.15310926 12.61648938 9.14880360 -0.00359289 0.00862880 0.00769784
N 8.85012214 15.98386322 6.32091725 0.00015318 -0.00863566 0.00039720
N 15.06695836 10.70065105 10.92640376 -0.00075201 0.00277051 0.00193114
N 13.97297888 11.65277929 18.45956002 0.00126493 0.00195059 -0.00339965
N 9.02876242 6.39104264 22.87017288 -0.00156743 -0.00925763 -0.00312365
N 12.75881431 2.06391788 8.58203644 -0.00248088 0.00120820 0.00609086
N 0.32108839 8.19293668 3.50225351 -0.00073862 0.00111461 0.00022300
N 8.09856522 0.93025574 24.34918487 0.00200755 0.00102680 0.00129099
N 19.67699765 4.79848953 19.47054370 0.00480819 0.00489947 0.00282744
N 6.85303270 14.06328405 14.44683011 -0.00028538 0.00165530 -0.00213140
N 19.25299598 2.65799642 28.99055608 0.00131897 0.00170351 0.00149337
N 6.63814817 7.47336032 29.37008778 -0.00032463 -0.00673044 -0.00913681
N 7.49481241 12.05393444 9.54012773 -0.00209402 -0.00005082 -0.00070124
N 16.55505502 12.41601372 0.30492919 -0.00511535 -0.01046891 -0.00278045
N 21.11951718 17.24662117 15.88533813 0.00346491 -0.00461962 -0.00647643
N 7.77527797 10.38122010 3.64763118 -0.00074382 0.00687246 -0.00214168
N 15.10117319 0.77255594 14.00597535 0.00115515 -0.00592764 -0.00013471
N 17.10712841 4.30946600 6.60273910 0.00065511 0.00953844 -0.00038146
N 9.17181336 23.96602587 5.88687739 0.00793276 0.00663774 -0.00380666
N 22.95723673 26.26182721 17.68744552 -0.00264848 -0.00552102 -0.00322768
N 11.24562266 12.97757929 26.92214354 -0.00395601 -0.00632214 -0.00163003
N 12.89662910 13.13925802 22.12611461 0.00627781 0.00073873 -0.00773626
N 10.92885433 2.65180838 1.91690435 0.00330210 0.00050661 0.00900458
N 7.39646183 15.01335817 27.42873597 -0.01242617 0.00288970 0.00541442
N 17.99246043 16.39982193 24.40814032 0.01053000 0.00209368 -0.00373724
N 12.30313875 5.91076516 15.36856130 0.00177532 -0.01086693 0.00182962
N 13.43770749 19.88168047 21.07887537 0.00094698 0.00248673 0.01108316
N 19.76810651 17.91460604 8.04099237 0.00201931 -0.00943043 0.00231201
N 20.16868897 6.87152504 13.98863018 0.00051091 -0.00267587 -0.00843604
N 15.69714154 8.72944054 1.26137463 -0.00667140 -0.00515569 -0.00085918
N 22.99912042 7.44026904 7.09043277 -0.01005418 0.00070310 -0.00045398
N 20.46953688 25.13798835 10.46747424 -0.00099985 0.00149925 -0.00060395
N 1.65925309 10.74658574 6.45567299 0.00185997 -0.00008146 0.00686372
N 13.42553705 18.62578880 2.18125505 -0.00435322 0.01129608 0.00434002
N 22.61349973 2.82967632 0.64804453 -0.00555503 0.00073349 -0.01297794
N 0.64940967 7.04892816 11.84145121 -0.00194245 0.00230231 0.00408400
N 11.03621496 20.25442026 29.79953765 -0.00028476 0.00086630 0.00623179
N 18.60382270 25.97100127 15.98768573 0.00199167 -0.00425894 0.00596210
N 18.44718413 13.22291725 27.57462773 -0.00631982 0.00285048 -0.00126683
N 19.32683059 23.50736574 25.95068513 0.00160009 -0.00610170 -0.00270788
N 1.61715540 3.48111146 23.27241078 -0.00318722 0.00294309 0.00283464
N 14.16232872 1.68555361 24.60251484 -0.00448056 -0.00282340 0.00408314
N 23.65165720 6.70042441 21.54522135 -0.00076896 0.01057757 0.00137996
N 19.39726359 25.11432885 5.11852745 -0.00095009 -0.00048587 0.00952959
N 19.29517105 17.71137776 12.65458888 0.00703588 -0.00382789 -0.00016553
N 10.92588722 24.65975243 0.07098615 0.00125475 0.00357555 -0.00296911
N 1.83130904 26.23072095 14.58442845 0.00912779 0.01053826 0.00191984
N 13.69324676 18.83512072 14.69497262 0.00461604 0.00843383 0.00464722
N 18.39411533 17.98715795 2.74357905 -0.00257667 -0.00551438 -0.00484466
N 23.47796271 25.67611424 8.98775436 0.00496014 0.00168114 -0.00116499
N 16.96113891 22.97689045 1.89146538 -0.00109024 -0.00396240 -0.00076621
N 7.30657671 23.08782967 20.01304185 -0.00308450 -0.00277774 -0.00612793
N 17.32197780 25.60200983 28.92682592 0.00128194 0.00495238 -0.00244245
N 16.41467582 4.59224126 27.97818810 -0.00405901 0.00622522 0.00189591
N 24.48577798 15.10372830 5.26087615 -0.00002498 0.00471852 -0.00634109
N 13.66010521 7.03005367 21.01220343 0.00073844 0.00154560 0.00085716
N 1.61014349 20.84352870 16.10828488 -0.00168224 -0.00169935 -0.00134050
N 24.44639103 19.66963207 26.65852391 0.00088095 0.00601846 0.00170376
N 19.66399901 10.04321679 18.83457371 0.00637512 -0.00731940 -0.00314720
C 6.45804538 25.70859738 11.44721264 0.00567212 -0.00360540 0.00125485
C 5.18964828 3.07756358 8.29862055 0.00485807 0.00244984 -0.00055939
C 3.38896043 15.49624051 29.86808663 0.00084718 0.00225787 -0.00638176
C 24.82138262 10.41888866 17.60915154 0.00450861 -0.00256321 0.00515467
C 24.03064202 12.84504794 13.06769143 0.00676645 0.00486136 0.00204455
C 4.52431622 11.09542433 28.31506572 -0.00026934 0.00215971 0.00175991
C 11.20512482 20.51130654 13.12841617 0.00429018 -0.00530076 -0.00020317
C 2.33331335 1.93992263 3.34048581 -0.00078818 -0.00378075 0.00229325
C 5.45099688 25.10960143 12.15317784 -0.00193492 -0.00387498 0.00229357
C 5.33163813 2.31012277 9.42628660 -0.00723643 -0.00131213 0.00652528
C 4.00136128 16.53929279 30.59962173 -0.00583964 0.00126367 0.00971481
C 23.64613769 10.82516257 16.99003234 -0.00124454 0.00350893 -0.00079140
C 23.35660571 12.53513661 11.87848420 0.00183100 0.00109620 -0.00168392
C 4.56491824 11.20226787 29.72411862 -0.00264390 -0.01124424 -0.00118921
C 10.42467943 20.72038262 14.28770405 -0.00140130 0.00289002 -0.00246660
C 1.93895921 2.11087967 4.66326889 0.00361247 -0.00581407 0.00237252
C 4.83064546 23.92477759 11.70104774 -0.00170224 -0.00249496 0.00257061
C 4.34179534 2.29802659 10.44528333 0.00242147 -0.00587629 -0.00069954
C 3.33037984 17.19941094 0.63777335 -0.00142952 -0.00110189 -0.00089922
C 23.20699379 10.17630809 15.87627718 0.00122975 -0.00728406 0.01175251
C 24.04123821 12.38384414 10.69062870 -0.00589849 0.00183631 -0.00026733
C 3.74399353 10.43223780 30.54736170 -0.00012579 0.00007469 0.00387125
C 9.12603590 20.21753878 14.30286243 -0.00303677 -0.00023638 0.00043928
C 1.19085614 3.30617835 5.02449758 0.00205215 0.00045675 0.00860348
C 5.37756810 23.29064970 10.63267745 0.00655379 -0.00886579 -0.00146013
C 3.18413442 2.95575240 10.21057777 0.00211102 0.00474367 0.00267314
C 2.11646837 16.65159745 1.09412332 -0.00319688 -0.00536170 -0.00106909
C 23.92459771 9.09711185 15.28473850 -0.00319797 0.00576299 -0.00345205
C 0.61463097 12.51165332 10.71917612 -0.00410629 -0.00504665 -0.00608462
C 2.71923345 9.70103619 29.98196912 0.00386388 -0.00211079 -0.00725558
C 8.58460996 19.60908172 13.18657351 0.00127361 -0.00347080 0.00019395
C 0.97049561 4.26949344 4.08933735 -0.00609161 0.00030002 -0.00261763
C 6.46108256 23.92284778 9.96388345 0.00154074 0.00653736 -0.00190417
C 2.94721970 3.60535934 8.98830027 -0.00029629 -0.00512779 0.00758864
C 1.58140592 15.53920440 0.51219399 0.00301126 0.00523593 -0.00020860
C 0.28039595 8.80885664 15.86136967 0.00019272 -0.00287070 0.00010985
C 1.30146376 12.69999128 11.87770409 -0.00119403 0.00013999 0.00325429
C 2.56720853 9.71727372 28.59072505 -0.00440145 0.00027019 -0.00294402
C 9.34778936 19.44705589 11.99379131 0.00243149 -0.00411619 0.00242423
C 1.16946711 4.04332182 2.74882022 -0.00209631 0.00473900 -0.00415451
C 7.00828916 25.18991021 10.29372010 -0.00215954 0.00637196 0.00178532
C 3.98314998 3.68664244 8.01429204 -0.00254229 -0.00517738 0.00680074
C 2.23137356 14.87286857 30.39838373 -0.01642737 0.00265410 0.00347195
C 0.70278093 9.36919450 17.06565565 0.00167544 -0.00280940 -0.00113118
C 0.59236423 12.92414776 13.05502921 -0.00417709 -0.00834210 -0.00199752
C 3.44586431 10.41228538 27.70514218 0.00180092 -0.00200558 0.00234042
C 10.70514140 19.85188081 12.02211528 -0.00071640 0.00174939 0.00414540
C 1.87959318 2.80966162 2.29525028 0.00058268 -0.00210973 -0.00058030
C 8.46192923 0.14057345 9.35823139 -0.00134396 0.00408423 -0.00509569
C 4.36016614 4.34425373 5.64563616 -0.00567274 -0.00576364 0.00398921
C 0.47933418 13.08440968 30.22084461 -0.00511901 0.00712921 0.00627207
C 2.45497734 9.35148362 18.81172637 0.00153371 -0.00602911 0.00344451
C 0.70882017 13.42497154 15.46618102 -0.00035420 0.00359402 0.00257382
C 3.96269631 10.77136385 25.30968611 -0.00152092 0.00635139 -0.00470503
C 11.54879415 18.67635707 10.03355937 0.00121585 -0.00443648 -0.00612678
C 1.54477960 3.32121870 0.02625813 0.00144323 0.00259519 -0.00229120
C 4.30303116 14.56610925 25.48251357 -0.00379489 0.00124306 -0.00533774
C 5.84662934 4.56729009 5.87978568 -0.00179587 0.00096919 -0.00639500
C 2.96607199 25.26611473 8.88956746 0.00750796 -0.00209476 -0.00325324
C 10.22364121 6.10312685 27.84796174 0.00783062 0.00163283 0.00465898
C 5.25680154 2.57519286 1.50387486 -0.00055531 -0.00534097 0.00449298
C 3.26452075 10.88589787 23.96671852 0.00594475 0.00340680 -0.00245889
C 3.71693048 13.75740882 2.61853833 -0.00358219 0.00968340 -0.00243238
C 4.73308041 5.06652812 14.23388269 -0.00769618 0.00866349 -0.00589370
C 8.33945857 1.23994375 14.97743870 0.00214312 0.00430098 -0.00604874
C 1.10530277 7.61714661 24.73574444 0.00037562 -0.00054108 0.00748747
C 24.31560972 11.88568100 22.22587006 0.00083449 -0.00320367 -0.00579494
C 13.00069664 4.87534721 24.84683108 0.00749641 0.01444419 -0.00115145
C 20.01149724 10.92931014 2.12192855 0.00480094 0.01228331 -0.00609429
C 6.66183732 10.11741655 13.28371576 0.00670057 0.00532093 0.00793963
C 12.08067901 22.28215188 24.18040512 0.00188887 0.00260797 -0.00154298
C 6.54730821 6.39152125 18.01963508 0.00248624 0.00094858 -0.00037452
C 7.39914478 1.61487582 14.12707292 0.00057796 0.00280595 -0.00414159
C 2.41400801 7.31554838 24.65245468 -0.00397939 -0.00001597 -0.00225223
C 0.34707494 12.90075911 21.85812535 -0.00067338 0.00490509 -0.00185621
C 13.79913052 4.84246948 23.71161351 -0.00089385 -0.00296949 0.00355314
C 20.54196912 10.57715544 0.87913030 0.00272786 0.00452283 -0.00238835
C 5.35085996 10.24437163 12.84347355 -0.00005967 0.00901820 -0.00256707
C 12.57724640 23.39116818 24.88694315 -0.00316686 0.00589152 -0.00385494
C 7.53503667 5.82132789 18.79697432 0.00055070 0.00428988 -0.00241194
C 7.65789950 2.38943394 13.02298754 0.00138487 0.00109476 -0.00124850
C 2.99780969 6.46754499 25.60270571 -0.00104995 -0.00622112 -0.00050502
C 24.80139608 13.81114077 20.89303805 0.00043823 0.00337421 -0.00350128
C 13.29459721 4.27003162 22.60280042 0.00373339 0.00100420 -0.00509614
C 21.00743338 11.58337660 30.97746697 -0.00099361 0.00632306 -0.00416692
C 4.23673026 10.48755388 13.72778348 -0.00043490 0.00003923 -0.00550125
C 11.89066662 23.90430480 26.01937890 -0.00234773 0.00307659 0.00477657
C 8.06890794 4.56216467 18.47249798 0.00550579 0.00168559 0.00823398
C 8.95143466 2.98161019 12.81569269 0.00554922 -0.00649235 0.00615650
C 2.20554968 5.97060828 26.65797244 0.00059614 -0.00408067 0.00642146
C 23.51499453 13.74212612 20.37714337 -0.00311380 -0.00152228 0.00375485
C 11.98504423 3.72919948 22.61316197 0.00314651 0.00716727 -0.00206260
C 20.98073233 12.88889252 0.40245572 -0.00363030 0.00235342 -0.00466459
C 4.53458126 10.39519725 15.15842634 0.00103415 -0.00420208 0.00991093
C 10.80132547 23.20346289 26.44835285 0.00796125 -0.00713812 -0.00245397
C 7.68267953 3.91153079 17.24652664 0.00066036 -0.00157771 0.00239041
C 9.95405879 2.47003603 13.62627137 0.00270069 -0.00743461 0.00635619
C 0.95613472 6.48620251 26.81649932 0.00060942 0.00165776 0.00403480
C 22.56340552 12.88847884 20.90778556 -0.01123731 -0.00052256 -0.00130210
C 11.20345009 3.80125613 23.76078349 0.00236617 0.00110085 -0.00588913
C 20.54173896 13.26495153 1.68326727 0.00026469 0.00546212 -0.00646727
C 5.84994383 10.12026687 15.51580244 -0.00215975 -0.00695584 0.00184739
C 10.20504964 22.20672744 25.70135233 -0.00139432 -0.00857617 -0.00454872
C 6.81108327 4.52208677 16.40021989 0.00057599 -0.00452600 -0.01053650
C 9.68341197 1.64617631 14.78395946 0.00370185 0.00086538 0.00391149
C 0.35179323 7.29955192 25.85952002 -0.00850577 0.00265040 0.00349709
C 23.01313364 11.84799164 21.80659378 -0.00503136 0.00347741 -0.00725298
C 11.60822903 4.51702078 24.88961314 0.00560351 -0.00415387 -0.00540166
C 20.07493550 12.28436192 2.56504524 0.00254421 0.00469980 -0.00230623
C 6.92320160 9.97604614 14.65540547 -0.00393415 0.00081669 0.00442225
C 10.85862450 21.72751939 24.54281447 0.00110032 -0.00489077 0.01294335
C 6.23643554 5.68592690 16.80996188 0.00216051 -0.00584858 0.00136740
C 10.58717903 0.46847138 16.69957143 -0.00259789 -0.00314924 0.00574469
C 23.18887809 7.61782513 27.13387098 0.00313826 0.00058469 0.00523852
C 22.27356142 9.96075698 23.10936658 -0.00250324 0.00535963 -0.00080849
C 11.27056943 5.29252566 27.09192722 -0.00200942 -0.00284869 -0.00561646
C 19.05054664 13.72887515 4.21526015 0.00109262 -0.00078840 0.00038220
C 8.60507602 10.01745309 16.36048542 0.00235337 -0.00991179 0.00239523
C 10.43718941 20.61354004 22.48865230 0.00073441 -0.00829950 0.00151972
C 5.30984995 6.36568712 14.59769970 0.00163291 0.00379016 0.00175009
C 12.52089502 23.94824753 14.46343130 -0.00344746 0.00522631 0.00368117
C 22.11606732 8.60926317 27.35530535 0.00477967 0.00676039 -0.01173881
C 18.53015728 22.35170165 19.88246935 -0.00109796 -0.00139942 0.00039611
C 3.60983766 8.62699523 19.42674493 -0.00084327 0.00946397 0.00442968
C 2.10741957 3.85336441 17.20126062 0.00514900 -0.00059089 -0.00666568
C 10.04232346 9.58725288 16.62849769 0.00051632 -0.00263089 -0.00042650