1920
Time=98999.99999996 pbc="T T T" Lattice="24.83536677 0.00000000 0.00000000 0.00000000 27.08592320 0.00000000 0.00000000 0.00000000 30.72014010" energy=-12235.50294441 virial="-95.68852412 -12.93495074 -21.79170679 -12.93495074 -55.65280733 -23.77114203 -21.79170679 -23.77114203 -56.96802304" stress="-0.00218899 -0.00064521 -0.00109179 -0.00064521 -0.00035359 -0.00110438 -0.00109179 -0.00110438 -0.00040122" Properties=species:S:1:pos:R:3:vel:R:3
O 4.26266100 23.32600773 12.75355634 -0.00028796 -0.00594834 0.00502465
O 4.57634624 1.46541601 11.49041270 -0.00278270 -0.00782584 0.00000239
O 3.39234088 17.98822137 1.19442610 0.00221706 -0.00182766 0.00139535
O 21.33030318 10.79643159 15.93295309 -0.00633362 0.00074088 -0.00408096
O 23.63163907 11.34651905 9.88176161 -0.00168907 -0.00267729 -0.00036578
O 3.66196064 10.89269772 1.62468741 -0.00491783 0.00059509 -0.00096890
O 7.74036349 20.23174935 14.37216035 -0.00192100 -0.00547437 0.00292041
O 24.62405149 2.96217906 6.15552121 0.00467268 -0.00145332 0.00292171
O 8.81235749 27.00780750 17.23435457 0.00484805 0.00085256 0.00598031
O 4.50609785 4.62269572 4.46742065 -0.00610390 -0.00180793 -0.00320234
O 23.86485591 13.33384273 0.56943134 -0.00106157 0.00294964 0.00592981
O 12.32834336 5.13614508 26.68234925 0.00287408 0.00337165 0.00398134
O 19.38295126 14.77793070 3.89491748 -0.00074785 0.00270209 0.00053661
O 5.01653594 12.18218363 26.17581677 0.00017042 -0.00090211 0.00028598
O 11.12134624 18.50290457 9.27586468 -0.00245086 0.00189522 0.00446104
O 5.94416479 7.18668963 13.24710078 0.00545001 0.00183515 -0.00008566
O 6.65546966 2.85159738 12.02328483 0.00386844 -0.00440852 -0.00120533
O 4.31930439 7.32542747 25.30200382 -0.00165726 -0.00376689 0.00405578
O 1.29778560 15.79519900 20.12711474 -0.00003303 0.00249638 0.00000546
O 15.03317985 4.33907537 20.91696316 -0.00057904 0.00160713 -0.00038382
O 21.12074519 11.20052312 29.80550474 -0.00653003 0.00621134 0.00564822
O 3.50275789 10.39722072 11.47829095 -0.00232631 0.00394371 -0.00228330
O 11.83331160 25.65401077 26.43389474 0.00129526 -0.00247315 -0.00099824
O 8.48270972 4.02700941 19.79477327 -0.00578064 -0.00085727 -0.00251303
O 8.62800157 0.54621185 10.83842594 0.00365619 0.00306661 -0.00412850
O 23.37102156 7.81886914 27.55443921 0.00091751 -0.00014172 0.00105914
O 23.89596520 11.14862070 23.58005151 0.00262817 0.00987746 -0.00717806
O 2.10313949 11.21457182 18.74678019 0.00151513 -0.00109331 0.00593640
O 24.19023431 14.39580407 15.42521021 0.00387857 -0.00611411 0.00417130
O 7.54172819 11.24882002 16.47457712 -0.00269175 0.00498002 -0.00461800
O 12.29590802 20.71366581 22.96439746 -0.00306121 0.00191511 -0.00387083
O 0.51620960 4.78149268 0.29411716 0.00892083 -0.00139727 -0.00433453
O 17.55979620 21.28494657 8.86672817 -0.00698475 0.00079954 0.00333926
O 4.98772378 20.72342060 8.60679375 0.00208012 0.00263926 0.00092457
O 6.70572249 24.98059101 2.51891669 0.00119204 0.00173832 -0.00121015
O 5.58553996 18.34311001 14.63144386 -0.00509431 0.00501540 0.00031320
O 5.45946228 24.99576739 18.15652303 -0.00264337 0.00290835 0.00212102
O 3.06706222 26.53665729 30.55127132 -0.00058702 0.00277210 -0.00299922
O 7.73179796 19.77351567 4.62072369 0.00625505 -0.00493685 0.00018268
O 2.81752586 25.55720670 27.05074147 -0.00917342 0.00015462 0.00576728
O 2.45848193 16.87966398 24.75914240 0.00710641 -0.00648667 0.00145881
O 3.07642863 17.45560521 13.74279266 -0.00517915 0.00116787 0.00373600
O 3.89438789 22.85756662 7.73774906 0.00037928 0.00260860 -0.00194360
O 4.04549127 19.70006089 30.05725835 -0.00388282 0.00374722 0.00553897
O 4.89186117 1.03313289 1.04490503 0.00217139 0.00214163 -0.00089384
O 2.01534737 24.51902533 5.51638524 -0.00052158 0.00454703 -0.00512219
O 3.22341527 15.35778270 4.36954469 0.00285533 0.00214499 -0.00456224
O 22.53694784 18.64768623 22.17782392 0.00272961 0.00641528 0.00295385
O 22.35529966 14.36509965 28.88950113 0.00368336 -0.00054217 0.00047160
O 24.04675121 19.11482661 3.60760740 0.00418305 -0.00013854 0.00083925
O 0.51726012 21.64842217 24.43208601 -0.00557215 0.00347644 0.00072190
O 7.70913014 24.90872417 29.03079428 0.00348320 -0.00315475 0.00008658
O 4.43358830 2.76785560 25.48440596 0.00248946 0.00113750 -0.00059507
O 4.93702440 17.65356093 24.76322514 0.00307618 0.00271984 -0.00075250
O 3.87100691 11.93348591 20.45881497 -0.00349956 0.00258243 0.00344419
O 18.10789856 19.06208202 26.79169102 -0.00421794 -0.00373067 -0.00191132
O 14.45668283 22.20304122 14.48231023 0.00149397 0.00017126 0.00025853
O 5.31442556 23.06962577 1.24715139 -0.00375737 -0.00075998 0.00345382
O 22.15039334 23.23547113 19.47670491 0.00915513 -0.00581564 -0.00348036
O 3.94629422 15.70555010 19.98836725 -0.00025662 -0.00051135 0.00352700
O 4.91176523 4.32234500 17.60822270 -0.00583853 -0.00092664 -0.01239401
O 4.14992811 23.96777747 25.62781737 -0.00179981 0.00264909 -0.00221131
O 8.70892330 16.18589637 20.67517731 -0.00836029 0.00397225 -0.00231796
O 20.35549830 25.44690840 24.98262302 0.00108651 -0.00352956 0.00617584
O 3.13242107 6.01303717 2.90356112 -0.00252935 0.00483990 -0.00303472
O 8.47391029 7.63286875 12.34392526 0.00269931 -0.00514333 0.00084857
O 16.14364077 10.20477744 26.46150960 0.00763853 0.00114967 0.00455504
O 10.94038364 9.91560070 12.86147439 0.00965124 0.00254754 -0.00865841
O 11.25354175 11.45297518 8.04204074 -0.00264242 0.00601214 0.00644349
O 13.69727922 10.22091006 6.61306892 0.00037243 0.00161523 0.00414195
O 18.51121754 4.28357104 11.76006513 0.00523308 0.00256437 -0.00214069
O 20.19625641 12.61776798 13.18036767 0.00547460 -0.00000126 -0.00748537
O 23.41948782 1.57159823 15.65514540 -0.00000797 -0.00512295 0.00162366
O 8.31223784 3.53947255 7.59329739 0.00754941 0.00142938 0.00422105
O 13.98523566 14.22295260 30.69320636 -0.00682660 -0.00859366 0.00177867
O 2.19315418 8.70781062 2.41717047 -0.00010690 -0.00063154 0.00976399
O 6.44206695 17.52798918 29.55250411 0.00731568 0.00052157 -0.00205813
O 19.62070447 10.02669445 9.25380337 0.00270473 0.00286231 -0.00378717
O 17.56365161 2.91980210 5.64222311 0.00428352 -0.00308621 -0.00027991
O 20.61228372 4.16431355 26.44839315 -0.00004194 -0.00070657 -0.00349020
O 0.59474460 25.58394421 22.40304605 -0.00468192 0.00263785 -0.00350892
O 6.50614942 11.96229931 24.04928637 0.00208001 -0.00450700 0.00191445
O 7.84198548 9.99966430 18.68421673 0.00545238 -0.00007169 -0.01020705
O 21.98640647 7.06662118 29.56222686 0.00433062 -0.00502138 0.00253513
O 7.88601571 11.24884342 30.28134283 -0.00633174 -0.00555579 -0.00116844
O 19.55660455 1.52780013 15.00905444 -0.00026351 0.00046950 -0.00341439
O 14.40862752 2.52262608 18.79294045 -0.00254342 -0.00239120 0.00270761
O 18.10602566 7.96340951 0.26350291 0.00145923 0.00125972 -0.00436945
O 5.08584110 6.62716620 27.77610171 0.00247146 -0.00264594 -0.00569094
O 8.23938168 4.83471338 22.14407172 -0.00217115 0.00091402 0.00398665
O 11.25095932 14.11539306 21.76457211 0.00380554 0.00476034 -0.00259953
O 15.54970115 13.92847333 14.28435626 0.00195013 -0.00168284 0.00072707
O 8.44975225 11.33163657 1.97647021 -0.00578192 0.00019377 -0.00307696
O 19.94435993 5.78551302 21.36592143 -0.00504566 -0.00135899 -0.00105726
O 12.35362132 7.84279362 13.65124505 -0.00559374 -0.00063476 0.00160794
O 14.17974508 12.39142015 11.37383014 0.00080771 0.00225983 0.00055745
O 10.55968938 9.60355920 29.23113915 -0.00237827 0.00417570 -0.00270548
O 3.02425342 13.21665638 5.93008230 -0.00084734 -0.00877594 0.00583312
O 12.52913563 6.30820507 3.56276075 -0.00212676 0.00037644 0.00114564
O 24.53517785 18.45492443 10.10834694 0.00489622 -0.00265268 0.00030276
O 11.87561011 25.40063917 8.97218412 0.00531028 0.00109536 0.00527709
O 18.08289219 23.13360396 14.28602546 0.00211854 0.00652939 -0.00533586
O 8.73325902 16.24988681 11.27866610 -0.00234208 0.00611437 0.00318791
O 8.94452672 18.82300548 7.95562157 -0.00218820 -0.00093405 0.00041401
O 15.72001619 10.59715232 18.59801469 0.00146091 0.00721840 0.00192442
O 9.40686725 10.94942008 9.69806250 -0.00252791 -0.00374688 -0.00666628
O 14.73576878 7.94144902 9.28032646 0.00163483 0.00460984 -0.00149938
O 11.96807691 3.99474347 2.72721819 -0.00420292 0.00357090 -0.00034319
O 7.75947696 1.58442505 26.36392230 -0.00113262 0.00464521 -0.00287026
O 17.37009341 2.34094315 13.37375985 -0.00007706 -0.00169754 0.00084350
O 8.93658957 14.57076450 4.19264057 0.00356022 -0.00330057 0.00362353
O 14.94510172 18.37220070 19.66455960 -0.00751327 -0.00393358 -0.00192152
O 16.69542620 16.58728555 19.92117443 -0.00445003 0.00235026 -0.00355013
O 8.11359753 16.70390479 22.99983740 0.00155921 -0.00065883 0.00775384
O 16.75136247 25.79227181 7.87054988 0.00336571 0.00263608 -0.00217787
O 7.45661438 0.29395291 28.54432166 0.00483849 0.00053062 0.00003962
O 9.48165910 25.89356897 19.62571364 0.00140170 0.00003035 -0.00043059
O 20.63480955 20.05087482 18.99826517 -0.00068563 -0.00166227 -0.00494218
O 11.61782503 15.94319043 16.38415291 -0.00136846 -0.00157383 -0.00655542
O 15.23926455 24.73381131 18.04451670 -0.00736432 0.00254471 -0.00250836
O 12.70436113 13.51078992 2.90121297 0.00325643 -0.00256411 0.00065657
O 10.77935593 11.40727845 27.44199663 0.00539857 -0.00198953 0.00024310
O 13.04712831 1.69917395 12.08857823 0.00762133 -0.00420637 0.00100899
O 21.21725606 18.30835773 17.05817409 -0.00447943 0.00253721 0.00151603
O 8.98808827 24.67058552 14.78914515 0.00626086 -0.00356538 0.00077279
O 16.70578592 18.56015388 24.04654333 -0.00658372 0.00486794 -0.00053728
O 6.58601520 16.44520911 12.57321061 -0.00350558 -0.00836922 -0.00078525
O 11.93428857 24.16320770 6.59639880 -0.00501443 -0.00069088 -0.00264109
O 20.86373164 20.16918832 5.41326499 -0.00189913 0.00288871 -0.00022105
O 24.66718096 5.46156716 17.27036006 0.00030866 0.00018928 0.00353700
O 9.96270876 19.92736798 3.23048892 0.00657967 0.00378778 -0.00186425
O 17.85752267 7.55280871 4.59205024 0.00435065 0.00636081 0.00184246
O 13.35628060 14.69507441 10.33833117 0.00580632 -0.00347551 -0.00250767
O 23.17118044 11.25849249 1.99507700 0.00317802 0.00498112 -0.00245351
O 19.98029632 3.06526038 6.58418364 -0.00184421 0.00018705 -0.00697075
O 21.60780238 27.06576995 4.72998254 0.00467933 0.00299804 -0.00481532
O 7.39539270 21.53221891 20.38643217 -0.00348018 -0.00929340 0.00494057
O 19.77792352 8.95529029 14.66739336 -0.00261749 -0.00121294 -0.00009726
O 12.74548816 23.97719469 30.24691499 0.00415432 0.00307177 0.00369836
O 20.29377973 12.94332212 28.14499767 0.00113634 -0.00055345 -0.00046457
O 11.39327781 6.45961759 22.05998768 0.00290080 0.00352221 -0.00148235
O 0.01700764 9.81652626 8.15114879 0.00388564 0.00006235 -0.00013177
O 23.39352508 23.88750294 9.35276336 -0.00630748 -0.00398862 -0.00129082
O 0.27199205 6.25559481 19.69037451 0.00362117 0.00794252 -0.00423439
O 2.02775508 23.31199185 23.18189508 0.00560048 0.00296317 -0.00362473
O 14.96227581 20.03897495 25.37737550 -0.00137524 0.00391248 -0.00117313
O 18.78047091 7.27867116 23.23022932 -0.00215272 0.00393541 -0.00086411
O 19.44321526 12.95193082 21.49914334 -0.00321371 0.00113798 0.00201474
O 14.80539819 11.06323596 24.44854597 0.00658087 -0.00061652 -0.00336707
O 5.73328709 3.60368402 19.84167962 -0.00294210 0.00020227 0.00065032
O 20.63854930 23.81372757 0.39077064 0.00522807 0.00153402 0.00159910
O 21.51020526 3.34186551 24.03157881 -0.00071231 -0.00773599 -0.00015647
O 16.79497288 25.07600295 5.37627370 0.00018810 0.00464632 0.00011610
O 9.31164190 19.08549604 27.97119616 0.00292412 -0.00036936 0.00032445
O 17.22720973 2.93837150 27.49718444 -0.00861063 0.00487710 0.00087166
O 23.33584340 5.04545109 6.46743609 0.00291059 0.00197197 -0.00469354
O 12.38898927 18.06874302 15.38074883 -0.00175710 0.00529673 -0.00167688
O 2.26494388 1.62753294 24.94360191 0.00131757 0.00805706 0.00312990
O 24.54773500 21.32651667 26.96091025 -0.00101659 -0.00053596 -0.00106780
O 23.59343925 1.62398335 29.67442669 0.00299409 0.00551667 -0.00455700
O 23.62731411 21.54136506 8.51256086 -0.00091863 -0.00265892 0.00100491
O 17.64944976 18.38818451 18.18559672 -0.00598068 -0.00196519 -0.00460854
O 12.41099993 4.28782611 29.16880378 -0.00309976 -0.00634030 -0.00455553
O 24.63876748 22.14830064 14.14802210 0.00078280 0.00267002 -0.00626905
O 23.26653674 2.71098654 13.34204740 0.00152553 -0.00125332 0.00257834
O 22.96633963 16.11210625 0.05120599 -0.00689418 0.00556090 0.00611020
O 17.05708039 17.16884372 28.14357387 -0.00275524 0.00219407 -0.00118945
O 13.94691040 22.39501617 6.08292098 0.00160431 0.00277596 0.00171754
O 1.34313262 9.23720474 12.43999018 -0.00289005 -0.00580081 -0.00229699
O 20.41709311 15.15864956 13.40086111 -0.00026142 0.00196750 0.00231716
O 16.65637650 7.37210784 2.33572405 0.00075610 -0.00508037 -0.00435872
O 24.18736572 16.53666360 4.07779959 -0.00521495 0.00403799 0.00116010
O 17.56611371 21.48266761 27.22294381 -0.00430436 -0.00376752 -0.00197994
O 18.94294664 17.19401954 4.43000789 -0.00015969 0.00553731 0.00235943
O 11.90891205 18.25470743 2.92850313 -0.00164140 -0.00207146 -0.00650584
O 19.66980338 10.68040064 20.39798670 0.00070171 0.00277330 -0.00008524
O 20.64062096 7.51726432 9.67138839 0.00714159 0.00154928 -0.00385004
O 19.72597780 0.83502911 1.74749585 0.00037821 -0.00043037 0.00314866
O 22.76277969 22.06567449 15.97533980 0.00102072 -0.00204484 0.00356343
O 2.09619308 17.05017179 9.88325713 0.00033910 0.00117657 -0.00148799
O 15.16017894 23.08833664 21.54056135 0.00152594 -0.00427860 -0.00291664
O 24.54278573 16.91229401 18.38143975 0.00549779 0.00135862 0.00091189
O 13.81355144 26.69664432 19.16514628 -0.00081294 0.00528577 0.00503965
O 17.59525205 14.24769186 15.63843892 -0.00168725 0.00647671 0.00015229
O 17.81111025 18.96231425 7.67332279 -0.00118639 0.00261326 0.00721328
O 14.73133875 25.40208341 29.71912764 0.00116249 -0.00205334 -0.00121260
O 17.71433903 25.24943615 18.38530559 0.00077409 0.00185695 0.00484593
O 2.26716857 0.71663245 12.56538668 -0.00186367 0.00137392 -0.00753210
O 19.00985718 26.47555448 9.85448410 -0.00063203 -0.00490391 0.00082840
O 3.02518262 23.93517194 17.81191572 -0.00302716 0.00264767 -0.00026759
O 12.58028038 0.64708972 25.09968574 0.00023941 0.00121158 0.00117969
O 18.31060519 22.94660741 1.29051862 -0.00299265 -0.00223529 0.00040070
N 13.95800713 23.44044251 12.53217635 0.00178746 0.00664122 0.00061122
N 3.84060721 3.65231411 6.42447960 -0.00218775 -0.00434304 0.00441261
N 4.52063791 25.10567126 7.59816355 -0.00601914 0.00115326 0.00288019
N 1.85597376 9.92604718 16.83885927 -0.00062130 0.00444675 0.00304174
N 3.07984605 3.05138822 17.87200594 -0.00033182 -0.00811110 0.00517960
N 3.02716659 11.13776800 26.78793946 0.01075918 0.00021427 0.00027319
N 4.85428097 15.31587590 2.78747722 0.00310474 0.00387965 -0.00715538
N 1.50508759 2.81460286 0.99751239 -0.00650242 0.00318841 -0.00523256
N 1.52690583 14.82732245 25.02955465 -0.00061810 -0.00121204 0.00259743
N 24.05994420 9.17927514 25.86928582 -0.00067849 -0.00461022 0.00236452
N 21.21795025 23.46313833 21.56065732 0.00309483 0.00161081 0.00681638
N 11.03739164 4.46993814 24.84670693 0.00039723 -0.00235674 0.00006327
N 6.02309129 2.76588011 0.10525243 0.00048803 -0.00102067 -0.00431573
N 8.18359056 10.18930317 14.54631520 -0.01195506 0.00383261 -0.00457629
N 7.61630939 15.64902927 18.78423877 -0.00192693 -0.00387212 0.00136773
N 6.64919741 6.98629698 15.41452201 -0.00289881 0.00036183 -0.00006083
N 8.09830840 25.81050689 9.57886349 0.00174308 0.00148926 0.00369417
N 2.05342791 19.40429867 13.06800399 0.00064780 0.00618540 0.00364819
N 0.90582886 13.42102068 29.91239763 -0.00051481 0.00538045 0.00118908
N 5.36255761 17.49530777 20.06834521 0.00390339 -0.00215255 -0.00616846
N 1.20062931 13.79311453 14.29098720 0.00024207 0.00146255 -0.00289984
N 0.77280737 23.49184816 3.91088752 -0.00229719 -0.00370937 -0.00046745
N 12.00738103 19.72799868 11.02368464 -0.00738942 -0.00030472 0.00305850
N 22.21117297 25.78225237 26.23506188 0.00209907 0.00158356 -0.00099919
N 10.22016257 0.58855876 15.59843682 -0.00183486 -0.00351853 0.00514242
N 3.35446574 22.06717507 1.29541236 -0.00364332 0.00780337 -0.00081268
N 22.79682006 11.54093142 21.64435978 -0.00345107 -0.00049828 -0.00797888
N 3.48338313 21.45414871 28.65832115 0.00423006 -0.00197817 -0.00478805
N 18.62096881 12.57959157 3.93160806 0.00494205 0.00016909 -0.00124944
N 5.85362433 23.15031486 24.32282663 -0.00228000 -0.00557999 0.00376669
N 10.21334967 20.98401266 23.90056447 0.00495042 -0.00191327 0.00181422
N 22.66391967 17.30211831 24.03761427 -0.00235249 -0.00397366 -0.00318954
N 12.61089787 11.24138411 3.35677770 0.00416543 -0.00263711 0.00788921
N 9.96796536 5.01468940 7.57993354 0.00893753 0.00806541 0.00670335
N 14.53241983 5.75852256 8.71660905 0.00390123 0.00553892 -0.00691435
N 13.46115401 14.72590555 14.40756293 -0.00051178 0.00717661 -0.01170254
N 8.58275397 23.36396716 13.03338690 0.00792882 -0.00385718 -0.00148341
N 18.32030678 11.92508577 9.21517445 -0.00792383 0.00576877 -0.00518931
N 7.93783659 15.66268336 5.84917792 -0.00263755 0.00020002 -0.00299631
N 15.44907570 10.50044327 11.10709288 -0.00186991 0.00517068 -0.00511846
N 13.98077554 12.07108202 18.50763867 0.00080413 -0.00066996 -0.00127005
N 8.54978478 6.93943439 22.90284190 0.00002251 -0.00391585 0.00070894
N 12.95785380 2.19703903 9.84443575 -0.00546141 0.00054671 0.00872643
N 0.16150757 8.23370899 3.43388446 -0.00587700 0.00644261 0.00524088
N 7.84345857 1.53948962 24.15278324 -0.00079000 0.00305596 -0.00502111
N 20.47994898 4.61358384 19.60592531 0.00459419 0.00449458 0.00174872
N 6.96624899 14.45251187 13.64855476 0.00881072 -0.00363106 0.00119389
N 19.64149429 3.40221095 28.34871625 0.00931466 -0.00028061 0.00517752
N 6.28293807 7.71117917 29.37881869 -0.00362896 0.00271840 0.00904926
N 7.35908762 11.94332255 9.49074435 0.00436528 -0.00278822 -0.00167086
N 15.51133834 12.67453966 0.68515496 0.00183932 -0.00236343 0.00352936
N 22.11185675 18.89310669 15.06953039 -0.00398262 -0.00541352 -0.00008687
N 8.45854575 9.67394548 3.57098166 0.00318217 0.00182349 0.00203806
N 15.69671242 1.14606529 14.34886569 -0.00078448 -0.00351983 -0.00152118
N 17.09579362 5.01360428 6.32560397 0.00249752 0.00502908 0.00472270
N 9.67526207 24.07403455 6.09300970 0.00139636 -0.00076836 0.00235798
N 24.01015320 0.26526172 17.35966651 0.00493488 -0.00440146 0.00015087
N 10.81173201 13.52646585 26.74850514 -0.00394389 -0.00455344 0.00213183
N 11.91408094 11.88590759 21.92257436 0.00400905 0.00132749 0.00102578
N 10.58789253 2.44998929 1.94544189 0.00313252 -0.00314659 0.00529894
N 7.18380786 16.20735943 27.81276976 0.00327981 0.00340010 -0.00252021
N 18.22473362 17.17728110 23.11968415 0.00211868 0.00565967 0.00090477
N 13.52689324 6.37158305 14.93041417 0.00229443 0.00073803 -0.00718150
N 13.51586131 20.00978605 20.31144821 0.00478916 0.00117718 0.00294813
N 19.81781644 17.74985978 7.75826396 0.00573165 0.00288023 0.00191648
N 20.49534578 6.82083867 13.96107494 -0.00311116 -0.00193790 0.00276403
N 15.04122713 8.45134231 1.15036785 -0.00284490 -0.00681099 0.00035354
N 22.85527810 7.20781284 7.03540840 -0.00118885 0.00209189 -0.00089341
N 20.80612940 25.49054871 10.87178054 -0.00170616 0.00461560 0.00404733
N 1.45824592 10.73235459 6.60934454 0.00029976 -0.00206152 0.00541686
N 13.33933565 18.51527388 1.30166856 -0.00526318 -0.00887726 -0.00574983
N 22.70959116 3.18630606 0.35691316 -0.00344590 0.00213702 -0.00042753
N 0.94982394 6.99351051 11.84606596 -0.00503083 -0.00873983 -0.00228573
N 10.84716796 20.36203426 29.18717190 0.00576147 -0.00079950 0.00006565
N 18.80486956 25.93531389 16.52690038 -0.00794443 -0.00341819 -0.00333475
N 18.38545678 12.89088474 26.94377737 -0.00167715 0.00356410 -0.00129490
N 18.43716607 23.29092961 26.06018655 0.00200575 -0.00191714 -0.00580348
N 1.70237980 3.43492788 23.70804033 -0.00083523 0.00144509 -0.00548821
N 14.79535605 0.62425690 24.53242689 0.00293305 0.00129676 0.00221630
N 23.94700972 7.41002062 21.25233971 -0.00734771 0.00287125 0.00577968
N 18.88872962 25.25448499 4.33480803 -0.00270810 0.00191434 -0.00447385
N 19.95376089 17.44017176 13.19777474 0.00330057 -0.00057900 -0.00645679
N 10.69524918 24.54842477 0.39493211 -0.00566104 0.00130636 -0.00251879
N 2.26058544 27.06842389 14.70942923 -0.00380259 0.00584326 0.00329730
N 14.45849739 18.32953273 14.48294692 -0.00709161 0.00405449 -0.00109536
N 18.34436574 17.94885892 2.30679684 -0.00001376 -0.00527094 0.00219714
N 22.90280870 25.92633115 8.65276125 0.00651128 -0.00350865 0.00306518
N 16.27480947 23.89111210 1.29172884 -0.00237458 -0.00307735 0.00281852
N 6.78299786 23.68654359 20.44068481 -0.00239361 0.00435471 -0.00295013
N 16.55344379 25.78665774 28.33370774 0.00010187 0.00047157 -0.00002303
N 16.52044489 5.11530609 27.80690884 -0.00086085 -0.00496636 0.00202344
N 24.50782033 14.69334154 5.37325560 -0.00485963 0.00085255 0.00388367
N 13.16424547 7.17929937 20.87484210 0.00041943 0.00513160 0.00192144
N 1.70766460 22.20812484 18.31887083 0.00064995 -0.00033520 -0.00016588
N 22.89014981 20.02591289 27.82440208 -0.01034686 -0.00360228 -0.00047959
N 18.96191518 9.62098212 18.48211112 0.00730978 -0.00011944 -0.00838684
C 6.76961079 25.69689591 11.63276812 0.00783446 -0.00722550 0.00039916
C 5.27619067 2.57442962 8.16142880 0.00978613 0.00041240 -0.00714314
C 2.60227919 15.14903724 29.74834869 0.00510218 -0.00276959 0.00217388
C 24.66199675 11.23581192 17.32896947 0.00069432 0.00083299 -0.00039140
C 23.96137691 13.25674457 12.98168176 0.00557351 0.00461237 -0.00470466
C 4.14924579 11.87242208 28.84113607 0.00001636 0.00481698 0.00539634
C 11.07155516 20.31141575 13.17422911 0.00709032 0.00072024 0.00228406
C 1.50610931 1.91178698 3.15325169 0.00374243 -0.00281543 -0.00103953
C 5.73319992 25.09109675 12.34232702 -0.00577584 -0.00811610 0.00113976
C 5.43167622 1.95030401 9.35783916 0.00912030 0.00467964 -0.00147982
C 3.23147823 16.27997689 30.26994801 -0.00202241 -0.00755104 0.00024023
C 23.33239706 11.39759452 17.03272479 0.00026368 0.00577643 0.00243995
C 23.31465363 12.71741770 11.89149224 -0.00026584 -0.00586270 -0.00140326
C 4.26415343 11.80198867 30.21069999 0.00138935 -0.00339940 -0.00311270
C 10.04518716 20.54252323 14.01289451 0.00059914 -0.00061610 0.00211500
C 1.04781230 1.82801860 4.44183273 0.00328342 0.00354173 0.00405416
C 5.20441271 23.87505438 11.95183926 0.00060036 0.00013410 0.00368069
C 4.35742817 1.84700494 10.16181361 -0.00050145 -0.00093418 0.00053835
C 2.70058032 16.99957893 0.64329340 0.00057992 -0.00135584 0.00320979
C 22.65825878 10.70206125 16.03252195 0.00539331 -0.00491348 -0.00396353
C 24.12946274 12.14785458 10.85496628 -0.00404079 -0.00293902 -0.00273147
C 3.48341878 10.93380743 0.29882460 -0.01087188 0.00201328 0.00416236
C 8.80402983 19.90391666 13.69169451 0.00614882 -0.00434740 0.00099160
C 0.40999585 3.02571945 4.96687803 0.00214111 0.00380821 -0.00652248
C 5.54742754 23.32511993 10.66837036 0.00516789 0.00781495 -0.00547513
C 3.03495157 1.99919289 9.68697719 -0.00434388 0.00496763 -0.00195295
C 1.51859357 16.42735438 1.25709020 -0.00779198 -0.00764207 -0.00282766
C 23.42307266 9.94017105 15.16859399 0.00563775 0.00422786 -0.00169840
C 0.63912288 12.39371372 10.89557433 0.00606299 -0.00464377 0.00992350
C 2.46785286 10.21114913 30.31534653 -0.00614723 -0.00334753 -0.00002455
C 8.69913772 19.11520750 12.54256763 0.00431728 0.00051748 0.00198247
C 0.39910095 4.22907060 4.25875822 0.00611999 0.00267891 0.00546782
C 6.51550138 24.06635159 9.92388769 -0.00395371 -0.00137260 -0.00599805
C 2.93723966 2.49142155 8.39380222 0.00433811 -0.00299602 -0.00580342
C 0.90919840 15.33504185 0.68868365 -0.00089335 0.00043965 -0.00035037
C 24.75981717 9.74257854 15.44315003 -0.00226409 0.00185686 0.00940935
C 1.27274838 12.89035125 12.05466943 -0.00010990 0.00368441 0.00066639
C 2.37712025 10.28457917 28.92787980 -0.00293119 0.00108855 -0.00292750
C 9.73777197 19.06743891 11.59583000 -0.00580474 -0.00019398 -0.00064735
C 0.61779122 4.20179500 2.92686886 0.00740860 -0.00130236 -0.00090722
C 7.14951793 25.21289616 10.34853040 0.00648380 -0.00006683 0.00878686
C 4.04698771 2.97535028 7.68013426 0.00980749 0.00808467 -0.00620694
C 1.46914320 14.58237701 30.37888298 -0.00262466 -0.00093265 0.00093140
C 0.57594043 10.29770753 16.56006752 -0.00458559 0.00002031 0.00050446
C 0.53752888 13.38614266 13.10737563 0.00198526 -0.00038389 -0.00520525
C 3.21752025 11.06711801 28.19508660 -0.00021181 -0.00224577 0.00118323
C 10.93429542 19.67579394 11.90254927 0.00244482 0.00202170 0.00334635
C 1.22800465 3.02626869 2.37081054 -0.00062166 -0.00026388 -0.00011983
C 8.64080481 27.00735828 9.75156436 0.00137146 0.00241136 -0.00234395
C 4.64162600 4.50679999 5.72318365 -0.00444956 -0.01114214 -0.00861459
C 24.52862875 12.96026693 30.31152615 -0.00143414 -0.00008453 0.00567030
C 2.56977028 10.38047544 17.93049654 0.00231857 -0.00091324 0.00309494
C 0.52912621 14.06473823 15.45434300 -0.00102942 -0.00259794 0.00123250
C 3.86926757 11.74490663 25.90978594 0.00750904 -0.00132764 0.00540115
C 12.04539150 19.18972514 9.73359002 -0.00842080 0.00254440 0.00084455
C 1.11243452 3.74221165 0.07414738 0.00369453 0.00126153 0.00211986
C 3.51094614 15.40004168 26.30694068 -0.00472406 -0.00290649 -0.00081215
C 5.66719084 5.37419687 6.46328281 -0.00352865 -0.00033791 -0.00893430
C 2.87224063 24.46231808 9.17532888 -0.00018943 0.00852955 0.00158213
C 9.97835204 5.58328528 26.79052795 -0.00177021 0.01162428 -0.00294287
C 5.90592677 2.68924499 2.49703261 0.00942977 0.00200444 0.00558042
C 3.21528653 11.98766272 24.54556723 0.00521001 -0.00008071 -0.00354170
C 2.97452750 13.76618776 2.65131444 0.00843283 0.00208150 0.00366655
C 5.55057517 5.06649992 14.19271776 -0.00324173 0.00193542 -0.01118327
C 7.90330737 0.74363958 14.75220421 -0.00252071 0.00313919 -0.00758432
C 1.25809648 9.14437234 24.60514698 -0.00144132 0.00271235 0.00379160
C 0.16521421 12.56600625 21.56389193 -0.00277985 -0.00170081 -0.00113744
C 13.35967671 4.78532744 24.23349046 0.00328450 -0.00258094 -0.00318794
C 19.59589572 10.91159687 2.40260765 -0.00339861 0.00420081 0.00380556
C 7.00606952 10.23218502 12.42600935 0.00625809 0.00361252 0.00388247
C 11.73240606 22.89449837 24.19288879 0.00572221 0.00256098 -0.00243621
C 7.14909654 6.84428480 17.84326813 -0.00503167 -0.00280009 -0.00120878
C 7.00267564 1.34971681 13.83276616 0.00221909 0.00391239 0.00833321
C 2.51041311 8.60504895 24.38254314 -0.00101221 -0.00321211 0.00654354
C 0.98371757 13.56044758 21.02507265 -0.00038557 0.00282522 0.00122908
C 14.33535432 4.82534375 23.16097965 -0.00744885 0.00199239 0.00055061
C 20.10678925 10.56228500 1.19251802 0.00441458 0.00525621 -0.00537407
C 5.86182972 10.12983346 11.66601325 -0.00107194 0.00437533 -0.00847260
C 12.10847170 24.08929287 24.68651979 -0.00139738 -0.00268228 0.00159167
C 7.42193442 6.06513981 18.89492795 0.00251785 0.00717658 -0.00250520
C 7.48464453 2.24946681 12.86789968 0.00942575 -0.00366376 -0.00215830
C 2.96658998 7.59886775 25.26545553 -0.00242781 -0.00022888 -0.00325215
C 0.52029514 14.72880203 20.38332764 -0.00630209 0.00013701 -0.00963016
C 14.06212135 4.20676664 21.99671624 0.00707400 -0.00538710 0.00605700
C 20.75185955 11.47444528 0.31828189 0.00865609 0.01087304 -0.00632984
C 4.61525119 10.36526909 12.28356692 0.00110161 0.00133017 -0.00240008
C 11.37606703 24.55696563 25.80549584 -0.00432766 -0.00362448 0.00370042
C 8.06281690 4.80944174 18.73097086 -0.00432862 0.00587691 -0.00536095
C 8.86295485 2.48316084 12.82607779 0.00100217 0.00025136 -0.00706470
C 2.11249412 6.78581741 26.02327405 -0.00332225 -0.00715899 0.00499906
C 23.96764865 14.76371202 20.19991626 0.00025915 0.00336239 -0.00227463
C 12.84447798 3.51508146 21.81255722 -0.00536642 -0.00208410 0.00003348
C 20.73964420 12.79301753 0.78966304 0.00569979 -0.00295867 -0.00364712
C 4.54505230 10.69237826 13.65218144 0.00610776 -0.00381121 -0.00085926
C 10.26181151 23.84501299 26.17590980 -0.00038954 -0.01061524 0.00234860
C 8.27018620 4.41744454 17.45896634 -0.00174090 0.00309155 0.00486920
C 9.70787331 1.92681053 13.71768835 0.00611254 0.00189533 -0.00169755
C 0.90350413 7.37780844 26.35920224 -0.00851975 0.00215962 -0.00408776
C 23.12894203 13.72941926 20.55814072 -0.00121335 -0.00243476 -0.00530595
C 11.85620585 3.70561997 22.76806221 -0.00254647 -0.00785688 -0.00093927
C 20.01895373 13.16199456 1.98403587 0.00706969 -0.00439425 0.00749728
C 5.68296823 10.60865709 14.44258432 -0.00087570 0.00731112 0.00371271
C 9.81009877 22.66514797 25.60810050 0.00321530 0.00607399 0.00204338
C 7.88765274 5.12284757 16.32427658 0.00261362 -0.00790035 -0.00354712
C 9.28030719 1.04983998 14.70428705 -0.00346871 -0.00472374 -0.00327843
C 0.46062386 8.55585999 25.65051962 0.00167154 0.00314573 0.00051056
C 23.64644022 12.62207192 21.31910411 -0.00183131 -0.00028636 0.00401329
C 12.12796103 4.25993605 23.98146962 0.00288466 -0.00346963 0.00367178
C 19.39503378 12.25500867 2.80547321 -0.00405942 0.00556157 -0.00197550
C 6.96948264 10.37466772 13.84968581 0.00010439 0.00673794 -0.00897181
C 10.57214121 22.22427409 24.52579131 0.00326936 0.00267297 0.00742982
C 7.19001299 6.31715545 16.47611324 -0.00433426 0.00477644 -0.00839493
C 9.97463507 0.03121086 16.89564279 -0.00671251 -0.00491031 0.00266142
C 23.18296067 8.69040122 26.72552160 0.00687410 0.00084802 0.00536340
C 22.83651138 10.98201307 22.88525816 -0.00290208 0.00123512 0.00050528
C 11.22141062 5.07495945 26.06165023 -0.00581725 -0.00500420 0.00534491
C 18.60749534 13.84533378 4.36461915 -0.00757749 -0.00411807 0.00056182
C 8.40290298 10.68917316 15.78101329 0.00300735 0.00081891 -0.00435061
C 11.14235331 20.30251422 23.09213443 0.00595727 -0.00404117 -0.00320246
C 6.08554558 6.52545237 14.22201908 -0.00128337 -0.00054997 0.01070977
C 12.77580221 23.89660159 14.53975239 0.00172967 -0.00019983 0.00217934
C 21.77559731 9.34947491 26.67787298 -0.00640827 -0.00366950 0.00248444
C 20.83843060 25.20585017 19.97269240 0.00001470 0.00043031 -0.00459137
C 3.91926345 9.83408694 18.12895235 0.00143267 -0.00388725 0.00818990
C 2.75462958 5.44108268 17.56808808 -0.00546389 -0.00366276 -0.00516792
C 9.83876772 10.45871791 16.21455539 -0.00136520 -0.00216009 0.00805258