1920
Time=27000.00000000 pbc="T T T" Lattice="24.85534596 0.00000000 0.00000000 0.00000000 26.87866280 0.00000000 0.00000000 0.00000000 30.82669927" energy=-12234.39663196 virial="-62.75814040 -3.38755860 -27.52955071 -3.38755860 -110.56277445 10.62006613 -27.52955071 10.62006613 -67.30500273" stress="-0.00063131 -0.00021180 -0.00124622 -0.00021180 -0.00299868 0.00044816 -0.00124622 0.00044816 -0.00083429" Properties=species:S:1:pos:R:3:vel:R:3
O 4.35818794 22.36344301 12.38321762 -0.01124148 0.00044189 -0.00262210
O 4.02244620 1.55341105 11.22865462 0.00401566 0.00357352 -0.00357213
O 3.27098254 17.95943037 0.37276281 0.00141947 0.00057415 0.00118344
O 20.85949839 10.26262872 15.79083151 -0.00564688 -0.00481339 0.00317698
O 23.71427711 11.74374066 10.84488156 0.00005176 -0.00041036 -0.00120745
O 4.44353369 10.79014853 0.82268794 0.00364310 -0.00353884 -0.00303259
O 7.06438558 20.43176496 14.80142031 0.00077801 -0.00443563 0.00110209
O 1.22606829 4.03256391 7.68364648 -0.00427904 -0.00264263 -0.00011077
O 9.12668408 0.02754059 16.74779093 0.00684361 -0.00029132 -0.00391851
O 5.15939825 5.44871163 4.60883954 0.00391930 -0.00306849 -0.00252781
O 0.51451910 12.16523012 0.41371464 -0.00267006 0.00125737 -0.00315483
O 12.95324738 6.31838012 27.06476719 0.00086673 -0.00368561 -0.00386606
O 20.51681920 14.27779657 3.86914230 0.00151023 -0.00284481 0.00031951
O 4.96220536 11.07545611 25.29746106 -0.00255081 0.00298730 -0.00782320
O 10.11273260 17.62305911 9.75033828 -0.00308099 -0.00521176 0.00180237
O 5.33194769 6.52768519 13.26424034 0.00434618 0.00291617 -0.00296098
O 7.77285428 2.93850024 11.27350097 -0.00329938 -0.00317725 -0.00229806
O 3.33352044 6.15685497 24.84555946 0.00295897 -0.00340443 0.00151638
O 0.70633305 15.16263699 20.94822229 0.00488829 0.00381977 -0.00429827
O 13.58938044 4.49515642 20.89188125 -0.00355461 0.00114726 0.00297043
O 20.95175681 12.39175234 28.96932638 -0.00603711 0.00217797 0.00075671
O 3.16418062 11.00981556 12.43024384 0.00291036 0.00208254 0.00124354
O 13.16287173 25.12227787 26.58200590 0.00332666 -0.00131775 0.00503195
O 8.33433685 3.88256965 19.61003101 -0.00171570 0.00273251 -0.00037240
O 7.49051684 0.68517075 9.96741645 0.00705079 -0.00368751 -0.00012069
O 22.92366830 7.32389135 28.31947358 0.00759741 -0.00491945 -0.00022953
O 22.98621017 10.37955188 23.94288607 -0.00771817 0.00004511 -0.00179507
O 1.22189813 10.67603499 19.48215226 0.00704201 0.00006152 -0.00103313
O 23.98168534 14.63533912 16.47484243 -0.00051582 0.00166006 0.00255092
O 7.91025166 10.10402802 16.80414148 -0.00354231 -0.00130529 0.00116621
O 10.06224017 22.31927041 21.89079224 -0.00366912 -0.00113132 0.00207801
O 1.40729772 4.57478162 1.42099413 -0.00062244 0.00065973 -0.00357096
O 16.42280301 20.66057416 9.14409081 -0.01175869 -0.00178252 -0.00141959
O 4.39154837 19.71043166 7.79744184 -0.00573250 0.00370379 -0.00023549
O 6.69543955 24.58416548 2.15465698 -0.00180780 0.00731477 -0.00034815
O 5.36082890 18.20202449 14.93272127 0.00243955 -0.00104222 -0.00177105
O 5.13877229 23.64364196 16.94099111 0.00357802 0.00029824 0.00529382
O 3.43544877 26.46948522 29.39832649 -0.00996980 -0.00264409 0.00105780
O 7.92260004 20.15248944 4.24270651 0.00550773 0.00172312 -0.00018664
O 3.82208363 25.59273518 24.40391580 -0.00052630 0.00264624 -0.00127254
O 3.26825378 16.14429866 26.64897966 -0.00396614 -0.00344661 -0.00100899
O 3.38787600 17.33870734 13.67132073 0.00433896 -0.00060485 0.00006578
O 3.47813223 22.34179418 7.05409395 -0.00053097 -0.00367158 0.00457723
O 4.56426564 19.59928315 29.82249842 -0.00293239 0.00290548 -0.00042877
O 4.88149172 1.73579771 30.32588048 0.00613521 -0.00095920 0.00038940
O 1.40751284 25.41388956 4.24552896 -0.00859085 0.00231844 -0.00862054
O 3.81995776 15.51657238 4.75131369 0.00037170 -0.00744905 0.00069628
O 20.74852794 20.02610641 21.94187486 0.00278264 -0.00190170 0.00050679
O 22.11057168 15.91460660 28.84682359 -0.00126179 -0.00295899 -0.00268997
O 24.36398969 18.72641145 4.00240650 -0.01195065 0.00038867 0.00627719
O 0.15746910 21.32172089 21.86800575 0.00827618 -0.00066662 -0.00215755
O 8.32160680 24.49748638 28.96747233 -0.00050876 -0.00083683 0.00408874
O 6.02069243 3.98549248 24.40451462 -0.00658631 0.00204281 0.00269314
O 2.66742700 17.91893594 25.08661528 0.00172605 -0.00105385 0.00079062
O 3.08697115 11.72528965 20.80618473 0.00328736 0.00466549 -0.00415950
O 18.52877490 20.09294495 27.83440183 0.00455768 -0.00507187 0.00332883
O 13.19823495 21.95135086 14.49213796 -0.00539420 0.00738369 0.00172790
O 5.17155302 22.66965075 0.54769274 0.00690070 0.00170300 -0.00231477
O 20.07155072 24.34540210 19.19004448 0.00223298 -0.00077991 0.00232281
O 3.02666865 15.68214618 20.17126590 0.00228932 0.01180951 -0.00204223
O 4.68742617 3.09861395 17.29030900 -0.00518166 -0.00349921 -0.00680303
O 4.93974269 23.41233626 23.81559699 0.00476643 -0.00230410 0.00303104
O 7.15826735 16.81577742 20.99312431 -0.00136399 -0.00003184 0.00408770
O 21.88601332 26.60648560 27.36642135 -0.00185433 0.00267006 -0.00202104
O 3.83856859 5.20153603 2.45796817 0.00307612 -0.00205615 -0.00013243
O 7.69995030 7.02591918 12.45324782 -0.00159847 -0.00043848 -0.00903447
O 15.19871243 10.46735475 26.25485153 0.00137827 0.00182441 -0.00581982
O 10.65602802 9.62026463 12.58025708 0.00735047 0.00037487 -0.00366319
O 11.83248710 11.82698090 7.36211241 -0.00556000 -0.00003926 -0.00015272
O 13.92562384 10.12980243 6.45877788 -0.00708179 0.00578052 0.00091105
O 17.92044279 3.86759767 12.12181045 -0.00215900 0.00317345 -0.00203378
O 19.82929399 12.06866647 13.46744781 -0.00140245 0.01301993 -0.00059119
O 22.27841107 1.66405426 16.41187064 -0.00522613 0.00561850 -0.00145466
O 7.90432918 4.77985993 6.59337572 0.00094926 -0.00172890 -0.00253232
O 14.95345060 13.87217214 0.63157688 0.00755458 -0.00007363 0.00315064
O 2.73101925 8.68041042 2.02307696 -0.00108214 0.00029359 -0.00547276
O 9.21307823 15.82763715 30.18840332 -0.00267301 0.01004047 -0.00467114
O 19.75809128 9.48089257 9.36252146 0.00182486 0.00485257 0.00053499
O 16.19852717 2.39288490 6.20409048 0.00162934 0.00649274 0.00049000
O 19.65344601 3.83082102 27.48979512 0.00018278 -0.00299398 -0.00613342
O 0.87663229 26.80872404 22.91181241 -0.00741530 0.00462479 -0.00483652
O 7.33637894 11.93461892 24.42120469 -0.00245675 -0.00185055 -0.00256318
O 8.08516198 11.48281459 18.93622721 -0.00326005 -0.00099629 -0.00267888
O 21.77387195 7.35691424 30.64289047 -0.00728796 0.00147584 -0.00259801
O 8.42910910 9.46192963 29.79806350 0.00021192 0.00419436 0.00244398
O 18.48361137 0.74089467 15.16234887 0.00363540 0.00335445 -0.00107613
O 12.61132985 2.37788037 19.34649875 -0.00193995 -0.00188755 -0.00657394
O 18.44606612 8.65837531 0.84215572 -0.00003788 0.00223536 -0.00515442
O 4.91069089 6.30355699 26.97646869 -0.00218582 0.00530012 -0.00109650
O 9.26107915 5.52585243 21.26824406 -0.00002158 0.00130984 -0.00445172
O 11.89232634 14.42123774 22.97250870 -0.00004946 -0.00079762 0.00617313
O 15.12571436 13.51768548 14.58031113 -0.00226409 0.00455808 -0.00281526
O 7.90427428 9.24524398 1.52925372 0.00352920 0.00082488 0.00185999
O 19.63912633 4.72036585 21.74366090 -0.00059062 -0.00156057 0.00132518
O 11.80707213 7.42334343 13.50277631 -0.00248022 -0.00325291 0.00287009
O 14.27332402 12.36214196 10.69537622 0.00284836 0.00604731 -0.00232265
O 11.02316676 9.29270777 29.88286019 0.00207099 -0.00289505 0.00283975
O 4.04650674 14.91737433 7.06625826 -0.00209162 0.00774900 -0.00219437
O 13.16082511 6.28362645 3.67399657 -0.00287456 -0.00089996 0.00040783
O 23.90549041 17.55222713 10.75254389 -0.00147114 0.00455878 0.00170438
O 11.39171275 25.41705009 8.60312343 0.00404898 0.00356139 0.00196570
O 17.50823529 22.28177131 13.40547578 -0.00220230 0.00181687 -0.00245795
O 8.81222670 14.54612251 11.70229801 -0.00152884 0.00207579 0.00051603
O 8.26959860 18.79120563 8.37399596 -0.00105423 -0.00331918 0.00420252
O 15.44838518 11.16912905 17.67767455 0.00099398 -0.00080135 -0.00378910
O 8.32414719 8.79762624 8.63291512 -0.00116486 0.00673465 -0.00797939
O 15.24636851 7.65275003 9.54215305 -0.00204007 0.00676683 0.00886405
O 12.00518293 4.32270031 2.40640692 -0.00737622 0.00022259 0.00219286
O 7.78715532 1.44361067 26.35236793 0.00315279 0.00123253 0.00463420
O 16.98530778 1.78494434 13.13737295 0.00426866 -0.00029676 -0.00539685
O 9.65601170 15.32878249 4.20302722 0.00625517 0.00158531 -0.01079003
O 14.38885354 18.31657118 21.47774006 0.00645661 0.00476495 -0.00004156
O 14.82065304 15.68830146 21.80264884 -0.00419371 -0.00052305 0.00575608
O 7.27388589 15.81151257 23.29663354 -0.00608401 0.00283719 -0.00137212
O 16.85653941 24.94526583 7.32112862 0.00036674 -0.00367616 0.00509498
O 7.53683838 0.08731262 28.58566802 0.00128397 -0.00387218 -0.00019512
O 8.85455944 25.79952157 19.16758167 0.00835587 0.00526091 0.00027286
O 18.62043609 17.73839351 18.89216459 -0.00782123 0.00282950 0.00110187
O 11.13748618 15.70664925 16.85285845 0.00229329 0.00119274 -0.00025308
O 14.55140431 24.08405264 18.94747914 -0.00453896 0.00154337 0.00441470
O 12.49068265 14.30499253 2.54590396 0.00062980 -0.00100434 0.00287779
O 11.88570506 13.93058109 27.14983587 0.00062486 0.00577547 0.00169041
O 13.68839441 2.79685596 9.72473634 -0.00172986 -0.00081695 0.00219061
O 20.88800725 18.05069792 17.79343139 -0.00170298 -0.00273603 0.00535737
O 8.78192533 24.64239923 14.34911628 -0.00508790 0.00217610 -0.00546759
O 16.85816007 18.53709519 24.77435821 0.00328813 0.00067378 0.00208133
O 6.48568870 15.68174163 12.69732924 -0.00251274 0.00523173 0.00300605
O 11.61281207 23.89603903 6.52387603 -0.00034243 -0.00825351 0.00165473
O 22.64368872 20.85212830 3.70904818 -0.00112190 -0.00309375 0.00426500
O 0.23304145 5.46505848 18.69041446 0.00268156 0.00117517 0.00004012
O 10.35466985 20.24567191 3.57900553 0.00017067 0.00028283 0.00500826
O 18.32934779 6.59992722 4.80505518 0.00302503 0.00111206 0.00089243
O 12.67203052 14.49816369 10.85809580 0.00591768 -0.00193907 -0.00348855
O 23.93508273 11.12304027 2.32279377 0.00490348 -0.00338480 -0.00160943
O 21.83529363 4.48177964 8.81961180 0.00038257 0.00224006 -0.00533679
O 24.14239729 0.17326676 4.31812089 -0.00089178 0.00355013 -0.00226259
O 6.60401443 21.51358535 19.10165150 0.00088331 0.00287380 -0.00043770
O 19.18178730 6.79934722 16.92004249 -0.00562802 0.00031234 -0.00268215
O 13.53686612 24.15232553 30.66837911 -0.00268940 0.00080548 -0.00144645
O 20.24883487 14.56600436 27.51515000 0.00568623 0.00326362 0.00264342
O 11.69059525 7.83723067 20.95360994 -0.00005530 -0.00141195 0.00226271
O 0.41750849 11.72865220 8.65693692 -0.00009462 0.00060819 0.00035763
O 24.35269294 23.97493727 8.35259463 -0.00508071 -0.00183646 -0.00153462
O 24.68031789 5.20485462 21.30017381 0.00333379 -0.00564035 0.00915766
O 1.44035672 23.69905527 21.79290136 0.00075292 -0.00255336 0.00058985
O 16.13487449 21.05710418 25.08117879 -0.00298306 0.00033901 -0.00602932
O 18.47356990 6.30459409 23.11026643 -0.00333709 -0.00286803 0.00373052
O 19.61873626 12.31497548 21.50600778 -0.00065014 -0.00009801 -0.00267998
O 16.74235618 9.84961991 24.12374706 -0.00003057 0.00588560 -0.00165074
O 6.00009197 2.45423446 20.28707369 -0.00212138 -0.00161246 0.00023143
O 23.76234483 22.69151167 29.79638159 -0.00028148 0.00490022 -0.00061841
O 20.40069730 2.78838485 25.29675430 0.00503866 -0.00082694 -0.00015409
O 17.73821404 24.76857799 4.97755833 0.00154995 -0.00923449 0.00264546
O 11.09237102 18.96004580 28.14336340 0.00156992 0.00117180 -0.00187447
O 16.62407248 2.08695590 27.61132748 0.00832416 0.00052858 -0.00451377
O 23.98651463 5.44392492 7.68561532 0.00058183 0.00398915 0.00431973
O 11.97747674 18.03146275 16.21145716 0.00653476 0.00632845 0.00787011
O 1.23409898 1.76115225 24.50199757 0.00612878 0.00455662 0.00112741
O 0.06446225 19.87621494 23.95147761 -0.00401049 -0.00714422 -0.00606597
O 23.93178831 2.37121008 29.25743791 -0.00076728 0.00244248 -0.00539615
O 24.40787924 21.37839454 7.56529500 0.00241675 0.00165252 -0.00048892
O 17.33345502 18.97120994 16.96402765 -0.00256346 -0.00153411 0.00337915
O 14.16297569 5.52732903 29.27636610 0.00103099 0.00126291 -0.00070268
O 23.33052128 21.69299259 14.00585117 -0.00305690 -0.00234550 0.00700050
O 21.79904153 2.93865470 14.06787992 0.00197828 0.00497487 -0.00188089
O 22.79319469 17.67451802 30.50336452 -0.00107389 -0.00109362 0.00400078
O 16.80661778 18.02719461 28.65263384 -0.00502085 -0.00103737 0.00963084
O 13.76003721 22.26854392 5.81911623 -0.00321220 -0.00321463 -0.00252789
O 1.11533834 9.30383442 12.56020231 -0.00041341 0.00574107 -0.00237324
O 20.07397830 14.70777189 13.10575824 -0.00168983 0.00600563 -0.00050310
O 17.12566164 8.27090607 3.07003038 0.00238664 -0.00340599 0.00664854
O 0.05846825 16.10560293 3.39119352 -0.00232760 -0.00022084 -0.00178728
O 18.86846191 22.72564174 27.21815533 0.00332369 -0.00467770 -0.00103396
O 19.66970742 16.42917493 4.99951728 -0.00407373 0.00219823 0.00425416
O 12.65230056 19.24302327 3.98205040 0.00232753 0.00057892 -0.00361904
O 19.18781394 10.01171067 20.51165303 -0.00513327 0.00527846 -0.00085271
O 20.22800396 7.61927942 11.04993748 -0.00029706 -0.00105560 -0.00202329
O 20.87408279 0.94692823 2.12890854 0.00236260 0.00580728 0.00107009
O 21.74377813 21.10643403 15.78639660 0.00264858 0.00296136 0.00783571
O 1.22112815 15.88267085 9.72545680 0.00088160 0.00378429 0.00571601
O 15.07526258 25.78459313 23.19173292 -0.00248133 -0.00646202 0.00202589
O 24.28418544 17.25841589 19.80725967 0.00656792 -0.00282322 0.00209014
O 13.87703429 26.53083656 19.52888268 0.00630344 0.00035946 -0.00393724
O 17.21058553 14.14280041 15.99610597 -0.00442767 0.00276249 -0.00295000
O 18.62993740 19.67511420 9.71548667 0.00237194 -0.00903332 0.00265783
O 15.60163522 25.51797378 30.33769225 0.00086310 -0.00322455 -0.00267837
O 16.84779390 24.22610952 18.06492504 0.00227944 0.00116273 -0.00126495
O 2.00924480 0.06880072 12.24478199 0.00234932 0.00294371 -0.00153350
O 19.64362770 26.69535074 8.94395966 -0.00564425 0.00041712 0.00049300
O 3.52468405 21.70991757 17.48596052 0.00084422 -0.00385852 -0.00555891
O 12.64457008 0.63428479 25.48060636 0.00387475 -0.00212724 -0.00010826
O 18.41584956 20.70507170 1.99849931 -0.00640933 -0.00223312 0.00122165
N 12.78697064 23.15379549 12.62087843 0.00415695 0.00198909 -0.00026317
N 4.50620296 4.66381413 6.61349130 -0.00850570 0.00549146 0.00337847
N 4.43620789 24.32767057 7.21636480 -0.00297822 0.00692855 -0.00255964
N 1.28149121 9.56662592 17.39866693 0.00354577 -0.00036643 -0.00699932
N 3.51313560 1.79296228 18.72097873 0.00786757 -0.00236116 0.00047607
N 3.06311777 10.26498008 26.27582275 0.00304381 -0.00356995 0.00056898
N 5.44290995 15.37823778 3.23922941 -0.00042402 -0.00457060 -0.00269249
N 1.57548081 2.47474670 2.35336112 0.00294020 0.00365769 0.00119935
N 1.87488982 14.37034434 26.20575804 -0.00087188 0.00068207 -0.00367452
N 23.57862696 8.68856511 26.63057761 0.00037675 0.00178656 0.00241761
N 20.21238634 23.81469526 21.42182893 0.00047190 -0.00336772 -0.00235500
N 11.21058409 5.67700966 25.77514019 -0.00215049 -0.00480914 -0.00883608
N 6.12197275 3.72590973 30.02477397 0.00605337 0.00298347 -0.00095801
N 8.14467373 9.63864523 14.58821630 0.00438522 -0.00262169 -0.00084961
N 6.71474912 15.72150846 19.07044213 0.00639681 -0.00347985 -0.00602667
N 5.61061127 6.55013722 15.44227243 0.00363180 0.00371251 0.00253818
N 7.73891724 25.37522027 9.20375401 0.00424858 0.00189440 0.00658529
N 1.70873273 18.52818350 12.64637412 0.00219598 -0.00557779 -0.00066192
N 1.88392638 12.90782917 29.58158461 -0.00342842 0.00415641 0.00495622
N 4.48769503 17.41752142 20.35338875 -0.00386319 -0.00012956 -0.00876017
N 1.08127553 13.98149165 15.47707354 0.00054090 -0.00599450 0.00063324
N 0.89100957 23.79039741 2.81875265 0.00079712 -0.00350922 -0.00278122
N 11.00557704 19.04429885 11.28496927 0.00153500 -0.00209042 -0.00337190
N 24.12008019 26.57294471 27.29588794 -0.00577713 -0.00375758 0.00492833
N 10.76941748 1.39166581 15.73101818 -0.00246523 -0.00245521 0.00751129
N 3.29158068 21.59916845 1.21467013 0.00464880 0.00156326 -0.00216966
N 22.02327343 10.98479747 22.00131806 -0.00092188 0.00902464 -0.00032062
N 4.02424042 21.15416388 28.18515919 0.00040541 -0.00375415 -0.00518493
N 19.93968347 12.06360645 3.52419081 0.00238444 -0.00262309 -0.00612829
N 6.07099816 22.25909673 25.41246384 0.00798418 -0.00137156 -0.00087022
N 9.93566211 21.36382083 23.90537939 -0.00040405 0.00293364 0.00379601
N 20.54278947 18.04935945 23.04303661 0.00942939 0.00295732 -0.00579171
N 12.69725128 12.17143016 3.53353298 0.00267340 -0.00069032 0.00059991
N 9.73320028 5.76953783 7.53110171 -0.00147457 -0.00220020 -0.00288695
N 14.35462301 5.64640094 9.05675882 -0.00136058 0.00423760 -0.00579174
N 12.95210855 14.18197888 14.64575819 -0.00444681 0.00613549 0.00785285
N 8.14869404 23.34814336 12.57677959 -0.00179964 0.00967375 -0.00516473
N 18.56348970 11.42478893 9.20792705 0.00157291 -0.00097371 -0.00296325
N 8.65117951 15.77012577 6.18510500 -0.00002060 0.00554128 -0.00237235
N 15.32145322 10.31403135 10.77883322 -0.00195739 -0.00641618 0.00132828
N 13.29317343 11.80550847 18.10992444 0.00154015 -0.00875786 -0.00097688
N 9.67976338 7.07538174 22.92918054 0.00453873 -0.00112512 -0.00660080
N 12.66261972 1.65666638 8.01824596 0.00770351 0.00364158 -0.00083633
N 1.03385414 8.33459363 3.42391777 0.00372478 -0.00123218 0.00387603
N 7.99723205 1.07297536 24.12952814 -0.00272906 0.00131569 -0.00314711
N 19.73413917 3.29272693 19.99272006 -0.01119904 0.00052028 -0.00664781
N 6.47129658 14.10970827 14.37625422 -0.00065225 -0.00225835 -0.00123829
N 18.91870034 3.42529867 29.67157255 0.00061358 -0.00776313 0.00019409
N 6.25717636 7.19826457 28.64964888 -0.00309293 -0.00265940 -0.01086208
N 7.51518086 10.86265183 8.79091267 -0.00043117 0.00676841 -0.00062534
N 16.81577638 12.68654361 0.20656632 0.00161568 0.00113153 0.00042280
N 21.07488913 18.17945693 15.56507729 -0.00070242 -0.00780386 0.00385373
N 8.41704407 9.33180014 3.73717352 -0.00494104 -0.00577698 0.00637457
N 15.03726041 0.41750391 13.46946661 0.00119218 0.00402196 -0.00333395
N 16.98796985 4.52473138 6.75437156 0.00204058 -0.00578203 0.00273111
N 9.58194881 23.41463675 5.58890322 -0.00321335 0.00082885 0.00298368
N 23.11578658 0.50872514 18.13923096 -0.00170041 -0.00063436 0.00175189
N 11.02892505 16.08687065 27.36755708 -0.00248262 -0.00563254 0.00510841
N 12.62174506 12.41783578 22.11806984 0.00571801 0.00362621 0.00843390
N 10.51531763 2.72614460 1.75957494 -0.00234155 0.00723335 -0.00075941
N 8.06036523 14.82687563 28.50597646 0.00508683 -0.00277759 -0.00192747
N 17.18854975 16.39478797 24.02752529 -0.01122667 -0.00032237 0.00233232
N 12.42888778 5.88113518 14.96324608 0.00570587 -0.00178705 0.00776530
N 12.41895589 19.55512436 21.63859837 0.00222750 0.00289587 -0.00242013
N 19.92234094 18.20005138 8.50022144 0.00299002 -0.00035790 0.00340361
N 20.80370994 6.42756259 15.28939097 -0.00376364 -0.00397223 0.00327664
N 15.30264436 9.40349557 2.30949824 -0.00418303 -0.00122839 0.00552203
N 23.10985576 7.51571770 7.44861223 0.00843670 0.00260608 -0.00149129
N 20.49450992 25.47050462 10.64050145 0.00384170 -0.00540659 -0.00397933
N 1.93599954 11.15583298 7.08175315 -0.00850079 0.00806170 -0.00635855
N 14.58325299 18.84788681 2.82519883 -0.00367510 0.00314320 -0.00271558
N 22.89127956 3.65404230 0.04599052 -0.00004804 -0.00485094 0.00055736
N 0.82545107 7.17523137 11.86381448 0.00103875 -0.00889538 -0.00092934
N 12.67777340 20.19811232 29.28414920 0.00083824 0.00245405 -0.00251788
N 17.98408953 25.03843156 16.21068913 0.00001575 -0.00409296 -0.00997875
N 18.32605174 13.50077683 26.82261159 0.00171960 0.00477195 0.00719282
N 19.71068725 24.36699218 25.91261197 0.00739085 0.00739991 -0.00211901
N 1.75158605 3.84910530 23.72408533 0.00140905 -0.00298814 -0.00032692
N 13.63110635 2.39756019 24.39611405 0.00072588 -0.00303682 0.00346806
N 23.29815578 6.54774147 22.54403331 -0.00267139 0.00023970 -0.00244426
N 19.75478261 25.61303660 4.19720091 -0.00036649 -0.00263178 0.00080118
N 19.69970345 16.83399154 12.38534368 -0.00190870 -0.00224884 0.00258136
N 11.30971205 24.46676155 0.05481233 -0.00330019 0.00368587 0.00117126
N 1.91936888 26.09735311 14.44349786 0.00561167 -0.00001389 -0.00195421
N 13.79793338 18.22618707 14.81526482 -0.00415997 -0.00541383 0.00418881
N 18.77583426 17.83275123 3.36939001 -0.00291217 -0.00184714 -0.00100601
N 23.86146589 26.13434184 8.52877398 0.00287131 -0.00489582 0.00428720
N 17.72241025 22.87541456 1.96651982 0.00018324 0.00473839 0.00396005
N 6.59706048 23.67888877 19.67491677 -0.00391166 0.00705758 0.00212937
N 17.56267407 25.04658544 29.35946081 0.00448018 -0.00373512 -0.00250661
N 16.51422927 4.40685592 27.92323599 0.00918409 -0.00404040 -0.00119820
N 23.54201041 14.97879136 4.88555351 -0.00006050 0.00629284 -0.00501481
N 13.76489906 7.33919074 20.13993546 0.00386859 -0.00665034 0.00154552
N 1.69328664 20.94201042 16.30285552 0.00184106 -0.00493032 -0.00379909
N 23.64501657 18.89749378 25.61356186 0.00998746 0.00091669 0.00675783
N 18.87116984 9.31124837 18.32995676 -0.00026838 0.00659445 -0.00133271
C 6.04196814 25.34518429 10.94012778 -0.00556484 0.00628791 -0.00070271
C 5.17031339 2.56373317 7.88518822 0.00177048 -0.00811671 -0.00862677
C 3.55327762 14.58476188 29.89873260 -0.00349997 0.00030884 -0.00847476
C 23.91616883 10.42619346 17.82611603 0.00566662 -0.00429379 -0.00510547
C 23.98262586 12.89643286 14.34795453 0.00188103 0.00399690 0.00177188
C 4.72250733 10.92208127 27.99376670 -0.00950978 0.00420307 -0.00308854
C 10.30561220 19.94456350 13.25030320 -0.00258818 0.00302460 -0.00435359
C 1.94289138 2.02467521 4.66497213 0.00119750 0.00137506 0.00507733
C 5.28633166 24.53769716 11.78827294 -0.00188674 0.00553803 -0.00036022
C 4.89583647 1.88745953 9.04680721 -0.00662855 0.00438461 0.00057180
C 3.95514473 15.78871597 30.34394901 -0.00293493 -0.00460396 -0.00268734
C 22.62976801 10.61373240 17.39186272 0.00711980 0.00161308 -0.00966864
C 23.54816538 12.21819015 13.19412026 0.00234416 -0.00180445 -0.00138424
C 5.04988246 11.04433051 29.31896798 -0.00452939 -0.00560919 0.00832806
C 9.33778705 20.37925956 14.17793239 0.00772885 -0.00509495 0.00178183
C 1.90743901 2.36439079 6.01544537 -0.00907029 -0.01050823 0.00238309
C 5.11300486 23.12402346 11.55709628 -0.00991079 0.00173028 0.00141977
C 4.11744662 2.31846092 10.09325868 -0.00470407 -0.00285661 -0.00051438
C 3.03885796 16.66777938 0.19380006 -0.00037175 0.00023296 0.00396397
C 22.17971995 10.21778054 16.07601058 0.00527245 -0.00242452 -0.00810624
C 24.27720415 12.28366699 11.99838537 -0.00008376 0.00028429 0.00227421
C 4.16002712 10.60512025 30.29723814 0.00205424 -0.00346396 0.00699992
C 8.00814364 20.13350643 13.86362133 -0.00452025 0.00464366 0.00123020
C 1.39115590 3.59591237 6.41005212 -0.00515618 0.00462196 -0.00680128
C 5.70696144 22.54342026 10.41091775 0.00441599 -0.00175418 -0.00919714
C 3.63085717 3.62914627 10.05465764 -0.01218944 -0.00372012 -0.01045301
C 1.79739631 16.10256661 0.60575955 0.00358619 -0.00038277 -0.00635842
C 23.12894744 9.93534132 15.15410276 -0.00421390 -0.00405459 0.00531358
C 0.70142927 12.88713992 11.98923131 0.00227892 0.00121513 0.00071100
C 2.98199742 9.92966380 29.93358269 -0.00269972 -0.00237043 -0.00646840
C 7.62767391 19.42283000 12.70303582 -0.00333190 -0.00111131 0.00155480
C 0.98234888 4.47033409 5.40370307 -0.00141621 0.00139191 0.00004252
C 6.47339771 23.37367567 9.60094421 -0.00424442 -0.00175548 -0.00522071
C 3.87242906 4.36193427 8.88253133 0.00181964 0.00150960 0.00262780
C 1.35613080 14.84773326 0.12357108 0.00184374 -0.01197352 0.00897575
C 24.43797405 9.57031895 15.54211026 -0.00507955 0.00248042 -0.00530321
C 1.10171720 13.52280121 13.14849299 0.00402124 0.00155685 0.00624106
C 2.68352103 9.74397958 28.56108327 0.00823085 0.00077461 0.00403505
C 8.61909429 19.00617373 11.78760530 -0.00096483 0.00489042 0.00403389
C 0.92770595 4.13505873 4.08453326 -0.00190713 0.00175926 -0.00735787
C 6.78339021 24.72134847 9.92566028 0.00992826 0.00263228 0.00428168
C 4.58169323 3.86331501 7.75009741 -0.00101346 -0.00244478 -0.00111812
C 2.23559286 14.08094813 30.18739082 -0.00170791 -0.00254136 0.00125525
C 0.00720938 9.82991917 16.90990691 -0.00291428 0.00437716 -0.00224790
C 0.38031132 13.50129425 14.35199506 0.00695633 -0.00007271 -0.00220560
C 3.50596328 10.31954207 27.60755152 -0.00154982 0.00726953 -0.00541274
C 9.93641306 19.30841867 12.13062933 -0.01165844 0.00450184 -0.00435120
C 1.50213060 2.91616492 3.69742455 -0.00075081 -0.00663238 0.00294215
C 7.88697315 26.79100736 9.09833939 0.00113299 -0.00006083 -0.00592798
C 5.20518376 4.54303625 5.46835961 -0.00392692 -0.00260133 0.00950696
C 0.77750857 12.31051826 30.02191024 0.00375617 0.00215883 0.00143631
C 1.82015183 10.01050416 18.54332805 0.00040533 -0.00254968 0.00055566
C 0.31957174 14.29687078 16.59287274 -0.01323683 0.00054581 0.00350218
C 3.75821135 10.73459645 25.18599987 -0.00266968 0.00211432 -0.00053578
C 11.05885109 18.35406977 10.18829459 -0.00361663 -0.00273111 0.00285266
C 1.50916052 3.34368195 1.30338836 -0.00008379 -0.00338749 0.00326759
C 4.44459191 14.18308558 25.85410688 -0.00353500 0.00057410 -0.00442882
C 5.95175117 3.28871212 5.17444495 -0.00876189 -0.00068590 -0.00080265
C 2.85451522 23.63856761 9.00723534 -0.00294754 -0.00728154 0.00494252
C 10.77077944 7.12400144 27.77827329 0.00846364 -0.00155513 0.00104128
C 5.90435816 2.78180492 1.40413707 0.00200476 0.00291377 0.00514481
C 3.03555493 10.56340236 23.90084817 0.00565280 -0.00187087 -0.00364386
C 3.59381440 13.82320909 3.00364083 -0.00029795 -0.01231919 0.00937106
C 5.01381388 4.33678983 14.28898362 0.00219532 -0.00141861 0.00087290
C 8.64786098 1.39328405 14.52888785 0.00126548 0.00055441 0.00128096
C 0.29167000 8.21336692 24.94498865 0.00111027 0.00197733 -0.00161073
C 24.18277502 12.00684151 22.25515215 -0.00117966 -0.00328566 0.00284561
C 13.21165353 5.78269051 24.31490818 -0.00650287 -0.00473176 -0.00150776
C 20.70940077 11.05843903 1.48821108 0.00215431 0.00005085 0.00466788
C 6.64556167 9.95618486 12.76213284 0.00158563 0.00539900 -0.00535097
C 11.64086917 23.12038149 23.96652886 0.00105194 0.00369412 0.00466733
C 6.64496005 6.52646697 17.71397734 -0.00637834 0.00086351 -0.00852460
C 7.92942713 1.77031036 13.39860956 -0.00644376 0.00052919 0.00432093
C 1.45111025 7.62977286 24.45076883 -0.00557692 -0.00057818 -0.00493395
C 0.23254668 13.03351715 21.96994762 0.00528646 0.00346328 -0.00535718
C 13.80738807 5.38678406 23.15225926 -0.00032684 0.00556676 0.00269834
C 21.15300922 11.14739575 0.16927390 -0.00224137 0.00025500 -0.00018934
C 5.42676371 10.23400181 12.21740387 0.00394533 -0.00368341 0.00165705
C 12.54431201 23.96129879 24.60456819 -0.00242195 0.00315493 -0.00559596
C 7.28155243 5.83039872 18.72204216 -0.00063294 0.00182578 -0.00222080
C 8.44608030 2.66708926 12.44207836 -0.00309001 0.00395626 -0.00383736
C 2.20566873 6.77071153 25.29234264 0.00558916 -0.00684822 0.00430570
C 24.69367306 14.11657104 21.12262682 0.00059124 0.00292162 0.00699217
C 13.12349623 4.64762597 22.16639260 0.00028317 0.00561052 0.00499741
C 20.97089949 12.36816116 30.30464862 0.00688372 0.00081001 -0.00158954
C 4.35923469 10.68147921 13.03643087 0.00131651 0.00395208 0.00298756
C 12.38798328 24.16109216 25.99272872 -0.00057904 -0.00060695 -0.00446190
C 7.79548990 4.56452860 18.57708732 -0.00327171 0.00035764 -0.00470344
C 9.76146654 3.07936628 12.54747284 0.00385177 -0.00673100 0.00766154
C 1.66157473 6.35583261 26.46108325 -0.00291122 0.00421359 0.00501956
C 23.34754888 14.20770699 20.79277584 0.00215780 0.00394510 0.00344362
C 11.87035967 4.15035044 22.53041235 -0.00194883 -0.00126012 0.00702405
C 20.90140856 13.55592231 0.15007539 -0.00041462 -0.00567636 0.00457604
C 4.54456722 10.74526386 14.47246351 -0.00147342 0.00399274 -0.00623348
C 11.47195937 23.38343266 26.70757397 -0.00732215 0.01072928 -0.00539142
C 7.74858744 4.09620817 17.23847747 0.00226539 -0.00477029 0.00301336
C 10.55110344 2.55738279 13.62551010 0.00015956 -0.00484715 -0.00111905
C 0.53215778 6.94746549 27.00224804 0.00043769 0.00673814 0.00841628
C 22.52328828 13.08251607 20.89682454 -0.00110132 0.00334929 -0.00041653
C 11.31542961 4.42354993 23.73034785 -0.00071996 0.00139631 0.00377616
C 20.51151208 13.47373907 1.50802445 -0.00015859 -0.00694008 -0.00210132
C 5.77497729 10.33412918 14.94459210 0.00202839 0.00063644 0.00048581
C 10.57418389 22.53618082 26.00222652 -0.00713906 0.01133063 -0.00002608
C 7.04960168 4.73749137 16.22196168 -0.00034077 0.00045833 0.00158902
C 9.96482431 1.73004316 14.64812991 -0.00050563 -0.00779015 0.00605029
C 24.69778520 7.97018307 26.22136198 0.00164316 0.00114189 -0.00160451
C 22.93299282 12.01897963 21.67662280 0.00297410 0.00374770 0.00017924
C 11.97595836 5.29249919 24.66881965 -0.00763548 -0.00356532 0.00704820
C 20.38314216 12.21137647 2.16299960 -0.00459505 0.00092446 0.00413806
C 6.85543591 9.89760219 14.14634085 -0.00349099 0.01080127 -0.00432854
C 10.72280559 22.28763092 24.65524722 0.00294424 0.00854420 -0.00321003
C 6.37434263 5.89674549 16.48664155 0.00105020 0.00294712 -0.00218064
C 10.28570315 0.44854569 16.63059376 -0.00797060 -0.00822374 0.00129161
C 22.71832524 8.29510576 27.62428849 0.00583688 0.00030023 -0.00017279
C 21.99228278 10.43493126 23.21412486 -0.00426544 0.00484109 0.00066932
C 11.75163776 6.42607132 26.82974546 0.00416461 -0.00097593 0.00243189
C 20.06342047 13.12998137 4.29045259 -0.00669344 -0.00090099 0.00102416
C 8.63457939 9.82236013 15.84513881 0.00025484 -0.00482959 -0.00083184
C 9.49478675 21.50600688 22.60965420 0.00296168 -0.00139964 0.00094741
C 5.31816892 5.86068684 14.29182382 0.00140971 0.00174997 -0.00520787
C 11.74580519 23.79687840 14.71166650 -0.00247133 0.00261192 -0.00154803
C 21.48759616 9.12052783 27.71003743 -0.00696952 -0.00097757 -0.00121743
C 18.28223966 25.11841110 20.59092351 0.00095076 0.00451478 -0.00132893
C 3.21372720 9.49418570 18.71255579 -0.00560605 -0.00887217 -0.00095002
C 2.89427097 4.20507335 18.27569778 -0.00289652 -0.00484146 0.00350577
C 10.12222085 9.53818972 16.00020196 -0.00044008 0.00660407 0.00257904