1920
Time=77000.00000008 pbc="T T T" Lattice="25.00823980 0.00000000 0.00000000 0.00000000 26.76133631 0.00000000 0.00000000 0.00000000 30.72981704" energy=-12233.92455739 virial="-71.71583077 19.55751947 17.46722572 19.55751947 -22.65158431 8.85710627 17.46722572 8.85710627 -6.72751376" stress="-0.00112050 0.00090910 0.00073329 0.00090910 0.00131687 0.00046006 0.00073329 0.00046006 0.00197806" Properties=species:S:1:pos:R:3:vel:R:3
O 4.40415032 22.28507772 12.14652363 0.00144832 -0.00349250 -0.00340863
O 4.56251337 0.80829306 10.76510251 0.00233724 0.00128042 -0.00199656
O 3.21296928 18.48771955 0.23070289 0.01178006 0.00344880 -0.00098446
O 21.30419413 10.34792203 15.73510937 -0.00207158 -0.00100277 0.00344371
O 23.46077145 12.46638493 9.64405473 -0.00366367 -0.00717575 0.00291005
O 3.82580059 10.83417549 0.93069722 -0.00314645 0.00400230 -0.00040504
O 7.30190302 20.05263611 15.12671922 -0.00193451 -0.00050824 0.00211765
O 0.61149217 3.35451543 6.16950643 0.00217015 0.00020065 -0.00057063
O 9.38551555 0.54455631 17.13168776 -0.00382331 -0.00144022 -0.00034829
O 5.52129008 4.98858573 4.47930421 0.00404672 0.00140299 -0.00063031
O 0.71833212 12.54687065 0.76669671 0.00212375 0.00287191 -0.00040656
O 12.82327387 5.30387211 26.90648799 -0.00606939 0.00072131 0.00456248
O 19.34067288 14.45526998 4.08118974 0.00407793 -0.00380929 0.00334354
O 5.02231674 11.57444281 25.51007031 -0.00260565 -0.00125819 0.00365535
O 10.55585622 17.84107523 10.23946664 -0.00797723 0.00124373 0.00021855
O 5.10272283 6.87777134 13.49696817 0.00723590 0.00038553 0.00027144
O 6.51081676 2.17358602 11.70106286 -0.00571263 0.00009620 -0.00006186
O 4.01668568 6.65525658 25.22761098 -0.00227138 0.00464209 0.00646022
O 1.00094705 15.31348671 20.18405466 0.00245215 -0.00544826 0.00168103
O 14.21540763 4.43899997 20.80806214 0.00609398 0.00000837 0.00059552
O 21.57647715 11.41042834 29.83934612 -0.00066969 0.00710053 -0.00603995
O 3.18458256 10.55192144 12.83647290 -0.00225463 0.00181697 -0.00573142
O 12.26171514 25.42078024 26.81353390 0.00631442 -0.00309938 0.00202800
O 8.96611230 3.91515573 19.25134175 -0.00087099 -0.00075908 -0.00009492
O 8.80949369 0.09989177 10.77860244 0.00491700 -0.00900162 -0.00442613
O 23.24268467 6.77404674 27.76391623 0.00210575 0.00023575 0.00412980
O 23.71890140 10.30812926 23.24004145 -0.00161129 -0.01081784 0.00119169
O 1.83364118 10.83390518 19.03169358 0.00318017 -0.00040344 0.00530109
O 23.75688946 13.27002883 15.77327013 -0.00173544 0.00052824 0.00324230
O 7.93740383 10.18688043 16.99406940 0.00106317 0.00462149 -0.00210886
O 10.54827896 22.14976593 21.53859038 0.00709960 0.00471004 -0.00579721
O 1.99246515 4.83188712 0.17670760 0.00238043 0.01267356 0.00434933
O 17.40734838 21.19851998 8.81335523 0.00362603 0.00048476 0.00261701
O 3.46198061 20.13642976 8.04204691 0.00442052 -0.00239433 0.00475161
O 7.14857691 24.42228414 2.43861890 0.00617511 -0.00028326 -0.00023402
O 5.56936920 17.94176619 15.14305099 -0.00261004 0.00161638 0.00554928
O 5.76923482 23.14522267 17.20581414 -0.00166934 -0.00496702 -0.00174848
O 3.29309393 26.42776097 30.40700447 -0.00043190 -0.00139248 0.00403710
O 7.69335861 19.80677440 4.46925757 -0.00495348 -0.00394229 -0.00160638
O 3.27974693 25.46031841 26.58182776 -0.00080239 -0.00155741 -0.00222422
O 3.04180051 16.20449245 25.49555154 0.00691178 0.00451430 -0.00053800
O 3.32651446 17.46228683 13.93988783 0.00161562 -0.00111979 0.00076612
O 4.87329448 22.22493773 7.86650479 -0.00271131 0.00069479 0.00152311
O 4.56618851 19.18102559 28.89634307 0.00365973 0.00334144 0.00555441
O 5.29832849 0.96756001 0.29666840 -0.00748731 0.00623502 -0.00291970
O 2.67612158 24.33783412 5.53187369 0.00488371 -0.00279494 0.00252471
O 2.88541750 15.49236039 4.66400824 0.00026303 -0.00274269 0.00048150
O 22.56296741 18.64710588 22.86695034 0.00259090 -0.00251797 0.00022320
O 22.41843674 14.96032699 28.28469112 -0.00286511 0.00210149 -0.00321161
O 24.36815547 19.01613298 3.40179330 0.00779760 -0.00246035 -0.00188295
O 0.76226353 21.25878161 24.20841372 0.00532190 0.00474760 0.00404959
O 8.60844067 24.34627179 28.90548105 -0.00737550 0.01120092 0.00525772
O 4.04082111 2.63219790 25.16176152 0.00038614 -0.00286313 -0.00306884
O 5.44837471 17.23736861 25.26905302 -0.00408960 0.00528784 -0.00368487
O 3.61722598 11.36057350 20.80127942 0.00264649 -0.00092022 -0.00343970
O 18.19032654 19.66426892 27.41987901 0.00093072 -0.00001066 -0.00066679
O 13.61174964 21.18771186 14.00383322 -0.00507981 0.00765895 0.00044102
O 5.42437637 23.12140707 0.98224376 -0.00180011 -0.00403826 0.00477836
O 21.70899153 22.72638144 19.50226641 -0.00498572 -0.00013740 -0.00065114
O 3.48089888 15.58836704 20.64562661 -0.00042786 -0.00155284 0.00227896
O 4.46553125 2.43730772 17.27242743 0.00126067 -0.00248251 -0.00085232
O 4.31301314 23.23428574 25.68008142 0.00637568 -0.00525274 -0.00723265
O 7.21394589 16.43283575 21.23159324 -0.00462624 -0.00075748 0.00108916
O 20.65481977 26.03690954 25.53940550 -0.00282328 0.00357461 -0.00150041
O 4.37102853 5.67522027 2.30893878 -0.00186029 -0.00112625 -0.00440892
O 7.57045613 7.13362581 12.56358650 -0.00213319 0.00743700 -0.00357467
O 15.14437885 9.84828901 27.41828793 0.00517155 -0.00399393 0.00255627
O 10.47657214 9.69424131 12.50026138 -0.00673531 0.00017460 -0.00346228
O 11.13830887 11.52786063 7.84310232 0.00046961 -0.00187187 -0.00267169
O 13.60337597 10.45885009 6.69049934 0.00582318 -0.00122617 0.00098956
O 18.64504327 4.41164837 11.74524509 0.00222305 -0.00245720 -0.00462419
O 19.86613640 12.71697663 13.48755525 -0.00337843 0.00315779 -0.00062804
O 22.76428479 26.44463884 15.90348829 0.00165477 -0.00230702 0.00343764
O 9.39518459 3.32929769 7.88936726 0.00364038 0.00059209 -0.00391662
O 14.65325391 14.02227953 1.45555512 -0.00702097 -0.00426485 0.00072930
O 2.09994781 9.56625314 2.31794732 0.00517663 -0.00002073 0.00364788
O 7.95061385 18.48381249 29.18537581 -0.00517816 0.00082713 -0.00265238
O 19.65872960 10.98872066 9.19600566 0.00089455 -0.00497585 0.00499795
O 16.22161099 2.19870337 6.32850476 -0.00551938 -0.00204198 0.00304639
O 19.85078173 4.02089432 26.77047887 -0.00825839 -0.00399247 -0.00295063
O 1.09523595 26.32271652 22.74724826 -0.00663599 0.00048296 -0.00190952
O 7.09101730 11.76357905 23.93278513 -0.00230804 -0.00930237 -0.00429504
O 8.02936434 11.72973243 19.00277692 -0.00123004 0.00503856 0.00428484
O 22.25348227 6.78155928 30.09880625 0.00700092 0.00224781 -0.00539884
O 7.05631853 12.48710438 0.02365205 -0.00508758 0.00346495 0.00247088
O 19.45057641 1.48086223 14.86635717 0.00420173 -0.00423900 0.00251890
O 13.17216096 2.59367125 18.89604856 -0.00447041 0.00270450 0.00314384
O 18.53132267 7.55977603 1.16521836 0.00298285 0.00291347 -0.00252053
O 5.43576129 7.52441347 27.06716971 0.00062512 -0.00500602 -0.00023412
O 9.20431383 5.00373240 21.50641120 0.00901883 -0.00884281 -0.00460796
O 12.38850624 14.50623086 22.67020721 0.00086570 -0.00111061 0.00283512
O 15.16379178 13.27362103 14.72100888 0.00191107 -0.00494318 0.00175635
O 8.27950939 11.97978471 2.16717674 0.00212887 -0.00077613 0.00433947
O 19.41946844 5.91299513 21.13479937 0.00531494 -0.00625242 -0.00237784
O 11.40185336 7.30103771 13.20536745 0.00032518 -0.00453234 -0.00350163
O 13.72475803 12.14061142 11.66522260 0.00451611 0.00335762 -0.00061865
O 9.42840718 9.98918141 28.58093856 -0.00664727 0.00104626 -0.00302333
O 2.87776941 14.16532092 6.82791795 0.00237001 0.00207525 -0.00969826
O 12.18686094 6.54887911 4.02927992 0.00511582 0.00060784 0.00452762
O 23.40614087 17.08065763 10.44312802 0.00284142 0.00315893 0.00413315
O 12.62528421 25.27049223 9.08858522 -0.00838844 -0.00066902 0.00274930
O 17.92192954 22.54386472 13.73513233 -0.00276633 -0.00017631 0.00711149
O 8.75511647 15.42995415 12.04968285 -0.00273830 0.00400320 0.00254180
O 8.80220187 18.77364533 8.60447752 0.00194772 0.00367634 -0.00959762
O 16.23269179 9.46867835 18.74947526 0.00207256 0.00366107 -0.00319564
O 9.17859314 10.48805321 9.32855291 -0.00017905 -0.00005802 0.00598333
O 15.50443817 8.23731740 9.34234479 -0.00816046 0.00280207 -0.00095393
O 12.22083978 4.36630814 2.68932989 -0.00294847 0.00222727 -0.00104544
O 7.63402967 1.62634484 26.43075724 -0.00229775 0.00545167 0.00382708
O 17.69717854 2.50749434 12.97825586 0.00074637 -0.00076229 0.00122604
O 8.71414419 15.66712459 4.46517976 0.00509017 0.00470422 0.00134271
O 14.99852376 18.08481524 19.79738610 -0.00270722 -0.00250779 0.00206847
O 15.42905068 15.69922350 20.60870959 -0.00159896 -0.00135327 0.00270400
O 9.04500806 16.91666890 22.96801555 -0.00349844 0.00437593 0.00164624
O 16.04889074 24.99683896 7.19638173 0.00081952 -0.00102102 0.00026544
O 8.15967933 0.26056681 28.57067376 0.00055979 -0.00232049 0.00091265
O 9.75907413 25.85133941 19.31837621 -0.00059142 0.00610106 0.00442519
O 19.86230831 19.01540138 19.17033026 0.00312005 0.00393690 -0.00050501
O 11.57065748 15.72269523 17.13880139 0.00290655 -0.00235857 -0.00360013
O 14.93660672 24.29998203 17.88599936 0.00410368 0.00151708 -0.00038655
O 11.92931324 13.62611185 2.53494357 0.00011779 0.00032325 -0.00248209
O 9.69102305 12.12886737 27.08656505 0.00116888 0.00135833 0.00265064
O 14.28097460 3.52400410 10.28788450 0.00398146 0.00031608 -0.00881864
O 21.49212044 17.61655103 17.79714715 0.00020375 0.00371230 0.00116316
O 9.71868438 24.89461373 14.56578558 0.00586538 0.00015762 -0.00174141
O 15.80115597 17.73651673 23.83693274 -0.00184140 0.00386516 0.00134459
O 6.50289588 16.05884084 13.40218165 -0.00369996 0.00620628 0.00292729
O 12.08469330 23.71754837 6.82328672 0.00303603 -0.00475935 -0.00425861
O 22.10361360 19.88150735 4.38251211 0.00048495 0.00673686 -0.00466883
O 24.29497043 4.22119756 17.72227068 0.00132568 -0.00378375 0.00005951
O 10.09080359 19.72171163 3.45468017 0.00316633 -0.00331474 0.00054415
O 18.12940605 6.15568411 4.74042394 -0.00315258 0.00022656 -0.00029452
O 12.28226853 14.18165339 10.85084245 0.00491566 -0.00610480 -0.00551686
O 23.27983332 11.79759644 2.45768154 0.00027623 -0.00097784 -0.00447238
O 21.38375113 4.05022489 8.52996804 -0.00206002 -0.00251773 -0.00353656
O 22.87325115 0.40209855 5.09531076 -0.00532413 0.00496854 -0.00552419
O 7.61676837 21.37006909 20.22659607 -0.00531419 0.00265150 -0.00078962
O 20.54658879 8.25485587 14.35994682 -0.00430998 0.00703105 0.00852410
O 13.42149968 23.71980664 30.54684462 -0.00275612 -0.00334175 0.00186624
O 20.67444606 13.20281776 28.16685351 0.00525301 0.00103241 0.00106784
O 11.87848213 7.75081115 21.72676553 0.00500660 0.00181148 -0.00339114
O 24.95133745 10.44091506 8.66466918 0.00289478 -0.00346413 -0.00340265
O 23.97238246 23.65749038 9.09042276 -0.00160616 0.00747538 -0.00267610
O 24.48659006 5.17538752 20.08176504 -0.00212283 -0.00114943 0.00588592
O 2.36479018 23.34981454 23.09783878 -0.00556396 -0.00045767 -0.00634352
O 15.92090930 19.92673683 25.26463649 0.00119966 0.00034426 0.00324316
O 18.55396824 6.93060037 23.44472762 -0.00260236 0.00083980 0.00392334
O 19.40054326 12.80918946 21.69107031 -0.00846447 0.00044153 0.00037187
O 16.45579878 9.95840590 25.21063742 0.00386691 -0.00004384 -0.00061614
O 5.66657884 3.35021691 19.34900028 -0.00109039 -0.00388658 -0.00483013
O 21.17938908 23.53274528 0.81956422 -0.00056092 -0.00093752 0.00320513
O 20.07871709 3.36926670 24.34734918 -0.00139693 -0.00491751 0.00716056
O 17.84238563 24.44677022 5.23585577 -0.01264372 0.00321443 -0.00386182
O 11.03820776 18.45101348 28.91262183 -0.00029499 -0.00193266 -0.00404505
O 15.91483041 2.78435029 27.38554907 -0.00829389 0.00037399 -0.00844085
O 24.11404264 5.30476427 6.68849075 -0.00027981 0.00161547 -0.00119904
O 12.41990017 17.87883163 15.92233167 0.00879331 -0.00671230 -0.00461897
O 1.78839167 1.78422864 24.11987480 0.00953294 -0.00304647 -0.00475770
O 24.79339195 21.20141298 26.63402785 0.00068085 -0.00153347 -0.00546803
O 23.60563197 1.73400571 29.75907164 -0.00403589 0.00076458 -0.00085963
O 24.17153278 21.56494588 7.70233097 0.00201684 0.00033950 -0.00021837
O 18.01021068 19.56598303 17.56809991 -0.00117897 0.00017280 0.00495253
O 12.78246606 5.18044821 29.53648146 0.00157163 0.00131389 -0.00303980
O 23.58563447 21.39764528 12.70710906 -0.00060448 0.00182085 -0.00351428
O 23.36287624 1.11736532 13.90011523 0.00651872 -0.00079516 -0.00150615
O 22.80119296 16.70861177 30.23808716 -0.00551724 0.00203326 -0.00036115
O 17.07768958 17.48852110 28.38357237 0.00239712 0.00401934 -0.00475461
O 13.90461999 21.91054580 6.14878511 -0.00618149 0.00248471 0.00253949
O 1.10383747 9.49333843 12.33871636 -0.00079593 -0.00391251 -0.00020978
O 19.82883331 15.31400629 13.36951325 -0.00226190 -0.00426203 -0.00611533
O 16.61443016 7.69847695 3.28906702 -0.00059737 0.00776568 -0.00063518
O 24.56289952 16.75144665 4.34023568 0.00293274 0.00507637 0.00258773
O 18.07942240 21.97817429 26.54358282 0.00515387 -0.00410260 -0.00165552
O 19.16367487 16.97125797 4.92153210 0.00066752 -0.00785617 0.00382565
O 12.27382412 18.28081013 3.74012144 -0.00670112 -0.00036338 0.00432093
O 19.30852865 10.43227440 20.81348537 0.00184396 0.00107645 0.00145239
O 20.65576014 8.58826037 9.16308865 0.00525561 0.00198734 0.00283412
O 20.53241855 0.37394628 2.16158158 0.00661517 -0.00082549 0.00727634
O 22.61182667 21.09441546 15.03532222 -0.00266153 0.00795991 0.00404453
O 2.69471334 16.80996222 9.69413059 -0.00017667 0.00265649 -0.00202789
O 15.24444745 24.24107754 21.50496851 0.00168599 0.00271057 -0.00423946
O 24.59496276 17.33906367 19.43056117 -0.00245912 0.00309037 0.00227420
O 14.24319460 0.07411399 18.74098878 0.00505901 -0.00019170 -0.00088238
O 17.27775205 13.77491400 15.86276172 0.00095751 0.00032742 -0.00521893
O 18.66035690 19.05197501 9.71130436 -0.00628912 -0.00630043 0.00416868
O 15.45685516 24.95108220 29.97183802 -0.00210335 -0.00912677 0.00399114
O 17.51045636 24.33026194 17.30394687 0.00118221 -0.00668464 -0.00099480
O 2.72422068 26.11338660 11.92434458 0.00537199 0.00619424 -0.00169892
O 18.95384807 26.07168106 9.53996294 -0.00108373 -0.00689927 -0.00224868
O 4.03164966 21.25657076 17.20133725 -0.00256607 0.00205249 0.00357792
O 12.69834035 0.36103748 24.87069506 0.00032226 -0.00259853 -0.00250358
O 18.90750181 22.32895652 1.79371819 0.00246471 -0.00558134 0.00065140
N 13.56013694 22.95460449 12.54212596 -0.00193369 0.00053626 0.00359231
N 4.86808097 3.15411367 5.64723609 -0.00227103 -0.00760030 -0.00163599
N 5.12184750 24.46829926 7.48026469 0.00185924 0.00492386 0.00595397
N 1.48214372 9.22457159 17.50055448 0.00144612 -0.00199812 0.00289341
N 2.95443967 0.99645232 18.03689909 -0.01130187 -0.00240134 0.00660238
N 3.03851407 10.70235453 26.11438248 0.00487787 0.00315641 -0.00169289
N 4.06116987 15.90518169 2.81148693 0.00816619 -0.00170849 -0.00284408
N 2.14658485 2.68346026 0.93721168 -0.00458987 -0.00057113 0.00791065
N 1.93100658 14.22137565 25.13636928 0.00828945 0.00115214 0.00184183
N 23.84246728 8.28458458 26.09760603 -0.00163403 0.00027145 0.00159039
N 20.91536595 22.46435535 21.64903448 -0.00776307 -0.00411877 0.00139757
N 11.17711882 4.85968410 25.37786781 0.00236473 -0.00345227 0.00259702
N 6.45599445 2.68019634 30.06278497 0.00210867 -0.00424077 0.00126200
N 8.18405683 9.71758545 14.81043495 0.00075955 0.00423394 -0.00145353
N 6.81338495 15.59315937 19.17526373 -0.00548857 0.00299844 -0.00075927
N 5.61838817 6.48855162 15.58466766 -0.00219879 -0.00404288 0.01209528
N 8.56883474 24.84494369 9.62794033 0.00337955 -0.00143159 -0.00333247
N 1.49595278 18.34281680 12.92185244 0.00082732 0.00109976 -0.00030165
N 1.53748894 13.40558538 29.55452114 0.00043504 -0.00527924 -0.00812453
N 3.95305994 17.83688788 20.55722468 -0.00544172 0.00298624 -0.00522203
N 0.76172884 12.76809860 14.63268773 -0.00595199 0.00266802 -0.00304509
N 1.24104525 23.68662368 4.01635431 -0.00041498 -0.00031243 -0.00333789
N 11.68902408 19.30643725 11.68151034 -0.00453864 0.00383276 -0.00043698
N 22.68056681 26.24285774 26.43668827 0.00260842 -0.00820617 -0.00552923
N 10.54739365 1.41401825 15.38534425 0.00131453 -0.00251204 -0.00325077
N 3.31978466 22.18930025 1.05261359 -0.00424748 0.00368178 0.00453517
N 22.29330037 11.49614089 21.91487272 0.00468721 -0.00422895 -0.00379678
N 3.99116680 21.41342847 28.53319384 -0.00337427 -0.01002505 0.00075829
N 19.21150082 12.21921254 4.18765389 0.00198570 0.00254858 -0.00006482
N 5.94463338 22.61841639 24.24981956 -0.00059723 -0.00336232 0.00488888
N 10.63249496 21.22042698 23.59730015 -0.00402687 -0.00071224 0.00116594
N 22.08694037 16.95290430 24.35882086 -0.00413573 0.00275117 -0.00326306
N 11.96038547 11.32305850 2.62769070 0.00450033 0.00075155 0.00551012
N 9.76846499 5.51412577 7.78307793 -0.00689629 -0.00424973 0.00457347
N 14.95861784 6.04864431 8.79656225 -0.00131392 0.00651668 0.01083629
N 13.00856196 14.03773531 14.80631309 0.00205961 0.00720925 0.00331433
N 9.39463791 23.28922042 13.07403319 -0.00403199 0.00661218 0.00775771
N 18.12726659 12.65682596 9.04913812 0.00417145 -0.00559091 -0.00327764
N 7.90412556 15.91973230 6.57620197 -0.00343951 -0.01050178 -0.00586561
N 15.35256933 10.78368613 10.75129290 0.00563565 0.00556224 0.00032829
N 14.35401589 10.79671434 18.43107732 0.00558169 0.00135991 -0.00271298
N 9.45987528 6.82018940 22.72041424 -0.00073225 0.00417668 -0.00183783
N 12.82160448 2.50511668 8.84335417 0.00615742 -0.00103873 -0.00298100
N 0.38560505 8.57518728 3.51039823 0.00094431 0.00080252 0.00138996
N 7.82592885 1.04474772 24.27021320 0.00227542 -0.00509793 0.00533084
N 20.15637506 4.73483901 19.38035445 -0.00955276 0.01228398 0.00402171
N 6.87633734 14.12284997 14.58283943 0.00027369 -0.00785422 -0.00791698
N 19.22092226 2.99258923 28.69107216 -0.00068217 0.00139315 -0.00043783
N 6.88511198 8.14777287 28.73677199 0.00343166 -0.00548472 -0.00038724
N 7.46836687 11.98981727 9.02352924 0.00191351 -0.00149227 0.00020934
N 16.65947144 13.05674830 0.90017273 -0.00228820 -0.00486799 0.00398142
N 21.47644113 17.89550152 15.59352282 -0.00408334 -0.00057123 0.00181331
N 8.20544664 10.05628159 3.37950858 0.00046746 -0.00491301 -0.00148540
N 16.01767230 1.08443193 13.91481580 -0.00198175 0.00075373 -0.00256616
N 17.31963391 4.20842383 6.34716572 0.00106806 -0.00164431 0.00104875
N 10.06019623 23.34517731 5.81201063 0.00083268 -0.00629664 -0.00839114
N 23.18033941 25.94392036 18.01547493 -0.00023165 0.00166327 -0.00081654
N 11.48047591 13.40077443 26.50080100 -0.00032405 -0.00448435 -0.00071846
N 12.74187618 12.40259834 21.83322042 0.00278268 -0.00261114 0.00441214
N 11.23490975 2.67143724 1.81320379 0.00601148 -0.00687831 0.00426922
N 7.92943769 16.84924544 27.55232195 0.00010499 -0.00777075 -0.00081334
N 17.33779613 16.19584999 23.08928975 -0.00020103 -0.00715438 0.00225202
N 12.42685727 5.77920867 14.47524355 -0.00138399 0.00221874 -0.00495851
N 13.68878745 19.76142918 20.70140138 -0.00477728 0.00241803 -0.00021118
N 19.76281448 18.12060488 7.94716604 -0.00383781 -0.00381855 -0.00368816
N 20.63452732 5.93912491 13.95968801 0.00053285 0.00762414 0.00383533
N 15.55888775 8.95589366 1.74064904 0.00018822 -0.00097201 -0.00670788
N 22.98719576 7.26555745 7.19134662 -0.00603553 0.00141779 -0.00025246
N 20.92330722 24.88892940 9.87414816 -0.00518604 0.00910273 -0.00350892
N 1.40974447 10.71631249 6.95612101 0.00347301 0.00771976 -0.00743260
N 13.65218945 18.50174349 2.02527550 0.00451039 0.00635691 -0.00469602
N 22.77466238 3.38326121 0.52040983 0.00422393 0.00045089 0.00485915
N 0.16054728 7.43590168 12.24667022 0.00395271 0.00525163 0.00199837
N 11.96269393 20.49954342 29.06224636 -0.00120844 -0.00504047 0.00102681
N 19.07209252 25.39905453 15.87907561 0.00172504 -0.00410342 -0.00699184
N 18.64370552 13.05474334 27.21184855 0.00295582 0.00083424 -0.00585342
N 19.15208628 23.63878247 25.45592224 -0.00178062 0.00412384 0.00050813
N 1.77146134 3.94557069 23.30749630 -0.00895354 -0.00299917 -0.00450919
N 14.01949639 2.01081923 23.93765978 -0.00867588 0.00032514 -0.00632820
N 23.58065369 6.61170891 21.55600758 -0.00199903 -0.00162466 -0.00343593
N 19.99827079 25.02121748 4.57623215 0.00235576 -0.00133018 0.00273417
N 18.96264425 17.29094094 12.64328820 0.00481432 0.00695906 0.00120521
N 11.33600807 24.32200868 0.42702373 0.00495010 0.00306376 0.00450928
N 2.34824507 25.29971389 13.99237418 -0.00189598 -0.00122607 0.00228832
N 14.38826909 17.84144491 14.65696710 0.00168972 -0.00119675 -0.00677763
N 18.38062535 17.69526209 2.84364757 -0.00113289 -0.00228317 0.00354739
N 24.13269900 25.90091621 8.56770649 0.00236658 0.00361765 0.00024354
N 16.76745762 23.10130995 1.55144299 -0.00708447 0.00205384 0.00150368
N 7.09526425 23.65372511 20.26166238 -0.00470860 -0.00386756 -0.00642462
N 17.19753736 25.71199873 28.67748502 0.00564751 -0.00272979 0.00298538
N 16.24820900 4.88886381 28.10553430 -0.00096540 -0.00208823 -0.00235481
N 24.10056215 15.08180247 5.79138496 -0.00107923 -0.00140334 0.00119977
N 13.93707676 7.93529072 20.75135732 0.00178166 0.00130905 0.00145797
N 1.98686325 21.05337267 16.14200042 0.00796685 -0.00168475 -0.00353383
N 23.47484402 19.84906903 28.05687461 -0.00057716 -0.00254574 -0.00358979
N 19.44381381 9.64037277 18.65724124 -0.00119703 -0.00224386 0.00408392
C 6.84913474 24.88710947 11.25142950 -0.00280588 -0.00513211 0.00212088
C 5.90725844 2.25631449 7.57813676 -0.00273208 -0.00278427 -0.00126944
C 3.11670825 15.26602147 29.39697547 0.00147581 -0.00305718 -0.00023524
C 24.42223093 10.57132815 17.71483672 -0.00615244 0.00768584 -0.00385772
C 23.73896673 12.57592176 13.22709628 0.00023667 -0.00314783 -0.00313708
C 3.99686042 11.77660465 28.11369461 0.00359932 0.00614194 0.00616039
C 10.80512047 20.21356850 13.78294994 0.00057441 0.00115087 -0.00105033
C 2.23276807 1.94888205 3.23267422 0.00277465 0.00785699 -0.00207783
C 5.83114022 24.22732825 11.86965121 -0.00028079 0.00626919 -0.00338991
C 5.80651997 1.69545149 8.86630466 -0.00421097 0.00415216 -0.00711931
C 3.57044147 16.54047430 29.73918903 -0.00693757 0.00575538 0.00653316
C 23.08730832 10.70887929 17.30756736 -0.00749702 -0.00379111 -0.00147346
C 23.16852677 12.58371432 12.01202932 -0.00056265 -0.00331410 -0.00246234
C 4.28512825 11.69215095 29.46859983 -0.00443899 -0.00225393 0.00518498
C 9.67408249 20.30342549 14.67541045 0.00210679 0.00777651 0.00004371
C 1.88607242 2.09123836 4.59206625 0.00498948 0.00013347 -0.00189755
C 5.55314789 22.83205391 11.65339763 -0.00566320 0.00318837 0.00181691
C 4.61968015 1.33757445 9.47299968 0.00195278 0.00041504 0.00046234
C 2.86991432 17.23352609 30.69834864 0.00285653 0.00473408 -0.00580477
C 22.53920926 10.13713033 16.18420010 0.00135108 -0.00071299 -0.00389032
C 23.96421672 12.56595777 10.85457923 0.00396546 -0.00039166 -0.00349328
C 3.54093847 10.89708922 30.34506592 0.00366706 0.00397910 0.00729279
C 8.37863608 19.81125208 14.34975636 -0.00506022 -0.00063075 0.00655086
C 1.15690413 3.29089766 4.94044542 0.00366729 0.00855504 -0.00148836
C 6.47809064 22.11015562 10.88589833 0.00058973 -0.00511097 -0.00088234
C 3.52042683 1.51436198 8.69787790 -0.00084989 -0.00727067 -0.00063410
C 1.70620775 16.59913727 0.61075334 0.00142357 0.00797284 0.00426714
C 23.42260428 9.23806345 15.49260240 -0.00149587 -0.00014238 -0.01203819
C 0.32730419 12.57740071 11.02660896 -0.00148951 -0.00278019 -0.00069237
C 2.50584351 10.12244008 29.76889566 0.00369451 -0.00470686 -0.00034168
C 8.28186933 19.18275846 13.13785624 0.00729239 0.00158458 -0.00330323
C 1.10638468 4.33217378 4.06966114 -0.00531605 0.01167818 0.00185840
C 7.57615543 22.72769901 10.35931085 0.00685082 0.00253355 -0.00233033
C 3.56848380 2.00537028 7.39695486 0.00128782 0.00287375 0.00414468
C 1.30049100 15.32151790 0.23677462 -0.00401972 -0.00739823 -0.00183459
C 24.68281960 8.98691743 15.95380107 0.00051617 0.00886812 -0.00685386
C 0.93179962 12.62087553 12.23864162 0.00287700 0.00058391 0.00020898
C 2.49490796 9.98471381 28.40146591 -0.00214451 0.00551057 0.00460894
C 9.30300642 19.07488195 12.26051276 -0.00356932 0.00168683 -0.00139304
C 1.47184383 4.20205547 2.73422755 -0.00548523 -0.00502142 -0.00504054
C 7.73721671 24.18008411 10.42592284 0.00636087 0.00580020 0.00259604
C 4.75539218 2.46481680 6.87368556 -0.00187493 0.00009088 -0.00493273
C 1.97373541 14.67656585 29.97311672 -0.00798353 0.00217259 0.00326179
C 0.26863119 9.65695342 17.05669923 0.00664368 0.00681148 -0.00296998
C 0.12783512 12.71760633 13.40415217 -0.00518590 0.00071775 0.00593658
C 3.14766895 10.87209711 27.48272015 0.00548170 0.00353461 -0.00217832
C 10.61196138 19.50164187 12.58505681 -0.00326467 -0.00301851 -0.01119484
C 1.85119208 2.92818607 2.31164233 0.00099059 -0.00835744 0.00205099
C 8.88289327 26.15378872 9.76695798 -0.00302865 -0.00485899 -0.00389579
C 5.04166119 4.50366492 5.48708252 0.00223808 -0.00498028 -0.00721982
C 0.67378503 12.58543497 30.24538502 -0.00246648 -0.00314132 -0.00194908
C 2.20520885 9.84244431 18.44823789 -0.00472515 0.00197243 0.01020621
C 24.95938336 13.10462299 15.75852126 0.00414349 0.00314900 0.00190436
C 4.01013169 10.97263245 25.19580359 0.00552384 -0.00476758 0.00095586
C 11.52280723 18.62150395 10.51133411 -0.00574572 -0.00338410 -0.00348519
C 2.14957698 3.62904390 30.71009775 0.00436354 -0.00183098 0.00161824
C 4.25846230 14.46097924 24.49378242 0.00328649 0.00161441 0.00088060
C 4.49853714 5.43931581 6.59349451 -0.00882234 -0.00295004 0.00536317
C 3.23798936 23.75239883 8.72837201 0.00434687 -0.00525575 0.00026731
C 10.51987608 5.64694640 27.59172225 -0.00372234 -0.00691976 -0.00533334
C 6.04086009 2.78125091 1.61474554 0.00018961 -0.00026782 0.00193665
C 3.74260375 10.60422263 23.75747087 -0.00604203 -0.00173843 -0.00314685
C 2.77466941 13.89942782 2.82137978 0.00191491 -0.00104948 -0.00066558
C 4.36436465 4.73088431 14.35936328 -0.00356114 -0.00494506 0.00123596
C 8.26107518 1.00992291 14.62732170 0.00498780 0.00621984 0.00254038
C 0.66513901 7.98603060 24.56353993 -0.01017105 -0.00585913 -0.00450010
C 24.67396574 12.34995467 21.85711715 -0.00298718 -0.00255626 -0.00022505
C 13.41953448 5.18570436 24.29909838 0.00255917 -0.00414021 0.00339521
C 20.01439263 10.73290629 2.40227822 -0.00186671 0.00181487 0.00130628
C 6.69294822 9.93197837 12.97409196 -0.00099369 0.00145187 0.00551465
C 12.01429916 23.21562775 23.88256156 0.00565968 -0.00259913 0.00370908
C 6.85628418 6.43308648 17.67878056 -0.00484541 0.00178328 -0.00082916
C 7.27289528 1.07717440 13.65211750 -0.00191044 -0.00059284 0.01025951
C 2.02385268 7.66680017 24.38929318 -0.00712319 -0.00658560 -0.00072133
C 0.53805224 13.34429644 21.44389288 -0.00023020 0.00044382 0.00496501
C 14.18784186 5.10932542 23.15824381 0.00898876 0.00273749 -0.00160392
C 20.68954956 10.58404504 1.19335887 0.00233176 -0.00164997 0.00286112
C 5.46865505 10.04166734 12.42477296 0.00091083 -0.00263308 -0.00503437
C 12.42946324 24.23772388 24.74073158 -0.00260173 -0.00631519 0.00520936
C 7.78108683 5.86196298 18.53693921 -0.00015094 -0.00056348 0.00655499
C 7.50862699 1.90318576 12.57125868 -0.00237374 -0.00435604 -0.00026667
C 2.69664469 6.90608220 25.36663888 0.00297874 -0.00045357 -0.00196312
C 0.10955989 14.31483764 20.53513032 -0.00227792 -0.00362198 0.00706632
C 13.57761855 4.47937859 22.00212604 -0.00204347 0.01077955 0.00797394
C 21.10584464 11.64169637 0.38188862 -0.00079167 -0.00018531 0.00566371
C 4.35564272 10.33825284 13.28529442 0.00285525 -0.00310871 0.00152692
C 11.75439022 24.52941193 25.92829285 -0.00039309 0.00550551 -0.00464006
C 8.22446825 4.57714900 18.30763802 0.00499296 -0.00020534 -0.00405825
C 8.75321367 2.58817264 12.38132916 -0.00202948 -0.00211256 -0.00515489
C 1.97762279 6.41341761 26.50329600 -0.00236259 0.00341401 -0.00137568
C 23.74488032 14.23254948 20.14552512 -0.00475434 -0.00002374 0.00790190
C 12.32946442 3.84953232 22.09612126 0.00246735 -0.00484629 0.00711768
C 20.95482937 12.92359847 0.94161662 -0.00692773 -0.00656625 0.00100059
C 4.60008096 10.51736424 14.69424819 0.00415799 -0.00731038 0.00588460
C 10.56513746 23.79325353 26.23223963 0.00041447 -0.00249266 -0.00257108
C 7.85897882 3.90985908 17.13519775 0.00297690 -0.00379925 0.00207574
C 9.72753778 2.35135424 13.28457964 -0.00546101 -0.00111195 -0.00432242
C 0.67796553 6.82155700 26.70710524 -0.00789060 0.00911853 -0.00091472
C 22.82633884 13.31764402 20.64199030 0.00040948 -0.00002077 -0.00326469
C 11.58165837 3.99621565 23.23700924 -0.00085253 -0.00492398 -0.00232015
C 20.39612147 13.08785254 2.17421517 0.00200678 0.00023042 0.00282041
C 5.88146270 10.30423174 15.22993830 -0.00152552 0.00759599 0.00022492
C 10.18213960 22.82640720 25.39078875 -0.00044384 -0.00341349 -0.01058970
C 6.98411501 4.52139178 16.21550473 -0.00261414 0.00550698 0.00463090
C 9.48126773 1.63501433 14.51904811 -0.00401467 -0.00257054 0.00192316
C 0.07589782 7.70851965 25.79613756 -0.00100744 0.00098828 0.00023651
C 23.26625095 12.38013253 21.51463969 -0.00116978 -0.00366023 0.00576550
C 12.08525087 4.67132259 24.32666028 -0.00205249 0.00644226 0.00504214
C 19.87951696 12.05556057 2.95831726 -0.00116225 -0.00306584 0.00280308
C 6.91205522 10.02499175 14.34536825 -0.00279961 0.00491435 0.00346315
C 10.91263558 22.38630794 24.23569276 -0.00257468 0.00202519 0.00379213
C 6.46427091 5.79455404 16.46578789 0.00357760 -0.00013062 0.00110895
C 10.38897597 0.55546179 16.47007236 -0.00644910 -0.00193322 -0.00500290
C 23.09517485 7.85874721 27.16117891 -0.00034389 -0.00242427 -0.00750818
C 22.58192924 10.61269316 22.90603999 0.00332607 -0.00447787 -0.00420131
C 11.65435335 5.31470643 26.56643644 0.00334153 -0.00149632 0.00523109
C 18.75083619 13.41085373 4.58930165 -0.00117737 -0.00747111 -0.00560908
C 8.59716093 9.67739847 16.11343310 -0.00198281 0.00521234 -0.00338648
C 10.52155753 21.15020103 22.23335403 -0.00032395 -0.00187191 0.00104450
C 5.08623195 6.08277672 14.42092281 0.00343417 0.00570064 -0.01471943
C 12.35382685 23.16647813 14.65677277 -0.00053351 -0.00364485 0.00904988
C 22.07678627 8.79974337 27.61026363 -0.00333988 -0.01195509 -0.00071461
C 19.54820339 23.50653059 20.00313628 0.00190309 -0.00558357 -0.00532363
C 3.52233333 9.13982104 18.77725336 -0.00192771 -0.00510285 -0.00058281
C 2.39436839 3.35768674 17.99798064 -0.00274475 -0.00350912 0.00681898