1920
Time=74000.00000007 pbc="T T T" Lattice="24.62583129 0.00000000 0.00000000 0.00000000 26.78273101 0.00000000 0.00000000 0.00000000 30.94069915" energy=-12237.97595489 virial="-8.06461045 -7.31337935 20.24220899 -7.31337935 -49.37046133 6.88736505 20.24220899 6.88736505 -78.63275487" stress="0.00211780 -0.00040375 0.00103100 -0.00040375 0.00002948 0.00034550 0.00103100 0.00034550 -0.00141081" Properties=species:S:1:pos:R:3:vel:R:3
O 4.37094423 23.08823014 12.65720100 -0.00491368 0.00247303 0.00071308
O 4.44844924 1.18984400 10.78327632 0.00061589 -0.00302611 -0.00051479
O 3.81373039 18.29755730 0.92276999 0.00002562 0.00473171 -0.00676345
O 20.79528590 10.91842161 15.76238544 0.00549993 -0.00484718 -0.00112098
O 23.40493245 11.29341793 9.75081688 0.00247195 -0.00578452 -0.00177643
O 3.86130461 10.65214596 0.95210204 0.00585932 0.00068461 -0.00291149
O 7.70288587 20.47800592 15.43935012 -0.00037951 0.00124157 0.00635107
O 24.46861051 2.94207544 5.78227915 0.00278980 -0.00361786 0.00527798
O 9.06728090 26.70177421 17.19551400 -0.00006763 0.00166037 0.00239269
O 5.21200596 4.29295628 3.84057951 -0.00153437 -0.00367192 0.00978753
O 24.11468995 13.53564800 0.71218370 0.00632393 0.00085272 0.00072506
O 12.65263689 5.41533771 27.00489655 -0.00127580 -0.00042683 0.00318204
O 19.49508726 14.28477457 4.05359887 0.00178588 0.00399872 -0.00431011
O 4.69609645 11.27330201 25.49979945 -0.00348075 -0.00086189 -0.00354607
O 10.13664999 18.28105544 10.08184493 -0.00069690 -0.00475193 -0.00308683
O 5.42286100 7.58072082 13.80848362 0.00243050 0.00574064 0.00488024
O 6.41308496 2.53012315 11.96383456 -0.00252372 -0.00222453 0.00485625
O 4.60157061 7.11997451 25.14510275 0.00186281 -0.00145601 -0.00737453
O 0.51707628 14.97888231 20.42007873 -0.00165544 0.00214621 0.00208719
O 13.87476031 4.34874735 20.78534990 -0.00443022 0.00422890 0.00436321
O 21.65424877 11.34318781 29.88974346 0.00082742 0.00450679 -0.00125867
O 2.72496926 10.41021646 13.17873359 -0.00136332 -0.00503196 0.00357190
O 12.21095590 25.88285012 27.02328509 0.00118255 -0.00354506 -0.00048270
O 8.51715522 3.58556919 19.48918252 0.00429312 -0.00436443 0.00582496
O 8.08832567 1.03041585 10.37724552 -0.00597396 -0.00178215 0.00562909
O 23.27111370 6.89463477 27.94631055 -0.00018833 0.00101708 -0.00064580
O 22.92816904 10.11407511 23.83218126 -0.00376564 0.00081335 0.00099070
O 1.53837625 11.22855421 18.92531819 0.00122768 -0.00658642 -0.00521344
O 23.55432803 13.48650152 15.99802781 -0.00501474 -0.00394529 0.00222859
O 7.77782990 10.11303842 16.89923082 0.00406311 0.00355125 0.00030086
O 12.32729580 20.30220370 23.80176854 -0.00566234 0.00479746 0.00021999
O 1.21890119 4.70888222 30.83661061 0.00350306 -0.00066517 -0.00268234
O 16.84944749 20.24977916 9.31839084 0.00286506 0.00134660 0.00094005
O 4.58470727 20.50234156 8.13783919 0.00541254 -0.00241003 -0.00596526
O 6.88474192 24.49504729 2.05914809 0.00238104 0.00466131 0.00282823
O 5.56830882 18.79994209 15.34461052 0.00121320 -0.00088478 -0.00306227
O 4.91943259 24.08667328 18.32908044 -0.00290120 0.00366579 -0.00098589
O 3.66539869 26.60511562 30.56982893 0.00000351 0.00796085 -0.00172412
O 7.79374220 19.91309947 4.46984485 -0.00155344 0.00418451 -0.00648003
O 3.65014437 25.74195378 26.89707021 -0.00035563 -0.00330907 -0.00335226
O 3.15492711 16.48796920 26.40676851 0.00349088 -0.00259745 0.00062787
O 3.52775042 18.03515615 13.93140620 -0.00277487 0.00968707 -0.00290005
O 4.16646273 23.00757274 7.66031373 0.00886089 -0.00546247 -0.00142378
O 4.40707481 19.62246340 29.75455138 0.00580012 0.00536165 0.00388452
O 6.11692142 0.69266449 0.32131353 -0.00315927 -0.00449143 0.00450636
O 2.37155451 24.22178369 5.39002862 0.00158413 -0.00077410 -0.00438650
O 3.54174505 15.47799579 5.14637864 -0.00071751 -0.00140377 0.00126950
O 22.31270670 18.89659319 23.20301648 0.00135886 0.00016431 -0.00110879
O 22.11234807 15.10612200 29.21312607 0.00644796 -0.00396909 -0.00030742
O 24.32984549 18.59734621 4.11118344 -0.00647023 0.00700298 0.00604081
O 0.82270855 21.36145258 23.68579942 0.00124732 -0.00025755 -0.00345566
O 7.51965661 24.86247693 28.98852606 0.00424499 -0.00062688 -0.00443793
O 4.91330573 3.33986885 25.36451483 0.00170242 0.00339909 -0.00232196
O 4.96799517 17.46475501 24.98623794 0.00352440 -0.00226774 0.00338103
O 3.33452660 11.87086147 20.59765829 -0.00115281 -0.00078326 0.00648372
O 18.09358095 19.47681063 27.74444753 0.00211041 -0.00643937 0.00386049
O 13.37467102 21.67238327 14.59497284 -0.00214617 0.00227671 0.00749802
O 5.10913376 23.02070657 0.83539507 -0.00053905 0.00064708 -0.00379674
O 21.01468343 23.26735588 19.69601177 -0.00160070 -0.00216558 -0.00506896
O 2.97777413 15.67110368 20.32839129 -0.00041131 0.00058501 0.00139807
O 4.19790112 3.63784936 16.98025168 0.00286848 -0.00085199 0.00610676
O 4.51829052 23.76284735 25.28316736 0.00182034 0.00785799 -0.00510739
O 8.01419412 16.34887679 21.23509955 0.00705087 -0.00260436 0.00488787
O 20.81138472 25.81799714 26.10926211 -0.00094080 0.00235083 -0.00361812
O 3.79005212 5.74005044 2.21837473 -0.00696029 -0.00443454 0.00500132
O 7.23945407 7.64587891 12.20099891 0.00436700 0.00347666 0.00266610
O 16.45131903 9.51368462 26.58910970 -0.00590060 -0.00108453 0.00149242
O 10.50650976 9.64333838 12.81033030 0.00273717 0.00230075 -0.00187436
O 11.30730567 11.60458415 8.04533314 -0.00239190 -0.00221664 0.00446188
O 13.61977088 10.48285397 7.02509371 0.00082293 0.00343982 -0.00181808
O 17.97058554 4.30353979 11.58561573 -0.00270451 -0.00665317 -0.00175770
O 20.00352185 12.51035755 13.28393713 -0.00023928 -0.00596532 -0.00086979
O 22.54936391 0.03195004 15.76511369 0.00025352 -0.00433858 0.00339788
O 8.18784785 3.98661879 7.05051087 0.00043651 -0.00280616 -0.00031774
O 14.59378838 13.58325650 0.27140613 -0.00435310 0.00700741 0.00364493
O 2.53682840 9.10624102 2.43976317 -0.00229344 -0.00060192 0.00736117
O 7.18649503 18.19084898 29.41615717 0.00433012 0.00192102 0.00291570
O 19.56503011 10.18409367 9.24492234 -0.00005603 0.00295574 0.00073314
O 15.80470825 2.34888016 5.99469615 0.00588686 0.00030460 -0.00633884
O 20.05006852 3.65107121 27.41477488 0.00167227 0.00129283 -0.00231047
O 0.77662008 26.59698191 22.94690965 0.00378790 0.00176186 -0.00044013
O 7.05605761 11.46495635 24.46761870 0.00354248 0.00002832 0.00219307
O 7.75723420 11.05133748 19.44031873 0.00101239 0.00787746 0.00977302
O 22.03833846 6.55582754 30.18315750 0.00050118 0.00401358 0.00162466
O 8.21908185 11.91340485 30.69538610 0.00113279 -0.00499441 -0.00082159
O 18.96356490 1.70896356 14.32170570 -0.00179896 -0.00641524 -0.00168155
O 12.87031224 2.41679521 18.96271348 0.00007202 0.00214713 -0.00508077
O 17.85375890 8.25661267 0.25596266 0.00178110 0.00124195 -0.00492964
O 5.53008582 8.06348460 27.58283990 0.00121174 -0.00223133 -0.00219021
O 8.29851001 4.54046731 21.91379598 -0.00265390 -0.00395755 -0.00574497
O 12.08059250 14.92963494 22.19655899 -0.00262320 0.00189126 -0.00846115
O 14.78622258 13.83750441 14.52408627 0.00189140 0.00311366 -0.00211673
O 8.34848046 11.60162652 2.31663283 -0.00021388 0.00316660 0.00015454
O 18.16874827 4.42295150 21.45029770 0.00526757 -0.00137922 0.00029251
O 11.58010961 7.48292656 13.25937124 0.00696005 0.00415705 0.00281668
O 13.71848192 12.31864433 11.31394593 0.00421308 0.00378911 -0.00092602
O 9.68902398 9.75050697 29.73165548 0.00219136 -0.00206693 -0.00034800
O 2.66449974 13.62151484 6.66779838 0.00040309 0.00335915 0.00697897
O 12.58512358 6.57861039 3.76826532 -0.00117265 -0.00266781 0.00272226
O 23.88447356 17.92466455 10.61382810 0.00504984 0.00286719 -0.00862312
O 12.19555108 25.30142865 8.70039055 0.00671921 -0.00521385 0.00976641
O 17.12794198 22.67159488 13.74665194 0.00385681 -0.00273250 0.00138700
O 8.56642375 15.82499216 12.13282844 0.00064065 -0.00093206 0.00467241
O 8.66931634 18.50468753 7.90422141 0.00331844 0.00337225 -0.00432772
O 15.15754144 9.76205427 18.96774617 -0.00568863 -0.00522131 -0.00126561
O 9.05370771 10.78963004 9.37112390 0.00212796 -0.00739874 0.00011883
O 15.22619205 8.10117742 9.43031497 0.00467725 -0.01308311 -0.00309144
O 11.79017464 4.13327577 3.14033323 -0.00428285 -0.00163449 -0.00243026
O 7.84390130 1.26389965 25.98685198 0.00294026 0.00404604 -0.00684854
O 16.85845304 2.32017437 12.83945202 -0.00152183 0.00864646 0.00201896
O 7.81391255 15.11872250 4.46855271 0.00543374 -0.00389427 0.00358758
O 14.85364011 18.13342480 20.13515408 -0.00040671 -0.00702018 0.00331928
O 15.35653222 15.75632203 20.74501583 -0.00292627 -0.00011538 0.00597508
O 8.55933455 16.69151844 23.70769149 -0.00127922 0.00357776 0.00762778
O 15.80752770 24.71984805 7.22368689 0.00153445 0.00966894 0.00078369
O 8.33371295 0.33739022 28.37268257 0.00097560 0.00308791 -0.00047139
O 9.64191147 25.11261077 19.06152046 0.00171880 -0.00162094 0.00334100
O 19.40081809 19.05495366 19.33657646 -0.00387038 0.00205767 -0.00496547
O 11.11966221 16.21194714 17.43497363 -0.00017097 -0.00045027 0.00141228
O 15.21016167 24.38835698 18.17618309 -0.01044280 -0.00095225 -0.00550754
O 11.71926775 13.70024100 3.26706403 0.00492493 0.00312719 0.00814714
O 9.42502683 11.37413938 27.52150530 0.00388399 0.00364240 -0.00336371
O 12.58855503 1.76373215 11.22585062 0.00290445 -0.00534284 0.00900351
O 20.70906795 17.34984873 17.75862837 0.00112063 -0.00796338 0.00430731
O 9.72484996 25.05674561 14.50770562 -0.00648362 0.00086651 -0.00617826
O 16.41911216 17.73231963 24.81068121 0.00246993 -0.00342326 -0.00490263
O 6.24954858 16.12221207 13.28538692 -0.00091455 -0.00275666 -0.00020308
O 11.75841314 24.06411565 6.54975783 -0.00717025 0.00415376 0.00005534
O 21.91271555 20.44308455 3.56943596 0.00339149 0.00172624 0.00703643
O 23.73840952 4.80134916 17.36624738 0.00268090 -0.00213939 0.00118344
O 10.09840448 19.96672950 3.36229427 -0.00160412 0.00356537 0.00918387
O 17.35055304 7.10490993 4.89036855 -0.00081015 -0.00114978 -0.00133156
O 12.30339881 14.54874310 11.14132078 0.00092838 0.00542937 -0.00113744
O 23.41324185 11.40553068 2.24994136 -0.00461013 -0.00554532 -0.00380737
O 21.05819443 3.83830418 7.92348300 -0.00396957 0.00420346 -0.00445973
O 22.94117616 0.82167729 4.79787055 0.00095085 0.00371543 -0.00346896
O 7.53817539 20.85245849 20.42127572 -0.00085443 -0.00056698 0.00590102
O 19.46801355 8.70629383 14.57408783 -0.00537018 -0.00173217 0.00400616
O 13.83738682 24.02615929 30.70118202 -0.00319459 -0.00470748 -0.00371631
O 20.46720153 13.18686343 28.38937916 -0.00474168 -0.00671848 -0.00368149
O 10.70492686 7.61328975 21.60079285 0.00295461 -0.00162641 -0.00025277
O 0.29325448 9.92659399 8.24455098 -0.00266041 0.00102102 -0.00718902
O 23.52204609 23.40606770 8.11466531 -0.00192799 -0.00322853 -0.00082243
O 23.60326267 5.19088403 19.99295984 0.00208374 0.00366141 -0.00280496
O 2.45239326 23.52956551 22.91196094 0.00186246 0.01213081 0.00098254
O 14.81478244 19.71764274 25.34796831 -0.00595872 -0.00382704 -0.00209950
O 18.16739455 6.21952644 23.33697709 0.00046975 -0.00000035 0.00641599
O 19.20064015 12.69704393 21.86206332 -0.00028058 0.00479734 -0.00133387
O 15.23820027 10.64569264 24.61791142 0.00493866 0.00029490 0.00469187
O 5.42190197 3.06082024 19.11594392 0.00035468 0.00330354 0.00002846
O 22.47222461 23.42073861 0.27903162 -0.00283683 -0.00364380 -0.00039128
O 20.50408970 2.64504515 25.04309467 -0.00408798 0.00231766 0.00876105
O 17.45953817 24.42107837 5.31436373 0.00167941 -0.00481106 0.00256594
O 10.43876635 17.90857279 29.71048797 -0.00087497 0.00138165 -0.00050969
O 16.28934489 1.64831375 27.55307012 -0.00183799 -0.00267282 0.00099502
O 23.31371419 5.32502151 6.26538386 0.00045474 0.00452913 0.00001265
O 12.14680720 18.27873979 16.19604081 0.00020031 -0.00223685 0.00320468
O 2.78654289 2.09629383 24.81052508 0.00162397 0.00643235 0.00058523
O 0.94052010 20.86877538 26.20198871 -0.00763472 0.00357232 -0.00014315
O 22.81532420 1.72810237 29.46687133 0.00172241 0.00445294 0.00473195
O 24.31772103 20.91521027 8.00365183 -0.00480942 -0.00087756 0.00094112
O 17.43202835 19.55483211 17.48453763 -0.00187298 -0.00104438 0.00750815
O 13.21009010 4.85980226 29.45904412 0.00611383 0.00393227 -0.00357149
O 24.39831093 21.40243933 13.89441709 -0.00052831 0.00223412 -0.00444276
O 23.00715708 1.65538002 13.98958427 0.00076579 0.00513801 -0.00808405
O 22.64488451 16.84931929 0.21094162 0.00134861 -0.00463750 -0.00185440
O 17.34605885 17.52256547 29.15147285 -0.00882162 -0.00075752 -0.00059757
O 13.66972802 22.38634235 6.32820785 0.00393345 0.00353941 -0.00344883
O 1.38645065 8.90276238 11.59631222 0.00275996 -0.00104451 0.00451208
O 19.75936004 15.13694763 13.78935532 -0.00029338 -0.00109260 0.00063881
O 16.63067983 8.42655149 2.57421327 -0.00293193 0.00698816 0.00128695
O 0.17666058 16.14992697 4.31615929 -0.01218054 0.00147889 -0.00435951
O 18.17717613 21.92542336 27.33028730 -0.00148709 0.00147491 -0.00423148
O 18.94269016 16.49601367 5.24610988 -0.00248605 0.00051293 -0.00020472
O 11.73702244 17.82341967 3.52493464 -0.00123028 0.00443161 0.00462608
O 17.96730193 10.28429656 21.04599053 0.00382493 0.00188860 0.00472392
O 20.29119598 7.71954152 9.22068898 0.00641452 0.00553017 0.00170507
O 19.90228042 0.06775106 1.70735426 -0.00598884 0.00414468 -0.00372671
O 22.06275186 21.58922383 14.82052933 -0.00420284 0.00021316 -0.00671291
O 2.35768329 16.06813356 10.33443434 -0.00142953 0.00169051 -0.00161799
O 15.37272458 24.24696484 21.99088600 0.00847541 0.00011793 0.00795463
O 24.10883650 17.07664773 19.74830167 -0.00470346 0.00083929 0.00015630
O 14.02610455 26.56853871 19.04392936 0.00041196 -0.00409337 0.00072529
O 16.68246075 14.17820087 16.20384622 -0.00361656 -0.00490067 0.00392861
O 18.86183663 18.75112957 10.13488003 0.00011891 0.00684707 0.00600064
O 15.85831476 23.26745327 29.27475175 0.00138010 -0.00502638 -0.00030643
O 17.51865947 24.93708568 17.68441349 0.00386703 -0.00209542 0.00084399
O 2.82706773 0.01275924 12.24152011 -0.00410250 0.00519003 0.00388599
O 18.97761486 26.19266241 9.59787189 -0.00566263 -0.01017443 -0.00064582
O 3.13691355 22.35111550 18.35432778 -0.00395211 0.00055663 -0.00201496
O 13.42142040 0.42861270 25.30504214 0.00345728 -0.00345574 -0.00534190
O 17.66420986 20.31892788 1.89809769 0.00081531 0.00005401 -0.00085002
N 13.67490015 23.13658992 12.83034658 0.00468964 -0.00172562 0.00400251
N 4.26123166 3.31846148 5.61507735 0.00419604 -0.00145872 0.00185663
N 4.78062473 25.14363418 7.08387004 0.00275486 0.00244279 0.00827377
N 1.07071235 9.40396923 17.73797023 0.00660765 0.00818006 -0.00249022
N 2.56937278 2.47223931 18.10251160 -0.00331550 -0.00340631 0.00270608
N 3.02002517 10.14731995 26.35335371 -0.00023604 0.00331416 -0.00521613
N 4.52931818 15.68535576 3.09316931 0.00527682 -0.00054147 0.00593315
N 2.08078127 2.77364711 0.75184085 -0.00583526 -0.00383992 -0.00216565
N 2.25187806 14.38629659 26.27603538 0.00582012 -0.00649457 0.00344872
N 23.70149017 7.94885304 25.91035463 -0.00068125 -0.00421215 0.00269741
N 20.40896642 22.57212929 21.78316832 0.00134165 0.00513262 0.00305930
N 10.96437844 4.80381997 25.53615645 -0.00366550 -0.00746522 0.00736619
N 6.96082818 2.71946128 30.66581876 0.00657629 0.00423670 -0.00616617
N 8.09904828 10.09811713 14.61496955 -0.00223830 -0.00226112 -0.00259822
N 6.90462431 15.98076628 19.22682467 -0.00270129 -0.00251328 0.00249821
N 5.82521388 6.80182639 15.90688545 0.00116715 0.00630745 0.00570623
N 8.07757578 25.72369870 9.43949954 0.00033336 -0.01004308 -0.00189304
N 1.89617736 19.07151507 12.71363386 -0.00259199 -0.00018333 -0.00916700
N 1.13478261 13.79264713 30.12229351 -0.00236728 -0.00549407 0.00706192
N 3.98329551 17.74958677 20.65893474 -0.00112604 -0.00285865 0.00161348
N 0.77027475 12.95943629 14.72805937 0.00619444 0.00747180 -0.00229069
N 1.06182784 23.59826009 3.57242793 -0.00094053 -0.00548093 -0.00456161
N 11.30680313 19.60317029 11.41088299 0.00075105 0.00629305 -0.00149785
N 22.83758504 26.62482963 26.66892685 -0.00704924 -0.00464515 -0.00735579
N 10.35518082 1.02122302 15.65456567 0.00419940 -0.00611043 -0.00086909
N 3.16567376 21.91624283 1.27405145 0.00446025 0.00927523 -0.00300829
N 21.64844045 10.99516371 22.20800778 0.00044401 -0.00459807 -0.00314019
N 3.12395892 21.43089840 29.19723744 -0.00473270 0.00254088 0.00304364
N 19.15887252 12.00049035 3.90082367 -0.00399731 -0.00048201 -0.00129926
N 6.16517512 22.80710397 24.05157744 0.00146772 -0.00135674 -0.00373641
N 10.38053268 21.31259196 24.58611764 -0.00084917 0.00433274 -0.00029912
N 22.00535410 17.21009483 24.68241228 -0.00379365 0.00475747 -0.00283243
N 11.94247647 11.45047646 3.59316273 0.00227450 -0.00147122 -0.00015033
N 9.72371386 5.49822298 7.71380998 0.00059581 -0.00695544 -0.00667446
N 14.45557901 6.03866521 8.92614011 -0.00226594 -0.00233887 0.00544215
N 12.67402860 14.39421905 14.93420149 0.00019829 -0.00566550 0.00174694
N 8.57174535 24.06093216 12.75423858 -0.00005305 0.00205826 -0.00569492
N 18.43612215 12.17099938 9.25001801 -0.00792698 0.00793737 0.00084001
N 7.53534009 15.41786091 6.65644469 0.00279925 0.00768234 -0.00595244
N 15.32072254 10.81645827 10.78821037 0.00110594 -0.00133760 -0.00445321
N 13.30543249 11.00842408 18.60839752 0.00311350 -0.00450378 -0.00084710
N 8.64175697 6.43442399 23.04246091 -0.00848232 0.00262178 -0.00225552
N 12.70128942 2.24019779 8.95850860 0.00137649 -0.00030173 -0.00011675
N 0.66996937 8.39312916 3.41674993 -0.00138963 -0.00592760 0.00294797
N 8.11002231 0.66570126 23.86172962 -0.00549773 0.00687470 -0.00417550
N 19.07695510 4.11822161 19.38170466 -0.00380914 -0.00010290 0.00607097
N 6.68756617 14.35228026 14.71262980 0.00171958 0.00375562 -0.00174596
N 18.87651748 3.20815591 29.30113001 -0.00321815 0.00301937 -0.00497388
N 6.93481369 8.35603505 29.36089836 -0.00130263 0.00112658 0.00109547
N 7.01143174 11.78749548 9.60362445 0.00049997 0.00617731 0.01057639
N 16.49597797 12.41460986 0.43160327 -0.00333422 0.00419935 0.00786929
N 21.26544972 17.84524761 15.60912981 -0.00562289 -0.00473016 0.01017850
N 8.02741368 9.90626915 3.80798299 0.00054156 0.00235027 -0.00233838
N 15.16200332 1.09988438 13.68807570 -0.00108177 -0.00237646 -0.00122295
N 16.76130035 4.39557027 6.26782678 0.00210519 -0.00036863 0.00029152
N 9.59091212 23.69943023 5.95486436 -0.00405378 0.00024444 -0.00031027
N 23.16780628 26.08597920 17.84613399 -0.00435371 -0.00064322 0.00119270
N 11.10961024 12.75698359 26.73953757 0.00564696 -0.00235072 -0.00390749
N 12.37175374 12.70790972 22.01911487 0.00716356 0.00317878 0.00963470
N 10.78180585 2.66715534 1.83032980 0.00050772 -0.00310714 0.00027856
N 7.27038324 16.56870975 27.72300348 -0.00241457 0.00290715 0.00683134
N 17.66078566 16.12566109 23.85074637 0.00209003 -0.00304990 0.00796982
N 12.32280461 6.15229982 14.86981826 -0.00067037 0.00143029 0.00655392
N 13.74949187 19.84833076 21.17417995 -0.00043470 -0.00386924 -0.00490446
N 19.70713779 17.79143943 8.21756295 0.00111536 0.00572786 0.00143138
N 19.76644762 6.53351518 14.02146295 0.00357377 0.00700838 -0.00096996
N 14.96863493 9.27631823 1.28134400 0.00571326 0.00683645 0.00661468
N 22.47769010 7.27913870 6.93407643 -0.00084211 0.00211483 0.00909408
N 20.75579685 24.99336125 10.30742702 0.00334499 -0.00282028 0.00059384
N 1.90002741 10.46862568 6.77869462 -0.00490015 -0.00385456 -0.00065292
N 13.50387123 17.88838334 2.16642745 -0.00430540 -0.00275713 0.00621384
N 22.04944612 3.31855843 30.85630536 -0.00088213 -0.00422583 -0.00424624
N 0.36261916 6.90482490 12.05903137 -0.00037824 0.00062618 0.00126152
N 11.36028045 19.99792050 29.61472647 -0.00375183 0.00553742 -0.00116216
N 18.49793874 25.82082705 15.82892381 -0.00579995 -0.00472031 0.00776129
N 18.35467288 12.93596439 27.39904910 0.01117285 -0.01078353 -0.00153918
N 19.14467615 23.55131679 26.03339465 0.00417595 0.00054018 -0.00329744
N 2.04306278 3.63131761 23.38977645 -0.00438931 -0.00567615 -0.00230383
N 14.32813218 2.08217544 23.98714186 0.00161139 -0.00093196 0.00550151
N 22.68626990 6.52727616 21.67517052 -0.00105255 -0.00748772 -0.00008544
N 19.20571291 25.33380690 4.39177963 -0.00250702 -0.00759811 -0.00430502
N 19.18760667 17.07987910 12.80157368 -0.01296211 -0.00043415 0.00418789
N 11.66131540 24.34824383 0.38247538 0.00641763 -0.00106346 -0.00565765
N 2.17142601 26.48193230 14.42180222 -0.00643029 -0.00366251 0.00641810
N 14.14343859 18.11756920 15.03239156 -0.00387228 -0.00229698 0.00467815
N 18.24984056 17.64819184 3.44640785 0.00284462 -0.00252545 -0.00018100
N 23.29216726 25.56502707 8.17981859 -0.00113287 0.00497150 0.00086125
N 16.91880320 22.51554004 1.79632338 0.00591857 -0.00147778 -0.00021648
N 7.24396754 23.04809949 20.07897525 -0.00038878 0.00382928 -0.00864205
N 17.14446034 24.85287921 28.19361148 -0.00023464 0.00889164 -0.00420638
N 16.24415529 3.91073158 27.97944656 0.00074193 0.00207755 -0.00507117
N 23.82794725 14.83616948 5.99846178 0.00268117 -0.00011948 0.00345344
N 12.81889096 7.19713857 20.92317925 0.00432245 -0.00464602 -0.00100909
N 1.66328115 21.34403887 16.96796395 -0.00906144 0.00419715 0.00802301
N 23.79158611 19.83393573 27.18511350 0.00721148 0.00061291 0.00564229
N 18.14174883 9.56023452 18.91516037 0.00536125 0.00563558 -0.00303299
C 6.44945618 25.79611129 11.27491628 -0.00343158 -0.00084253 0.00639656
C 5.52639383 2.54927332 7.50946539 0.00394036 0.01505297 0.00187085
C 3.26611313 15.04618912 30.22666170 0.00301858 -0.00379799 -0.00440603
C 23.71416313 10.87776015 17.91981952 0.00397900 -0.00035954 -0.00244171
C 23.38807685 12.53844362 13.35166075 0.00098763 -0.00817770 0.00038629
C 4.31221103 10.99892205 28.23193576 -0.00033771 -0.00730828 0.00186348
C 10.75539974 20.41525708 13.58613206 -0.00058013 0.00087663 0.00219928
C 1.59205009 1.64107452 2.90627654 0.00033732 0.00446210 0.00324887
C 5.51391701 25.14507618 12.10840895 -0.00287313 -0.00033392 0.00457985
C 5.58382556 2.02399742 8.79062876 0.00801832 -0.00256460 -0.00087520
C 3.81393544 16.29871242 30.51479144 0.00599338 -0.00270965 0.00080389
C 22.50571185 11.11627491 17.39512847 0.00425124 0.00712297 0.00100141
C 22.96303061 12.02433545 12.10492456 0.00075825 -0.00081178 0.00143878
C 4.50239289 11.12827941 29.64078727 -0.00477359 -0.00228992 0.00109540
C 9.91675278 20.74104304 14.57561266 -0.00449764 0.00596812 -0.00518309
C 0.93516470 1.67338393 4.10548529 -0.00213676 -0.00378929 -0.00062430
C 5.22059062 23.86247824 11.80529677 0.00149079 -0.00175831 0.00196434
C 4.42926823 1.79164839 9.51454917 -0.00480844 0.00214007 -0.01007807
C 3.24427130 17.12749361 0.63836578 0.00744922 0.00118817 0.00790394
C 21.99996487 10.53823408 16.24237944 -0.00276780 -0.00003866 0.00492844
C 23.77563946 11.79579561 10.95057828 0.00607864 -0.00154506 -0.00010053
C 3.68924108 10.44243814 30.57978814 -0.00062131 -0.00845884 -0.00616620
C 8.56978733 20.40437307 14.38409346 -0.00091064 0.00706937 -0.00147202
C 0.49982594 2.88023203 4.62718373 0.00417031 -0.01123304 -0.00080531
C 5.80873356 23.18029938 10.71238355 -0.00766003 -0.00482221 -0.00088982
C 3.20284570 2.03242724 8.91279677 0.00198318 -0.00447376 -0.00432438
C 2.05449691 16.71800135 1.29618820 0.00370725 -0.00497529 -0.00170738
C 22.74941343 9.52061472 15.59028981 0.00305811 0.00744136 -0.00195506
C 0.49930986 12.23197859 11.09133420 -0.00007107 -0.00140563 0.00607167
C 2.74044961 9.59201706 30.05434192 0.00786003 0.00072854 -0.00350992
C 8.13039205 20.01705441 13.13169513 0.00025249 0.00044804 0.00292460
C 0.73477852 4.04974980 3.86840246 -0.00010323 -0.00438821 0.00563956
C 6.77122595 23.78935882 9.93567097 0.00992778 0.00342320 0.00369286
C 3.11093802 2.54494500 7.63457786 -0.01246185 0.00116885 0.00556547
C 1.49155876 15.58754239 0.78675889 0.00264302 -0.00176796 -0.00099482
C 23.98976788 9.19268986 16.13069769 -0.00117500 0.00004720 -0.00151290
C 0.99983025 12.60464360 12.33205133 0.00179626 -0.00080224 -0.00283166
C 2.44449033 9.54158684 28.71880029 0.00709868 -0.00056093 0.00265789
C 9.00063404 19.79171529 12.05924120 -0.00152042 -0.00470318 -0.00346326
C 1.24370920 4.04455941 2.61688445 -0.00352207 -0.00354304 -0.00062085
C 7.05910523 25.14027762 10.15709313 -0.00371483 -0.00079846 -0.00341818
C 4.27540274 2.76824620 6.87536915 0.00078557 -0.00291613 0.00058929
C 2.05311115 14.67990808 30.80579046 -0.00265305 -0.00369632 -0.00015019
C 24.43668546 9.85891879 17.27708837 0.00577202 0.00420501 -0.00089843
C 0.17596402 12.67654795 13.50811797 -0.00290258 -0.00193784 -0.00015223
C 3.26117752 10.23019862 27.76305197 -0.00283868 0.00426153 0.00523620
C 10.33360836 19.93362735 12.33835301 -0.00316731 -0.01244178 0.00233618
C 1.61423838 2.81042712 2.07773919 -0.00046238 -0.00198471 -0.01093610
C 8.41075862 0.27090379 9.46323977 0.00384115 0.00324470 -0.00204496
C 4.94338531 4.32836739 5.04202094 0.00295356 0.00466803 0.00235153
C 0.17803152 13.04709900 30.75313576 -0.00743933 0.00427879 -0.00243119
C 1.89757287 10.13447845 18.54397700 -0.00282665 0.00368966 0.00294093
C 0.11889071 13.50624895 15.79585144 -0.00082672 -0.00314279 -0.00561303
C 3.55244089 10.91664609 25.39052168 0.00204876 -0.00301701 -0.00065268
C 11.17262107 18.86651431 10.26127455 0.00611234 0.00398006 0.00078350
C 1.96592145 3.73071862 30.72402829 0.00210320 0.00367478 -0.00239984
C 4.36682667 14.64807779 25.33217720 0.00297227 -0.00698427 -0.00365788
C 5.31135006 5.54877132 5.81583962 -0.00880232 0.00405871 -0.00185935
C 2.83068327 24.75925684 8.57610632 0.00670008 -0.00160908 -0.00123678
C 10.43679848 5.96343931 27.58043700 -0.00526836 0.00926223 0.00351044
C 6.06444337 2.47221017 1.94279308 -0.00390838 0.00009031 -0.00384989
C 2.68699473 11.10937398 24.17076851 -0.00114926 0.00131945 -0.00178279
C 2.91604636 13.93982991 3.46438581 0.00836684 0.00136177 0.00090374
C 5.00985020 5.21472196 14.17989820 -0.00078830 -0.00491106 -0.00078181
C 8.02289023 1.09515059 14.93911176 0.00208925 0.00078528 -0.00889634
C 1.03471732 7.73479505 24.45957122 0.00022085 0.00607702 0.00494016
C 23.88754797 11.90361734 21.99477007 0.00353970 -0.00294377 0.00257661
C 13.14251418 5.05733730 24.27648403 0.00263275 -0.00625705 0.00357694
C 19.97362580 10.69938642 2.05633900 -0.00575912 0.00595616 -0.00198298
C 6.33113707 10.25833144 12.98293066 0.00064090 0.00091783 -0.00207059
C 12.02685303 22.99718635 24.76188064 0.00657410 -0.00074059 0.00572171
C 6.65598472 6.44633763 18.10069360 0.00075801 -0.00983507 -0.00241292
C 7.00605979 1.56503455 14.07194946 0.00283628 -0.00061413 0.00208905
C 2.42998923 7.46235679 24.34140824 0.00657745 -0.00085137 0.00517988
C 0.07452186 12.97279438 21.66487880 -0.00254245 0.00017788 -0.00964365
C 13.82825392 5.03554153 23.07848513 0.00067175 0.00648360 0.00191500
C 20.60672934 10.44318120 0.88250003 -0.00363175 -0.00019435 0.00102643
C 4.99377594 10.39244087 12.59230432 -0.00169512 0.00026964 -0.00081425
C 12.52970591 24.14343371 25.41506469 -0.00299012 0.00290214 0.00016622
C 7.32522666 5.64649002 18.99179562 -0.00332864 -0.00541442 -0.00322203
C 7.31578089 2.26987769 12.89730366 -0.00000405 -0.00011991 0.00316798
C 3.27190761 7.10697201 25.39851764 0.00660935 -0.00156217 0.00429396
C 24.29800868 14.00214882 20.85606754 0.00031433 0.00111119 -0.00091022
C 13.23395832 4.29955885 22.00553859 0.00538801 0.00128354 -0.00133055
C 21.11771734 11.56433904 0.15557265 0.00065904 0.00052898 0.00140052
C 3.94484315 10.47579006 13.53298263 0.00867643 0.00426866 -0.00013995
C 11.82179538 24.75340791 26.47721692 0.00222061 -0.00665686 0.00074950
C 7.93607307 4.41157322 18.58254056 0.00346433 -0.00133599 -0.00270616
C 8.67527318 2.69040658 12.76912940 0.00399576 0.00063827 0.00417272
C 2.63869627 6.73541606 26.58835172 -0.00535955 -0.01002739 -0.00309596
C 22.91275067 13.95960526 20.48416552 0.00190291 0.00035293 0.00681977
C 11.97881648 3.63585420 22.19588037 0.00203167 -0.00871186 -0.00117515
C 20.96364834 12.86420922 0.70465214 0.00989767 -0.00353061 0.00755739
C 4.37442580 10.60674083 14.87717845 -0.00176588 0.00136621 -0.00418969
C 10.66848282 24.07735448 26.98488771 0.00309320 0.00476444 0.00231964
C 7.73314293 4.01018713 17.28885483 0.00116773 -0.00393055 0.00311666
C 9.60607774 2.29969753 13.66857288 -0.00043246 0.00300495 -0.00012051
C 1.22708378 6.93531549 26.73793832 -0.00585208 -0.00074129 -0.00428386
C 22.11682918 12.91926303 20.87612635 -0.00209967 0.00543886 0.00347307
C 11.31548213 3.78356346 23.38008338 -0.00265978 0.00256930 0.00032048
C 20.32371701 13.05625916 1.93330102 0.00093070 0.00274297 -0.00616462
C 5.66683291 10.51077879 15.28816219 0.00320195 0.00572000 -0.00143634
C 10.21946565 22.89225043 26.37877536 -0.00977509 0.00048628 -0.00078198
C 7.02728038 4.75466225 16.32877584 0.00191575 0.00368128 0.01223901
C 9.34433191 1.46779896 14.79610671 -0.00001081 -0.00134963 -0.00247381
C 0.40654555 7.48608497 25.70286959 -0.00419704 -0.00015142 0.00218474
C 22.55463271 11.84706064 21.64687532 -0.00304675 0.00029756 0.00374964
C 11.82049642 4.62447982 24.40441702 -0.00047832 -0.00637847 0.00142435
C 19.77942097 11.95655671 2.63689498 -0.00158033 0.00226048 -0.00683353
C 6.69297376 10.29190398 14.27722490 -0.00074425 0.00170241 -0.00172464
C 10.89278871 22.38256878 25.22648168 0.00442027 -0.00504947 -0.00148783
C 6.44909480 5.96644552 16.79334922 0.00874881 -0.00748009 -0.00622820
C 10.13308282 0.16605410 16.65507741 -0.00797118 0.00592058 0.01289297
C 23.08505726 7.78691542 27.11696681 0.00250173 0.00018163 -0.00203216
C 21.82707511 10.24141219 23.29188836 -0.00319780 -0.00409160 -0.00274866
C 11.47391020 5.33410006 26.70976324 0.00136990 0.00244913 -0.01174410
C 18.84362662 13.18435962 4.43250554 0.00561839 -0.00015993 0.00425874
C 8.52119399 9.98133585 15.93304453 0.00445682 0.00542081 0.00139552
C 11.11502284 20.46823172 23.81677415 0.00676087 -0.00682256 0.00895940
C 5.48737045 6.60275454 14.59606135 0.00216371 -0.00341088 0.00043007
C 12.43680558 23.88777875 14.81989276 -0.00601554 -0.00223139 -0.00279525
C 22.05189031 8.88161161 27.22968564 -0.00233250 -0.00300949 0.00050593
C 18.72926456 23.69322759 20.45386767 0.00797810 -0.00015780 0.00547378
C 3.26777790 9.49577304 18.95430028 -0.00145675 0.00738884 -0.00160293
C 2.10287881 4.68543172 17.13287681 0.00649494 0.00111938 0.00008073
C 9.98251245 9.63342023 16.08919874 0.00750155 -0.00484672 0.00565044