1920
Time=65000.00000006 pbc="T T T" Lattice="24.72999301 0.00000000 0.00000000 0.00000000 26.45548456 0.00000000 0.00000000 0.00000000 31.29582767" energy=-12235.66314781 virial="-44.26467578 -8.29016779 9.75112884 -8.29016779 -55.12778383 23.45026221 9.75112884 23.45026221 -21.07215457" stress="0.00021890 -0.00041519 0.00039603 -0.00041519 -0.00018623 0.00115988 0.00039603 0.00115988 0.00145127" Properties=species:S:1:pos:R:3:vel:R:3
O 4.12994637 21.98457780 12.80321698 -0.00057453 0.00011667 -0.00306113
O 4.24739448 1.23543555 11.22780986 0.00393369 -0.00372227 0.00026548
O 3.70842282 17.82162913 0.93578083 0.00353862 0.00155064 -0.00490653
O 20.85330778 10.71447479 16.76946243 0.00102830 -0.00068820 0.00101364
O 23.48980587 11.79330947 10.08403364 -0.00462552 -0.00150063 0.00166398
O 3.72828612 10.98050582 1.19888529 -0.00708821 0.00170859 -0.00210103
O 7.36113692 19.60830997 15.37001080 -0.00146206 0.00205074 0.00925974
O 0.34642931 2.82249216 6.02096787 -0.00304816 -0.00375673 -0.00106202
O 8.61812932 0.21278495 17.00523205 -0.00165523 0.00010847 0.00232408
O 5.22574907 3.83144609 4.30549694 -0.00056863 0.00568641 -0.00099197
O 0.71168416 12.12557062 0.43494177 -0.00739365 0.00045059 0.00074057
O 12.51967305 5.18748811 27.30181130 -0.00426582 -0.00411451 0.00339386
O 19.35382625 14.13925399 3.67420248 -0.00563374 -0.00525889 0.00251411
O 5.48984151 11.07840972 26.24687312 -0.00191553 0.00633916 -0.00311671
O 10.55963142 17.86753983 10.27317902 -0.00000829 -0.00033297 -0.00621604
O 5.48664340 7.13614904 13.53389855 0.00160531 0.00091897 -0.00057847
O 5.96916301 2.78628844 12.11224902 -0.00012682 -0.00429333 -0.00142123
O 4.60950687 5.91506578 25.99675005 0.00404893 -0.00218714 -0.00427223
O 0.68688507 14.51707006 20.63570123 -0.00462038 -0.00213793 0.00625396
O 13.50783658 4.23018495 20.87859713 -0.00263036 -0.00648864 0.00305372
O 21.73892018 11.07587663 30.22367957 0.00608381 -0.00394874 -0.00944511
O 2.86318927 11.31712172 13.69583211 -0.00308076 0.00398263 -0.00361576
O 12.05776771 25.51816499 27.17761588 0.00060735 -0.00200499 -0.00060521
O 8.48168584 3.35817128 19.45951358 0.00639518 -0.00065493 -0.00532349
O 8.05885899 0.25340911 10.64113454 0.00065070 0.00281784 -0.00006675
O 23.42835051 7.04331992 28.30831660 0.00221871 0.00154073 0.00452167
O 23.19624703 10.54205847 25.23191635 0.00232348 0.00100333 0.00439136
O 1.41712412 10.23912187 20.14280846 0.00140502 -0.00458694 -0.00195687
O 24.43198960 12.72934628 16.16405974 -0.00703036 -0.00146787 -0.00032035
O 7.75426156 9.35668592 17.44858781 0.01252612 0.00039609 0.00282619
O 11.72847786 20.60092386 23.05968158 0.00117557 0.00070705 -0.00038040
O 1.18482753 4.59010770 31.23794188 -0.00809420 0.00493549 -0.00108370
O 16.83548108 20.17567372 8.46140901 -0.00190338 0.00623505 -0.00000323
O 4.30590562 19.76920959 8.11638737 0.00829303 0.00148547 0.00289147
O 6.62069005 24.54494836 2.67769706 0.00029195 -0.00887560 -0.00397255
O 5.06245113 18.40609161 15.59493594 0.00073574 -0.00404452 -0.00569581
O 4.47455971 23.42600439 18.33969017 0.00338489 0.00116834 -0.00726198
O 3.30338948 26.37117529 30.81467104 0.00020612 0.00676965 0.00121946
O 8.00216226 19.53221047 4.60377524 0.00645033 -0.00272920 -0.00323649
O 3.39269539 25.55103446 26.89189780 -0.00238818 0.00203113 0.00175139
O 3.01601407 16.42051299 26.42686523 0.00117107 -0.00264105 -0.00653053
O 3.33962023 17.63014491 13.86174921 -0.00093710 -0.00286240 0.00076338
O 3.33254125 22.19357473 7.52402177 0.00130581 0.00022503 0.00464000
O 4.51991220 18.80442777 29.85829441 0.00453383 0.00062368 -0.00194719
O 5.46431915 0.96424263 0.13195457 0.00034520 -0.00097361 0.00099100
O 24.31166268 24.31371591 4.48406060 -0.00008716 0.00040114 -0.00026957
O 3.84412731 14.79398153 4.59436452 0.00376082 -0.00400453 0.01045397
O 22.45064757 18.45775690 23.32499733 -0.00323920 0.00134933 0.00792589
O 21.99002731 14.92845746 29.63922369 -0.00076329 0.00213043 -0.00618521
O 24.08165420 19.09250721 3.58993152 0.00155199 -0.00148561 0.00219816
O 0.85969250 20.97708596 23.97899101 -0.00017325 0.00290870 0.00046906
O 7.30793021 24.53807660 29.49226974 0.00297860 0.00649320 0.00322757
O 5.20297436 3.38724453 25.36908156 -0.00533214 0.00515016 0.00115645
O 5.23824535 17.18852391 25.33280167 -0.00604960 -0.00338934 -0.00016436
O 3.34056696 11.66820344 21.15735048 -0.00000549 0.00344870 -0.00500859
O 18.53682527 19.54943437 28.06451722 0.00182507 -0.00367670 -0.00352300
O 14.32328576 21.35632815 14.18234375 -0.00359894 0.00487357 -0.00079872
O 5.80793635 22.54211454 1.41241178 0.00139806 -0.00325619 -0.00385919
O 20.22318228 21.35296896 20.58484210 0.00164810 0.00163179 -0.00771054
O 3.11732200 15.37134706 20.73155562 0.00298937 -0.00079330 -0.00405004
O 4.61095386 3.40332170 17.51962671 0.00005586 -0.00231098 -0.00236129
O 4.23554340 23.46326212 25.68797416 -0.00182939 0.00285488 0.00223506
O 7.40419391 16.53535475 21.70324370 0.00860043 0.00211089 -0.00267027
O 20.54365716 25.91511660 25.87551159 -0.00398938 0.00200670 0.00327204
O 4.15187036 5.27314403 2.56385733 -0.00018139 0.00312912 0.00136574
O 7.97966706 7.42194739 12.98045908 -0.00334020 -0.00639537 0.00082538
O 15.60090540 9.37179094 27.55238514 -0.00138912 0.00857719 0.00691379
O 10.19979131 9.67914694 13.37511456 -0.00165434 -0.00003977 -0.00007267
O 11.17936449 11.07311886 7.67688136 -0.00578220 -0.00644010 0.00159406
O 13.34230679 9.48403678 7.02475870 0.00604767 -0.00057399 0.00217372
O 18.01937095 4.26182720 12.35378407 0.00743573 0.00620139 -0.00223513
O 20.20189169 11.97278411 12.86738797 0.00564182 0.00485750 -0.00241469
O 22.90602781 26.14573105 15.95596796 0.00629238 -0.00130231 -0.00291039
O 8.39528616 4.02334584 7.69637999 -0.00827831 -0.00170320 0.00320029
O 14.88696653 13.97929498 0.31707496 0.00239316 0.00106239 -0.00489324
O 2.65655273 8.94925775 2.43213602 -0.00140924 0.00638069 -0.00124288
O 7.23667386 17.67402471 29.96171768 -0.00055860 0.00115361 0.00009430
O 19.41318763 9.96470155 9.02156410 -0.00150633 -0.00263813 -0.00284084
O 16.37088816 2.27971498 6.33761867 0.00003076 -0.00456990 -0.00328396
O 19.80394457 4.08670438 27.27101911 -0.00464333 -0.00111932 0.00871763
O 0.53121060 26.29635221 23.20910892 -0.00177453 -0.00247760 -0.00111557
O 6.49904406 11.27211506 23.83532706 -0.00695788 -0.00069300 0.00169945
O 7.75331869 11.23426154 19.34321557 -0.00464275 -0.00273207 0.00229555
O 22.41380052 6.43157228 30.87703534 -0.00365312 -0.00294036 -0.00306218
O 8.31444380 11.21380276 30.59290464 -0.00082251 -0.00477063 0.00525678
O 19.38478884 1.92768348 15.01421817 -0.00413780 -0.00537638 0.00007850
O 12.58731518 1.88361426 19.02634412 0.00251626 0.00012324 -0.00464448
O 18.54512779 7.64278225 0.99076735 -0.00156775 0.00310258 0.00389420
O 6.01337267 6.87326302 28.11285231 -0.00364073 0.00152605 0.00076884
O 8.73947603 4.61313960 21.65503475 -0.00106364 -0.00196165 0.00285991
O 12.20366964 14.79101768 22.36533239 -0.00622213 -0.00457317 -0.00748915
O 15.25089985 13.53100232 14.54732898 -0.00115740 -0.00463625 0.00063864
O 8.73055227 10.94203942 1.86799682 0.00402573 -0.00242486 -0.00019810
O 17.41604435 5.98254768 21.42563521 0.00029671 0.00282606 -0.00020198
O 11.59795518 7.70368272 13.96433852 0.00225630 0.00024140 -0.00190394
O 14.05417931 12.44036278 10.93493265 -0.00949929 -0.00409499 -0.00277088
O 10.25624650 8.14300369 0.66432148 0.00183481 0.00144960 0.00653978
O 3.06778368 13.61411337 6.66286608 -0.00089527 0.00000558 0.00150348
O 12.89259645 5.83186957 3.94463786 0.00110231 0.00718462 0.00564440
O 23.37937710 17.49397372 10.38162060 0.00280806 0.00240548 0.00342132
O 12.11256163 24.73938197 9.02981689 0.00503397 0.00521831 -0.00502810
O 18.43526622 22.30174883 13.54554054 0.00113899 0.00332470 -0.00076389
O 8.75222552 15.50836101 12.10837934 -0.00019302 -0.00655896 0.00376037
O 8.51796687 18.41830656 8.54978365 0.00266411 -0.00057344 0.00276611
O 15.24069190 9.84972059 19.23781522 -0.00359240 -0.00283573 -0.00025059
O 9.58136226 11.75557804 9.60316176 0.00605453 0.00285713 -0.00395367
O 14.93121905 7.60748882 9.80718424 -0.00664022 -0.00646631 -0.00267037
O 11.06012782 4.30576220 2.91748076 -0.00102362 -0.00250486 0.00738698
O 7.94077208 1.57350445 26.08771187 -0.00417305 0.00104242 -0.00268286
O 17.32676918 1.98299795 13.31834335 0.00237428 -0.00018672 0.00149566
O 10.02573602 14.68198408 4.84124508 0.00099028 0.00229031 -0.00066760
O 15.65968698 18.27766751 20.64601771 -0.00057726 -0.00133783 0.00536516
O 16.62538766 15.90821794 20.72531195 -0.00601975 0.00294336 0.00282968
O 8.82422076 16.51685690 23.63098101 0.00285256 -0.00184471 0.00508774
O 16.37675277 24.08799289 7.89868259 0.00225521 -0.00492536 0.00474456
O 8.18047493 0.35340642 28.54171471 -0.00684180 0.00207665 0.00609565
O 8.54916240 25.22168630 19.04136029 0.00165115 -0.00445201 -0.00326478
O 20.20543317 18.67753057 19.82058711 -0.00045947 -0.00177534 0.00058626
O 11.94141651 15.85215126 17.54483512 -0.00539556 -0.00189387 0.00127600
O 15.01150272 24.30127219 18.23898283 0.00254313 0.00179604 -0.00175907
O 13.29995443 13.28468504 2.79295916 0.00478412 -0.00691757 0.00011491
O 10.93918939 10.91280769 25.60194501 -0.00046498 -0.00135622 0.00699478
O 13.80419425 2.84869547 10.18650764 0.00432924 -0.00444987 0.00897097
O 20.79142025 17.34867963 17.77153466 0.00580195 0.00467122 0.00929786
O 8.88432315 24.45400137 14.66892066 -0.00523871 0.00375716 0.00191544
O 16.62072415 17.88377964 24.95747632 -0.00014308 -0.00652032 0.01097137
O 6.80899146 16.15206479 13.69495425 -0.01256660 0.00566441 0.00112905
O 11.29122245 23.55481319 6.74633287 0.00148724 0.00450371 0.00498752
O 21.46459282 20.01202770 3.89814321 -0.00017130 -0.00337352 0.00131610
O 23.83488457 5.22229800 17.84609026 0.00308391 -0.00140320 0.00047883
O 10.48124447 19.93279537 3.85586152 -0.00447811 0.00289457 -0.00567961
O 17.57339011 6.66978150 4.99282515 0.00003414 0.00187200 0.00769048
O 12.36727194 14.40411937 11.63949585 -0.00454179 0.00430708 -0.00058431
O 23.85060451 10.86401978 1.96130621 0.00320081 -0.00937590 -0.00393339
O 20.31058947 3.73037041 8.21725738 -0.00522982 0.00214294 0.00031631
O 23.23853528 0.25076903 4.83830266 -0.00146357 0.00206697 0.00364841
O 7.49615947 20.80990823 20.61182595 0.00039027 0.00444774 -0.00189354
O 19.46703011 8.97555016 15.16029926 -0.00010481 -0.00036677 0.00483228
O 12.51280534 23.53169230 30.32691122 0.00501851 0.01017455 -0.00343771
O 20.37207163 12.89982112 28.99721045 -0.00354044 -0.00239591 -0.00205915
O 10.97279843 7.93886396 21.54049952 -0.00267409 -0.00043015 -0.00141896
O 24.67375083 10.16532161 8.45747966 -0.00280478 -0.00619723 0.00505562
O 23.85013932 23.42846379 8.25729284 -0.00376113 0.00174576 -0.00135084
O 22.99038234 6.55179414 20.17744283 -0.00436310 -0.00066369 -0.00384505
O 2.18871195 23.18547128 23.05441567 0.00679831 0.00501302 -0.00465822
O 15.30411952 20.15480960 25.99361499 0.00313644 0.00689763 -0.00589627
O 17.28008961 7.39061065 23.64487332 0.00411220 0.00145938 -0.00409719
O 19.21683672 12.37920123 22.76961285 -0.00465554 -0.00120189 0.00544671
O 15.25937823 10.41754766 25.33920372 -0.00454267 -0.00022889 0.00167498
O 5.65705224 2.79275676 19.73309790 0.00374337 0.00112661 0.00596886
O 22.21184540 23.19766204 0.09246766 -0.00215377 0.00626003 0.00040882
O 19.66124179 3.70684367 24.83671388 0.00329797 0.00409375 0.00354036
O 16.86017982 23.97851280 5.47871765 -0.00247821 -0.00035103 0.00574907
O 10.35638741 17.95736373 29.42352984 0.00013907 -0.00136846 -0.00357414
O 16.66713413 2.26792747 27.38054788 0.00027827 0.00014907 -0.00452687
O 23.56140822 5.41155706 6.12652904 0.00557220 0.00657182 0.00406693
O 12.60656942 18.07565209 16.57604208 -0.00055391 0.00309925 -0.00342200
O 1.60949176 1.66525952 24.59927582 0.00092336 -0.00395778 -0.00004088
O 1.01193711 20.94135119 26.57552533 0.00486345 0.00238867 -0.00578250
O 22.54072892 1.43282065 29.87885770 0.00615782 0.00319929 0.00547648
O 24.46757495 21.10835419 7.40969939 -0.00213343 0.00649965 0.00123423
O 17.90246194 19.16750071 17.23310298 0.00659225 -0.00412037 0.00487279
O 13.05232328 4.46927159 29.82739598 -0.00382902 -0.00029164 0.00126408
O 23.91231507 21.46045834 14.30628795 0.00147873 0.00154268 0.00150779
O 22.07582381 2.21559689 14.29865682 -0.00458389 -0.00576280 -0.00553921
O 22.73486485 16.57160589 0.50182474 -0.00296057 0.00317851 0.00077494
O 17.26699344 17.27257975 29.13910046 -0.00062626 0.00240892 0.00332688
O 13.62166777 21.78942416 6.28238191 -0.00906206 0.00819638 0.00364112
O 0.97887862 9.73749622 12.92014186 0.00251978 -0.00211776 0.00253158
O 20.25849873 14.53614975 13.72949444 -0.00170065 -0.00307892 0.00484547
O 16.68018217 7.16202495 2.81985437 0.00135214 0.00370708 0.00377183
O 0.86234161 14.69114195 2.95534951 -0.00053648 0.00033324 -0.00017173
O 18.12592064 22.02526599 27.60619360 0.00555807 -0.00190474 0.00531600
O 18.63377392 16.12395745 5.03434154 -0.00394863 -0.00121914 0.00278704
O 12.55394430 18.51715322 3.76418499 -0.00619771 0.00221646 -0.00159602
O 19.84177585 10.85557179 20.83885389 0.00226174 -0.00316019 0.00555362
O 20.51931730 7.76528394 9.62238427 -0.00277902 -0.00302697 0.00164963
O 19.13054348 0.89425529 2.65474943 0.00001540 0.00055296 -0.00222739
O 22.20864825 21.34824324 16.04208163 -0.00407452 -0.00249910 0.00203640
O 0.99495707 17.17872502 9.08230058 -0.00351724 -0.00405564 0.00401469
O 15.06377853 23.30905406 22.11111392 0.00492815 0.00396145 -0.00539680
O 23.96483502 16.36048641 19.89170504 0.00090552 -0.00047451 0.00077263
O 14.41054158 0.14468811 19.17821074 0.00112498 -0.00131957 0.00210999
O 17.38353596 13.48347141 15.73355371 -0.00235487 -0.00884706 -0.00010909
O 18.82166118 19.00842922 9.55646087 0.00138176 -0.00212305 -0.00673912
O 15.06554557 24.16115815 30.31661076 0.00061583 0.00321812 0.00069373
O 17.42052745 24.89914210 18.21525748 -0.00316656 0.00194282 0.00019505
O 2.69204152 26.39441462 12.64347558 -0.00220468 -0.00128837 0.00340578
O 18.63278442 25.75376327 9.97562107 0.00684189 -0.00149964 -0.00644704
O 2.75532148 21.54919267 18.30736190 -0.00439665 0.00198809 0.00050238
O 12.53431062 0.48195037 25.10557150 0.00272707 0.00113461 0.00444367
O 18.00378253 20.64050676 2.11739332 -0.00899011 0.00207159 0.00134762
N 13.83812581 22.66534128 12.41334793 -0.00360582 0.00203980 0.00042477
N 3.86723816 3.00064934 5.96722000 -0.00471467 -0.00571207 -0.01341596
N 4.29117007 24.32021354 7.58108222 -0.00412019 0.00045935 -0.00127346
N 1.36320952 9.63969137 17.88468209 0.00074640 0.00378547 0.00368600
N 2.90905694 2.28928360 18.41864247 -0.00304059 0.00053120 -0.00126584
N 3.46258550 10.15434373 27.04378811 -0.00576593 0.00242455 -0.00287078
N 5.61750582 14.70488586 3.17615203 -0.00427193 -0.00505236 0.00719302
N 1.61860128 2.41879066 0.63883079 -0.00031152 0.00115118 0.00270779
N 1.66363008 14.58473919 26.14828719 -0.00897215 -0.00270426 -0.00037270
N 24.38543614 8.47118465 26.74232157 0.00130593 0.00221415 0.00661893
N 20.54982251 22.49414439 22.56280620 -0.00020373 0.00100629 0.00856659
N 10.83930960 4.52678928 25.85482021 -0.00019150 -0.00513879 0.00181695
N 6.20498231 3.00450805 30.81279440 0.00376577 0.00264062 -0.00291169
N 7.95817305 9.60670109 15.10469999 0.00357756 -0.00516792 -0.00200486
N 6.85011894 15.65376862 19.59769959 0.00990860 0.00265561 0.00469806
N 5.82932890 6.53437811 15.71341075 0.00211308 -0.00412357 -0.00843634
N 7.81172779 24.68535346 9.66451424 -0.00097109 0.00670211 0.00065081
N 1.59142843 18.78228137 12.91965778 -0.00245691 0.00329197 0.00286012
N 2.01939640 12.98406609 30.09090002 -0.00538464 0.00286495 0.00031567
N 4.29923562 17.40350624 20.97110133 -0.00161051 0.00231869 -0.00865723
N 1.29721442 13.51340327 14.70239279 0.00105791 0.00131102 0.00108489
N 0.90652672 23.06139885 3.19717864 -0.00055069 0.00163010 0.00139117
N 11.46491614 19.41586651 11.62245915 0.00144087 -0.00301855 0.00596578
N 22.59913422 26.20848351 26.71460802 0.00868120 -0.00307909 0.00369898
N 10.12056002 0.86472026 15.45440688 0.00653526 0.00116567 0.00028006
N 3.74856421 21.65232571 1.25416214 -0.00131134 -0.00173530 -0.00295640
N 22.24818235 10.70437213 23.10775264 0.00079864 0.00713858 -0.00226062
N 3.53073848 20.54223630 28.83849773 0.00689823 0.00295636 -0.00621625
N 19.29520639 11.84142005 3.85497386 0.00186361 0.00188201 0.00387832
N 6.00716842 22.64512749 24.45282628 -0.00366053 -0.00021387 0.00631357
N 10.17638095 20.99875512 24.71737284 -0.00438800 -0.00256057 0.00498619
N 22.56973108 17.17784929 25.16269604 -0.00145801 0.00227226 -0.00131835
N 13.13928509 11.44957977 4.09977762 0.00349527 0.00043269 0.00095952
N 9.60196433 5.94146150 7.76045068 -0.00149028 0.00180150 0.00192490
N 14.52224278 5.45086511 9.27395627 0.00011922 -0.00083975 0.00250169
N 13.09291796 14.17893296 15.04562141 -0.00855523 -0.00055192 0.00367029
N 8.41412246 22.93235171 12.90557119 0.00802403 0.00047000 0.00421078
N 17.99551072 11.75453653 8.97582149 -0.00144628 -0.00107406 0.00513858
N 8.86069952 15.41320592 6.61504692 -0.00943820 0.00144688 0.00049057
N 15.17746743 10.39099280 11.12707193 0.00051341 -0.00245639 0.00014149
N 13.73738012 11.58414371 18.85068621 -0.00036389 0.00390853 0.00082662
N 9.12641020 6.49015668 22.80657285 0.00634537 0.00554645 -0.00233051
N 12.72918969 1.79462324 8.42962590 -0.00284155 -0.00662115 -0.00287256
N 0.98340157 8.06275407 3.67132903 0.00096758 0.00853070 0.00214860
N 8.37394278 1.35973229 23.92080817 -0.00201195 0.00902586 -0.00931014
N 18.48615869 4.84578195 19.83240233 0.00150717 -0.00921117 0.00185621
N 7.08855633 14.36505962 15.08884843 -0.00489740 0.00389086 -0.00379271
N 19.39619986 2.97759684 29.26306087 0.00449276 -0.00603764 0.00804502
N 7.16212577 7.69514633 29.90813648 0.00352702 0.00841651 0.00414112
N 7.52222253 12.70991105 9.85904041 0.00008391 0.00202574 -0.00221995
N 16.46083003 12.41193222 0.79316300 -0.00119910 0.00180784 0.00295163
N 21.51155976 17.93349285 15.66863859 -0.00420182 0.00225074 0.00197815
N 7.57846462 10.08868363 3.72661246 0.00329191 0.00159504 -0.00747123
N 15.61201435 0.66823774 14.03763855 0.00075665 0.00227634 0.00294064
N 17.11916265 4.44665509 6.86292183 0.00170977 0.00389364 -0.00140844
N 9.28555918 23.01751773 5.72723193 -0.00095995 0.00400900 -0.00199845
N 23.06536036 25.83070624 18.18078634 0.00166022 0.00061612 -0.00050314
N 11.05222964 12.75038186 26.89502891 0.00028681 -0.00708502 0.00090121
N 12.46637155 12.55452868 21.91769421 0.00360905 0.00043780 -0.00137289
N 10.67621564 2.54449023 1.61066764 -0.00090736 0.00277789 0.00774221
N 7.70797726 16.31357201 28.18917258 0.00031936 0.00494566 0.00652908
N 17.75634328 16.21102139 24.08983159 0.00198795 -0.00303757 0.00186436
N 12.29959256 6.16426548 15.39681062 -0.00210426 -0.00015655 -0.00308714
N 13.83858890 19.55286004 21.10529893 0.00040323 0.00136895 -0.00131496
N 20.11382580 17.71366189 8.23993631 0.00101054 -0.00050990 -0.00441903
N 19.81947630 6.92677726 14.27902077 0.00561180 0.00519115 0.00157989
N 15.29516887 8.53295695 1.56875648 -0.00399461 -0.00303910 -0.00190941
N 22.64168863 7.22810763 7.19859293 -0.00344543 -0.00649533 -0.00003873
N 20.84543918 25.28027479 10.20094518 -0.00032096 -0.00049101 -0.00418560
N 1.61079977 10.76380582 6.93955937 0.00122508 0.00447193 0.00511413
N 13.84122320 18.56376545 1.94459439 -0.00190504 0.00749910 -0.00260240
N 22.10228406 3.06686834 0.14086699 -0.00092334 0.00009487 -0.00364417
N 0.48078514 7.45075117 12.65304390 0.00161482 0.00390615 -0.00232385
N 11.40852953 19.89091845 29.99311790 0.00834371 -0.00211348 -0.00015978
N 18.41035586 25.49974647 16.28634983 -0.00009070 -0.00546460 0.00391479
N 18.25866315 12.69491883 28.26798849 0.00780953 0.00256745 -0.00336737
N 18.72092620 23.78330884 26.28030210 0.00308670 0.00346725 -0.00179813
N 1.94857960 3.80518831 23.76718314 0.00530744 0.00066927 -0.00255900
N 13.73449777 2.22098264 24.20471910 0.00062436 -0.00044198 -0.00534922
N 23.63658979 6.61913783 22.36159489 0.00630327 -0.00015837 -0.00255097
N 18.68852947 24.76256227 4.43226411 -0.00150294 -0.00185946 0.00160314
N 19.73551718 16.54062055 12.77296466 0.00717417 0.00592868 -0.00506384
N 10.58898532 24.04799000 0.06800320 0.00335282 0.00517883 0.00079122
N 2.32297565 25.92998925 14.78608080 0.01191758 0.00552794 0.00765495
N 14.49738088 18.16515062 15.18153014 0.00388314 0.00721390 -0.00370360
N 17.88583239 17.38164541 3.27688320 0.00297296 0.00086455 -0.00200242
N 23.65067246 25.63490025 7.78345302 -0.00430969 0.00378172 0.00004183
N 16.44162971 22.28434608 1.51675152 -0.01128416 -0.00279991 0.00068925
N 6.88816106 23.02030297 20.23882590 0.00190504 0.00212528 0.00924273
N 16.83958830 25.28037412 29.23924348 -0.00150603 0.00485470 -0.00387000
N 16.64591386 4.45408523 28.31024096 0.00201253 0.00329303 0.00086009
N 24.40166211 13.98700723 4.75857271 -0.00592353 -0.00124211 -0.01134496
N 13.13778197 7.94117139 20.85278732 0.01011837 -0.00143668 -0.00501377
N 1.18805966 20.52485058 16.93696600 0.00276288 -0.00455785 -0.00865296
N 24.16075367 19.66103329 27.65587949 0.00359019 0.00368292 0.00215052
N 18.66380386 9.56207993 19.37994922 -0.00229766 0.01222391 0.00180230
C 6.26943608 24.67611819 11.49022863 0.00410588 0.00019293 -0.00525227
C 5.23580274 2.39149705 7.84466535 -0.00129874 -0.00352654 -0.00216992
C 3.72379762 14.79089371 30.35495123 -0.00194285 -0.00832532 -0.00074883
C 23.97012811 10.52873375 18.58924384 0.00134708 0.00887710 0.00637203
C 24.07503970 12.69444380 13.51136450 0.00408274 0.00521821 -0.00217901
C 4.54728740 11.33627859 28.92745986 -0.00194572 0.00437819 0.00130607
C 10.61199501 20.00722195 13.79317893 0.00398387 -0.01259720 0.00269698
C 1.50912202 1.43624388 2.84470372 0.00095709 0.00243745 0.00817308
C 5.30640041 24.02941872 12.30869392 0.00166277 -0.00188711 0.00380777
C 5.32250436 1.87086589 9.17007959 0.00352634 -0.00305243 -0.00038129
C 4.19607181 15.94454826 30.87553207 -0.00463552 0.00191339 -0.00610586
C 22.62165010 10.72362080 18.40971561 0.00349847 -0.00214913 -0.00947233
C 23.44297335 12.27492351 12.37965145 0.00892242 0.00312996 -0.00679488
C 4.70766314 11.48008886 30.34337253 0.00665275 0.00619568 -0.00140355
C 9.63900822 19.99563029 14.73077279 -0.01014563 -0.00013106 0.00594009
C 1.14151226 1.55441237 4.14779707 0.00756778 0.00551148 -0.00375168
C 5.11843242 22.64131258 12.16102020 -0.00260079 -0.01126481 0.01009993
C 4.15540654 1.60094594 9.88001784 -0.00746749 -0.00315880 -0.00349697
C 3.33357849 16.60382097 0.47478437 0.00527085 -0.00163573 -0.00123875
C 22.06998657 10.33845266 17.16813630 0.00277592 -0.00324253 0.00743057
C 24.09081352 12.32805299 11.15359404 0.00369808 -0.00278848 -0.00319686
C 3.82323080 10.78879137 31.11465688 0.00315565 0.00241630 0.00035326
C 8.33627577 19.55659851 14.43432544 -0.00033047 0.00224101 -0.00443007
C 0.96289638 2.82145430 4.75726133 -0.00103701 0.00007155 0.00086816
C 5.82011511 22.01393473 11.13838530 0.00146227 -0.00143117 -0.00087084
C 2.90673469 1.44808403 9.19527004 0.00322998 0.00303459 0.00024504
C 2.19172401 15.97862818 0.97306863 0.00459375 0.00008515 0.00034045
C 22.89401945 9.75719776 16.19965367 0.00366566 0.00453477 -0.00579191
C 0.68391244 12.89268203 11.08168726 -0.00114744 0.00149457 -0.00645734
C 2.96411731 9.77612169 30.62009162 -0.00387612 -0.00571574 0.00532491
C 8.17274061 18.94922371 13.18289933 -0.00690172 -0.00362203 0.00487044
C 1.31686329 3.95417186 4.03725378 -0.00253621 0.01162753 0.00053044
C 6.76404738 22.63259258 10.32206425 0.00895488 0.00177252 -0.00353417
C 2.83333924 1.98271004 7.92668265 0.00291554 0.00473998 0.00542332
C 1.67361889 14.81928639 0.40139286 -0.00199284 -0.00049196 -0.00012002
C 24.20728875 9.50713611 16.43153854 0.00196639 0.00097744 -0.00194293
C 1.20151189 13.54628467 12.22877390 -0.00098850 0.00356199 0.00180711
C 2.93056471 9.58579897 29.26684173 -0.00473936 0.00138311 0.00267257
C 9.13346128 18.88771431 12.22998346 -0.00574427 -0.00174542 -0.00265132
C 1.57471326 3.84504677 2.66655982 -0.00263794 -0.00005054 0.00375447
C 6.93080509 24.02195899 10.46927098 -0.00239879 -0.00172052 -0.00647303
C 3.95122766 2.50378146 7.31853748 0.00122448 0.00387456 0.00453202
C 2.42348217 14.21259478 30.71478129 0.00706731 0.00123209 0.00181281
C 0.02781392 9.89323555 17.66698840 0.00879142 -0.00957573 -0.00313985
C 0.62538789 13.17552422 13.47578681 -0.00527677 0.00618251 0.00084704
C 3.73526815 10.36826859 28.36420937 -0.00256638 -0.00067528 0.00252771
C 10.39652484 19.47176999 12.55623159 0.00673655 -0.00765080 0.00130135
C 1.63286479 2.62180211 1.99263718 0.00169230 0.00423728 0.00273681
C 8.29023730 25.96756939 9.70781958 0.00112693 -0.00448148 0.00853366
C 4.74219324 3.87595733 5.44350954 0.00302881 0.00053393 0.00775502
C 0.95946322 12.20535326 30.54084879 0.00162815 -0.01037484 0.00715119
C 1.90247412 9.72127498 19.12455402 0.00645242 0.00369939 0.00137435
C 0.75454531 13.32716470 15.92862459 -0.00365444 -0.00002121 0.00143790
C 4.36878612 10.55940271 26.04943154 0.00411253 -0.00237740 0.00120363
C 11.50098838 18.61900606 10.58072883 -0.00469201 -0.00503662 -0.00413454
C 1.57739006 3.43722568 31.03014194 -0.00782157 0.00164965 0.00766401
C 4.02765259 14.24912903 26.23554013 -0.00676599 0.00118747 0.00151841
C 5.05648434 5.09140667 6.27080546 -0.00374741 -0.00193922 0.00816575
C 2.88650101 23.54525487 9.43759149 0.00556716 -0.00112145 0.00237811
C 10.34394766 6.00940034 27.68335747 0.00033702 -0.00170836 0.00519962
C 5.45290950 2.60608161 1.78079785 0.00424253 0.00486653 -0.00254407
C 3.84329850 10.28822194 24.63009949 -0.00226713 -0.00209448 0.00437980
C 3.64383159 13.19161719 2.90650054 -0.00709163 0.00270640 0.00121726
C 4.63173112 5.02890459 14.21176085 0.00210061 -0.00411236 -0.00013171
C 7.83808136 0.71537186 14.45343315 0.00722266 -0.00116456 -0.00195062
C 1.57080488 7.99133140 25.33780570 0.00219324 -0.00702802 -0.00577851
C 24.42469419 11.82306249 22.85533664 -0.00788661 0.00652547 0.00002547
C 12.74912684 5.46607687 24.31943464 -0.00028983 -0.00324665 0.01142538
C 20.11711256 10.34974838 2.12030992 0.00287520 0.00834123 0.00283664
C 6.23260832 10.10836070 13.46931242 -0.00450165 0.00609522 0.00396400
C 11.87189262 22.78549415 24.84489775 0.00235978 0.00148322 0.00120067
C 7.04734275 6.26569638 17.79038553 0.00378575 0.00136804 0.00043096
C 6.85012942 1.27387366 13.73776003 -0.00335680 0.00377381 -0.01289948
C 2.84158117 7.37522260 25.16900892 0.00331769 -0.00676549 -0.00370711
C 0.48671672 12.71984416 22.18826267 -0.00045977 0.00635808 0.00281971
C 13.33455134 5.19403227 23.08863097 -0.00225877 0.01291388 -0.00212636
C 20.86068811 10.07711362 0.96073281 0.00278494 0.00910109 -0.00136762
C 5.00841982 10.54887298 13.03952612 0.00628531 -0.00104341 -0.00483199
C 12.33948378 23.85054609 25.59624031 0.00013930 0.00212597 -0.00436069
C 7.82740520 5.58327509 18.68599289 0.01047108 -0.00354258 0.00921235
C 7.01309086 2.33921941 12.78585970 0.00259410 0.00529375 0.00609571
C 3.37519712 6.50008977 26.10669959 0.00236724 0.00201851 -0.00662833
C 24.57398350 13.61172593 21.25390805 -0.00054098 -0.00181213 0.00254263
C 12.80825859 4.40704379 22.08767065 -0.00645261 0.00131856 0.00473874
C 21.17700907 11.12182246 0.16040062 0.00306340 0.00182942 0.00250656
C 4.03554746 10.93984303 14.02807599 0.00446301 0.00668609 0.00336692
C 11.65462149 24.33845447 26.66204442 0.00623746 -0.00347700 0.00203907
C 8.00933791 4.16925612 18.50939930 -0.00179504 -0.00255512 -0.00455384
C 8.33862465 2.75765740 12.67635322 -0.00320998 -0.00806388 -0.00131313
C 2.55235300 6.13828523 27.18972312 -0.00332419 0.00458371 -0.00768236
C 23.18855783 13.62459195 21.08635995 -0.00560796 -0.00268182 0.00006288
C 11.59569646 3.79977874 22.30442033 -0.00934576 0.00002578 0.00206353
C 21.03220158 12.43925421 0.64849420 -0.00142937 -0.00407004 0.00294983
C 4.45936315 10.91748873 15.37676481 -0.00220474 -0.00155447 -0.00184714
C 10.53275431 23.67409851 27.20653966 -0.00164988 -0.00359239 0.00466060
C 7.61988943 3.68153773 17.23558905 0.00131180 0.00183143 -0.00013718
C 9.33584190 2.28069382 13.56456267 -0.00310634 0.00261181 -0.00059996
C 1.40271783 6.81541643 27.46241159 0.00062181 -0.00496870 0.00605996
C 22.43637073 12.63082205 21.73993881 0.00220369 -0.00429748 0.00020186
C 11.01369849 3.97297420 23.58519651 -0.00289291 0.00229956 -0.00118673
C 20.44654739 12.69253548 1.83649802 0.00282472 0.00494270 0.00495147
C 5.69166515 10.46382110 15.73816532 -0.00215328 -0.00558141 -0.01041668
C 10.04801633 22.55209672 26.46348655 -0.00606082 -0.00510244 0.01169587
C 7.02110535 4.46992285 16.30963247 0.00592326 0.00078378 0.00543269
C 9.12777724 1.27472454 14.50592704 0.00105122 0.00736637 0.00335925
C 0.82919232 7.78275328 26.57979986 -0.00589793 -0.00290048 0.00318097
C 23.04126830 11.70352354 22.58466833 0.00076866 0.00494575 0.00958335
C 11.54153273 4.67326149 24.63270824 -0.00587454 -0.00380098 0.00560507
C 19.99054764 11.61396312 2.61988209 0.00486999 0.00601245 0.00065797
C 6.66300386 10.02165361 14.77566548 -0.00639780 -0.00746689 -0.00458248
C 10.76151062 22.09380922 25.29738756 0.00192481 0.00257660 0.00729434
C 6.65099979 5.76819179 16.55346373 0.00703753 -0.00124413 -0.00616945
C 9.76708849 0.22909732 16.58404595 0.00686711 0.00198557 0.00134472
C 23.46146446 8.09547670 27.64598770 -0.00118304 0.00712408 0.00320405
C 22.27335631 10.27133859 24.41168698 0.00056144 -0.00487035 -0.00296777
C 11.31898277 5.19351582 26.96417608 0.00007223 -0.00428670 -0.00514593
C 19.02365537 13.04084458 4.31673247 0.00342432 -0.00384796 -0.00652169
C 8.41727788 9.42638104 16.41280468 -0.00466765 -0.00257444 0.00463620
C 10.56139040 20.58596946 23.46902612 0.00877884 -0.00423741 0.00363368
C 5.32724870 6.28575542 14.47187620 -0.00385589 -0.00193755 0.00227785
C 12.83804924 23.18229079 14.52906881 -0.00065485 -0.00085933 -0.00232139
C 22.31900241 9.04285811 27.98517609 0.00341035 -0.00272598 -0.00519295
C 19.11433285 23.42159225 20.90775175 -0.00046661 0.00043878 -0.00035813
C 3.23232287 9.05088824 19.13911875 0.00386050 -0.00592986 -0.00501778
C 2.38275816 4.38665071 17.31615565 0.00107833 0.00031797 -0.00649206
C 9.97191749 9.29383493 16.53157263 0.00109244 -0.00135129 -0.00607466