1920
Time=10000.00000000 pbc="T T T" Lattice="25.00460059 0.00000000 0.00000000 0.00000000 26.46286607 0.00000000 0.00000000 0.00000000 31.07977137" energy=-12235.35461110 virial="-84.33572757 7.05239628 7.67940855 7.05239628 -46.96013431 -28.23193123 7.67940855 -28.23193123 -68.60622080" stress="-0.00166703 0.00035615 0.00035959 0.00035615 0.00016269 -0.00137151 0.00035959 -0.00137151 -0.00087074" Properties=species:S:1:pos:R:3:vel:R:3
O 4.56094696 21.62623400 12.32181769 0.00456651 0.00148437 0.00341918
O 4.64743321 1.40534138 11.57341453 -0.00037228 -0.00726238 -0.00216714
O 3.20141544 17.76846787 0.03217719 0.00737324 -0.00778035 -0.00182791
O 21.79475817 9.87595616 16.39855183 0.00037954 0.00910893 -0.00360986
O 23.80214966 11.56026037 10.54814341 0.00291936 0.00260157 -0.00394850
O 4.13184754 10.54072754 1.35169769 -0.00254539 0.00159353 0.00056866
O 7.34664793 19.70332436 14.61513832 -0.00457406 -0.00057038 -0.00096822
O 0.94362572 3.73849846 7.73783799 0.00406840 -0.00577011 -0.00742705
O 9.60117353 0.95440741 17.49707318 0.00368091 -0.00131691 0.00314360
O 4.22839593 4.55436791 4.80581704 0.00351704 0.00983210 -0.00083289
O 0.30625768 12.15418036 0.31093627 -0.00215993 0.00501107 0.00469374
O 12.98056790 5.07479577 27.56670377 -0.00091668 0.00235118 -0.00539958
O 20.27363392 14.18317954 3.96543155 0.00289178 0.00618929 -0.00589274
O 5.20167847 11.61314093 25.81153435 0.00632105 0.00326783 0.00404836
O 10.88246233 17.41550878 9.94436922 0.00604500 0.00687948 -0.00017256
O 5.49594897 6.45082391 13.03964977 0.00272912 0.00312511 0.00259934
O 7.09936263 2.63482451 11.94514023 -0.00688030 -0.00827334 0.00203967
O 3.50753430 6.09330686 25.36917560 -0.00002826 -0.00032893 -0.00705410
O 0.79721770 16.06285160 21.36095763 0.00494454 -0.00231448 0.00071382
O 13.89191608 4.28164573 21.49125448 -0.00369126 0.00099969 0.00506615
O 20.85398552 11.75196874 29.34199963 -0.00169172 -0.00167118 0.00022638
O 2.89701148 10.53560845 12.97821875 -0.00283212 0.00334263 0.00691001
O 11.88256819 25.41485055 27.03597059 -0.00015499 -0.00225311 0.00203274
O 8.60453074 4.11862483 19.59883972 0.00294605 -0.00034723 -0.00823623
O 7.96216881 0.27463655 10.81676516 -0.00522474 -0.00107307 0.00140732
O 23.30718219 7.23958111 28.47348597 0.00104934 -0.00109509 -0.00174130
O 23.77513826 10.69857046 24.62768852 0.00359680 0.00225806 0.00033650
O 2.03110088 11.28214330 19.85670094 -0.00020666 -0.00278315 -0.00460354
O 23.83712023 13.31031902 16.59159507 0.00040064 0.00408565 0.00064928
O 7.87132881 9.68731000 17.02538095 -0.00634492 -0.00025829 0.00211713
O 9.53338940 21.64075125 22.54656100 -0.00096366 0.00066477 -0.00178074
O 0.91869096 3.63556111 1.37389068 -0.00421528 0.00033246 0.00175169
O 17.20714518 20.57570645 8.92800417 0.00289800 0.00337645 0.00162249
O 4.31251100 19.66999025 7.45601972 -0.00190869 0.00308177 0.00264407
O 6.59756644 24.62434460 2.33855784 0.00207752 -0.00456806 0.00426446
O 5.41592433 17.94797594 14.88950491 -0.00465037 0.00171391 -0.00247762
O 5.02795451 23.95145577 18.28077487 -0.00195045 0.00121347 -0.00482191
O 3.65211194 25.16751965 30.19287790 -0.00001766 -0.00200485 -0.00496113
O 8.24537613 18.88816689 5.36615869 -0.00371182 -0.00245855 0.00413880
O 3.55504796 25.54931417 25.06272578 -0.00011955 0.00168170 0.00096063
O 2.72377483 16.13094399 26.91243579 -0.00062963 -0.00108329 -0.00379584
O 3.52150917 17.03568422 13.23890678 -0.00549832 -0.00269449 -0.00171027
O 3.55635190 22.21318298 7.42835284 -0.00025175 -0.00283175 0.00192831
O 4.57188670 19.32356191 29.78231857 -0.00172241 -0.00141187 -0.00376288
O 5.41926754 0.80931347 30.51105696 -0.00312361 0.00934883 -0.00572793
O 0.74252856 24.57901310 4.73061514 0.00129556 0.00268677 0.00090254
O 3.37046052 14.91417635 4.07295993 0.00427378 -0.00142097 0.00179367
O 20.47480242 19.57520836 21.66187314 -0.00200329 0.00328346 0.00407007
O 21.70251845 15.88462607 28.88803447 0.00402222 -0.00018324 -0.00163371
O 24.17231584 18.47378682 3.25743930 -0.00066453 0.00284007 -0.00374906
O 24.75140270 20.34592934 21.75419808 0.00268958 0.00118248 -0.00370255
O 8.26665885 24.35670008 29.17856734 0.00164686 -0.00323391 0.00724953
O 5.36892502 4.29687721 25.14435680 0.00156110 0.00030260 0.00482071
O 2.57415212 18.21619367 25.23740683 0.00049272 0.00256527 -0.00025484
O 3.35074174 12.57353498 21.66160613 0.00018228 0.00275312 0.00418562
O 18.71761826 19.18451013 27.52261083 -0.00228529 0.00137456 0.00464413
O 14.72939371 21.05980018 14.69320036 -0.00390717 0.00341780 -0.00341728
O 5.45849977 22.37830495 1.52632108 0.00140640 0.00099027 0.00163022
O 20.20829307 23.70313343 19.33186482 -0.00674680 -0.00846058 -0.00523081
O 3.25067810 16.25012415 20.60345308 0.00261783 0.00776827 -0.00746588
O 4.84231083 4.17773539 18.04091836 0.00433561 -0.00197405 -0.00290182
O 5.29930458 23.86485968 24.56812623 0.00285438 -0.00318217 0.00217223
O 7.98961684 17.02504294 21.38279382 -0.00642237 -0.00373244 -0.00081114
O 21.17046933 25.12226252 27.04991337 -0.00363851 0.00119931 -0.00566152
O 3.44353669 5.01497016 2.45297954 0.00098239 -0.00102735 -0.00486584
O 8.03069487 6.93243104 12.44532820 -0.00302672 -0.00517675 0.00561207
O 14.86764080 9.63715911 27.20479697 0.00104788 -0.00251331 -0.00651750
O 10.61257677 9.38503556 12.89957994 0.00313727 -0.00550109 -0.00137529
O 10.68452170 11.43617849 7.70172579 0.00052391 -0.00135246 0.00078225
O 13.14903414 10.58069697 6.91278560 -0.00002688 -0.00387825 -0.00739231
O 18.06369875 4.21595323 12.38247205 -0.00036291 -0.00263975 -0.00437416
O 20.16982404 11.58493419 12.22469715 -0.00459033 -0.00296430 -0.00289873
O 22.54750501 2.74827591 16.62988673 -0.00042667 0.00624079 0.00286837
O 8.48580158 3.16910418 7.44741758 0.00576479 -0.00314903 0.00455596
O 14.69284870 14.31968278 0.41467911 0.00249269 -0.00523237 -0.00051695
O 2.57837155 8.50633417 2.30400623 0.00608787 -0.00196255 -0.00280208
O 8.49485511 15.81023098 30.98109082 -0.00564341 -0.00236406 -0.00125085
O 19.27937684 9.65892390 8.54324930 -0.00563096 -0.00185819 -0.00296179
O 18.19811463 2.81089834 6.10120657 -0.00127838 0.00673846 -0.00121840
O 20.65994085 3.59496272 27.59337470 0.00048139 -0.00045062 0.00181382
O 24.78863771 0.11570000 23.08888694 -0.00007510 0.00086256 -0.00432564
O 7.31374335 12.24032192 24.28840353 0.00016152 0.00008059 -0.00118328
O 7.91446352 11.29189273 18.93719264 -0.00057998 -0.01470911 0.00355284
O 21.92564971 7.40540186 30.78017433 -0.00201950 -0.00043666 -0.00221085
O 8.76979567 9.55557303 29.66202283 -0.00176172 -0.00345043 0.00029557
O 19.25161405 1.00471496 15.20929641 0.00256213 -0.00437709 0.00186662
O 13.19947060 2.70967438 19.37101351 0.00339049 0.00707690 -0.00458187
O 18.35728005 8.02523604 0.28290599 -0.00174019 -0.00222171 -0.00663663
O 4.29980798 7.16347829 27.56247124 -0.00886212 -0.00513866 0.00591114
O 8.94653549 5.28981875 21.96655901 -0.00449876 0.00662788 -0.00211085
O 12.58630439 13.91570631 22.48981353 0.00329168 0.00062037 0.00090892
O 15.49971953 13.39422250 14.33810346 -0.00465322 -0.00471744 -0.00657833
O 8.58132225 9.04183370 1.13451902 0.00682030 -0.00547533 -0.00257060
O 18.76987578 5.10863351 21.60371609 0.00283415 -0.00237735 -0.00625058
O 12.01048141 7.27060893 13.09955696 0.00683428 0.00438728 -0.00200810
O 13.83974127 12.35085254 11.33657351 -0.00371135 0.00534028 0.00131642
O 11.52182338 8.90602526 30.14289068 0.00096033 -0.00506124 -0.00776597
O 3.72552356 14.53975008 6.57299217 0.00060437 0.00086704 0.00051659
O 12.41619480 6.30164285 3.83418593 0.00108135 0.00153658 -0.00542219
O 24.80675452 17.78373029 10.45817922 -0.00307945 -0.00508926 -0.00138187
O 12.28483118 25.23083698 8.75762125 -0.00308972 0.00742739 0.00237015
O 17.06789358 22.13837224 14.34863734 -0.00340152 -0.00304095 0.00287049
O 8.80788721 15.43224396 12.13230364 -0.00880667 0.00360922 -0.00063102
O 9.10727377 18.57833533 8.47173725 0.00561871 0.00266907 -0.00335775
O 15.85314006 9.12479148 19.38992458 -0.00355055 0.00072194 0.00230273
O 9.09665047 10.23330071 9.47229912 -0.00272041 -0.00178065 -0.00134672
O 15.13260130 7.86296349 9.35702397 0.00608097 0.00171702 -0.00260350
O 12.31374902 3.94791076 2.82255508 0.00183907 0.00402136 -0.00265564
O 7.63936859 1.80014318 26.66414262 0.00144230 0.00150931 -0.01068112
O 17.64970304 1.92348539 13.10149260 0.00276288 0.00029307 -0.00431988
O 9.62218360 14.69798661 4.82954071 -0.00083755 0.00400207 -0.00022604
O 14.29799077 17.83848970 20.13025445 0.00508624 -0.00756510 -0.00306084
O 15.08653763 15.32981218 20.78625917 0.00258676 -0.00200375 -0.00853668
O 9.20903990 15.34420707 23.15203450 -0.00150480 -0.00306615 -0.00454775
O 17.24402276 24.48924097 7.61123208 -0.00319045 -0.00039133 0.00002663
O 8.34055051 0.49224460 28.62745171 -0.00262390 0.00012826 0.00341897
O 9.07012452 25.93552434 19.55458266 -0.00179325 0.00077100 0.00197263
O 18.80748064 16.51735107 17.93597452 -0.00529200 -0.00037211 -0.01132136
O 11.84696636 15.79792502 17.25200779 -0.00418399 0.00005247 0.00133122
O 14.70139275 23.87758871 18.61006044 -0.00004293 -0.00562220 0.00396411
O 12.72425769 13.78880338 2.97985182 -0.00156347 0.00267608 0.00069448
O 11.40117310 13.62019974 29.00152351 -0.01150993 0.00356502 0.00153208
O 14.17662398 3.09224105 9.95539169 -0.00239571 0.00055471 -0.00368580
O 21.06440367 17.30321119 17.21522246 -0.00118553 -0.00199948 -0.00078695
O 10.08961000 24.07503348 14.38162993 -0.00352707 -0.00086685 0.00666450
O 15.70948321 18.03017877 23.15420814 0.00124191 0.00229390 0.00119826
O 6.59015910 15.62175426 13.42789654 -0.00327172 0.00022435 -0.00097761
O 11.68549265 23.90079831 6.53362517 -0.00410884 0.00333069 -0.00049654
O 22.27991167 19.68620877 4.72308980 -0.00357212 0.00098130 0.00264917
O 24.33204061 5.62035105 18.15224986 0.00237106 -0.00534992 -0.00005018
O 10.49970762 19.60104001 4.06528273 -0.00010782 0.00345075 0.00083557
O 18.50199642 6.62553048 4.26774023 0.00023495 0.00181944 0.00526893
O 12.46275998 14.55620042 11.07103901 -0.00519175 -0.00455859 -0.00073982
O 23.87729689 11.31895717 2.41008213 -0.00015320 0.00056048 -0.00134020
O 20.21423887 3.63254995 7.50861132 0.00019999 -0.00377722 -0.00254084
O 23.85337165 26.36750774 5.19222770 0.00610765 -0.00352912 -0.00180006
O 7.03181546 21.19390058 20.73049215 -0.00069925 0.00251469 0.00132273
O 18.40338587 5.98630946 16.37326041 0.00307859 0.00059146 -0.00158309
O 13.10903427 22.95483732 30.62147374 -0.00155642 -0.00223746 0.00069660
O 19.93437490 14.02568190 28.07321913 0.00193060 -0.00313036 -0.00443466
O 11.78642776 7.47306174 21.51561058 -0.00135814 0.00278457 0.00588663
O 0.36557747 11.14618516 8.48801041 0.00898725 0.00427260 0.00247353
O 23.82633096 23.35485169 8.78868543 0.00483103 0.00142329 -0.00255466
O 24.80166926 4.67071722 20.58889352 0.00006416 -0.00370428 -0.00346243
O 0.95826301 22.87848946 21.54404930 0.00220729 -0.00173236 0.00538371
O 15.61960324 20.02981880 24.81551961 -0.00180268 -0.00154201 -0.00413052
O 18.49932605 6.62675852 23.73146170 0.00367473 -0.01036208 -0.00310076
O 20.10258964 12.10311278 21.76508423 0.00350779 0.00091513 0.00841578
O 16.42323878 9.41200498 25.35143472 0.00195079 -0.00049222 0.00508722
O 6.10100356 3.28521314 20.25356937 0.00275695 0.00697747 0.00279419
O 23.74840169 22.39607474 29.88142235 -0.00226750 0.00780833 -0.00033650
O 20.44107177 2.68802135 25.11312243 -0.00157156 -0.00605821 -0.00168314
O 17.93003784 24.35649715 5.16544830 0.00042178 -0.00730510 0.00346554
O 10.90528385 18.50145055 28.80520188 0.00475139 0.00414570 0.00112038
O 17.31019446 1.72604100 27.81636197 0.00328591 0.00576637 0.00034492
O 23.95621878 5.72073836 7.70809075 -0.00067708 -0.00218674 -0.00341726
O 12.47645931 18.18601221 16.06563000 0.00337017 -0.00009205 0.00256179
O 1.40599020 1.60329765 24.30858018 -0.00450090 0.00130568 -0.00105745
O 24.92906316 19.58469580 24.28263821 0.00152234 0.00255922 -0.00662028
O 22.93762659 1.84222592 29.94913428 -0.00218600 -0.00225786 0.00736972
O 24.37785061 21.29102832 7.51808769 -0.00000239 0.00109449 -0.00170099
O 17.89280951 18.19296380 16.31574828 -0.00129799 0.00521837 0.00897219
O 13.50604933 4.34885930 29.97577018 0.00258795 0.00577706 0.00265633
O 23.90912123 21.54126218 14.22153503 -0.00044973 0.00297598 -0.00673107
O 22.35831846 2.86626757 14.07880329 0.00352192 -0.00149307 0.00435132
O 21.80818966 17.87775200 30.52960140 -0.00596474 -0.00107665 0.00224710
O 16.64882469 17.66923620 28.36390504 0.00178322 0.00368095 0.00403323
O 13.53943152 22.28184769 5.79602456 -0.00285590 0.00437923 0.00061500
O 1.02221734 8.47397455 13.28814584 0.00427780 -0.00491869 0.00547785
O 20.02357937 14.19384731 11.83120289 0.00279175 -0.00518400 0.00106412
O 17.07253322 7.79309990 2.44184925 0.00208092 -0.00125834 0.00243018
O 24.74970313 15.90001275 3.31807529 -0.00125722 0.00031515 0.00129278
O 18.32488897 21.58983484 26.72589467 0.00564922 0.00459850 0.00230328
O 19.14708129 16.22990003 4.97333732 0.00473124 0.00085918 -0.00095310
O 13.04802246 18.64799440 4.25095164 -0.00063244 -0.00045421 0.00215173
O 18.61042348 10.13954990 20.78069406 -0.00003900 -0.00008449 -0.00021875
O 20.38150097 7.79683090 10.59847086 0.00336747 0.00206896 -0.00170535
O 20.70474841 0.41789493 1.82823114 0.00393651 0.00151158 0.00517254
O 21.87883161 20.83105273 15.58906041 0.00318366 -0.00259031 0.00110332
O 1.62031785 15.62533396 9.27179186 -0.00523257 -0.00676892 -0.00468081
O 14.91343629 24.93376116 22.87122536 0.00202302 0.00652389 -0.00194741
O 24.50329875 17.17828590 19.30109228 -0.00302937 0.00146090 -0.00315170
O 14.10847418 26.37280820 19.28035997 -0.00226951 0.00283555 0.00040831
O 17.85202916 13.36701024 15.18900833 -0.00019683 -0.00546310 -0.00626525
O 18.86709366 18.84039812 9.78179698 0.00000926 -0.00761588 -0.00227604
O 15.57019625 23.95016563 30.25926506 0.00679742 0.00020153 -0.00403940
O 17.14094312 24.24733256 18.19107496 0.00257769 0.00875960 -0.00167013
O 3.02259226 26.28798724 12.70475996 -0.00190655 0.00698331 0.00426832
O 19.06089103 25.58414877 10.47979875 -0.00315510 0.00239540 -0.00586573
O 2.99305128 22.17518759 18.13534823 -0.00265964 0.00340266 -0.00292995
O 12.49101165 0.57967126 25.23954181 0.00482156 0.00489525 -0.00721451
O 19.26350367 20.62583748 3.19097127 -0.00253227 0.00249267 0.00061329
N 13.85828560 22.48870012 13.07822214 -0.00235879 0.00167455 -0.00058728
N 4.02108549 4.67695613 7.07291311 -0.00186407 -0.00143726 0.00991605
N 4.29689756 24.33879403 7.39407032 -0.00339931 -0.00105210 -0.00281218
N 1.85439511 9.57891379 18.34824500 0.00142660 0.00014651 0.00170308
N 3.21177014 2.75398725 18.76739018 -0.00385870 0.00735445 -0.00425103
N 3.54034311 10.30540555 26.84844485 -0.00421138 -0.00050936 -0.00079782
N 5.17209433 15.26715538 2.69282931 -0.00742642 0.00295067 -0.00271547
N 1.82225741 1.96806733 2.54225947 0.00125276 -0.00321113 -0.00276539
N 1.46251739 14.24588929 26.51100706 0.00102802 -0.00947558 0.00972333
N 23.70224820 8.51848326 26.64168919 -0.00066029 0.00051583 0.00113001
N 20.21739787 23.47754806 21.59251737 0.00013829 0.00348088 0.00466328
N 11.20955503 5.45662819 26.17791083 0.00055520 0.00066143 0.00496502
N 6.52183086 2.87288756 30.31954118 0.00243183 0.00749964 0.00157220
N 8.16287157 9.78780133 14.83649746 0.00870354 -0.00183708 0.00277645
N 6.92513660 16.10234811 19.49962280 0.00143517 -0.00066483 0.00403472
N 6.15727738 6.46293682 15.19883924 -0.00482454 0.00117278 0.00431002
N 8.31992365 24.88601185 9.58753867 -0.00938310 -0.00640816 -0.00397260
N 2.09902422 18.64672860 12.42715214 0.00333990 -0.00257046 0.00825807
N 1.66181232 12.62911164 29.60881381 -0.00508469 0.00336132 0.00469119
N 4.75362183 17.96446396 20.44604672 0.00105363 -0.00027347 -0.00564730
N 0.80318470 13.14079979 15.43448155 -0.00147672 0.00329806 0.00077623
N 0.86369652 22.87638255 3.23599924 -0.00141781 -0.00390868 0.00258472
N 11.76811477 18.97182043 11.28291780 0.00512866 0.00575066 -0.00083861
N 23.40385419 25.24813118 27.19995447 -0.00246296 0.00161114 -0.00003191
N 11.00880009 1.28095548 15.77943635 -0.00268449 0.00209564 0.00048800
N 3.46114083 21.43505507 1.09681739 0.00449426 -0.00174458 -0.00237100
N 22.85918374 11.53728446 22.75017196 -0.00240780 0.00877563 -0.01048569
N 3.95214023 20.99658407 28.27910604 0.00129136 0.00347077 -0.00933783
N 19.90381623 11.97636196 3.71042732 0.00674706 0.00199001 0.00087305
N 6.43927199 22.23316536 25.70329712 -0.00267681 0.00188157 -0.00663551
N 10.30056030 20.73515033 24.52323206 -0.00092491 -0.00372207 -0.00457525
N 20.79975107 17.49616409 22.64613010 -0.00180090 -0.00317843 0.00209520
N 12.59573372 11.66384171 3.81242242 0.00118922 -0.00212867 0.00027576
N 9.94703438 4.97583647 7.64947935 0.00196681 -0.00778224 0.00222319
N 14.56403527 5.66708736 8.88955340 0.00447240 0.00116666 0.00513473
N 13.28191368 13.95109375 14.72023001 -0.00185671 -0.00517604 -0.00092934
N 9.30261279 22.80357095 12.68889277 0.01217548 0.00401846 -0.00576912
N 18.21801583 11.67938790 8.97963376 -0.00438985 0.00078969 -0.00074434
N 8.43292100 15.64652725 6.56439182 0.00374319 -0.00959030 0.00495494
N 14.91807921 10.35441762 10.72580056 -0.00148383 -0.00136213 -0.00228345
N 14.43672379 10.51546970 18.24682991 -0.00346203 -0.00043741 -0.00132684
N 9.22912285 7.34333803 22.83848331 -0.00150875 0.00666461 -0.00140556
N 13.24297109 1.80718941 8.32229936 0.00207620 0.00416189 0.00126290
N 0.75337711 8.44615470 3.69452577 0.00506012 0.00085146 0.00491796
N 7.98740375 1.97100795 24.42152302 -0.00615902 0.00106624 -0.00466672
N 19.27150946 3.47925441 20.12751110 0.00359860 -0.00216523 0.00114408
N 7.05068290 14.02219996 14.94777538 -0.00240211 0.00147355 -0.00333554
N 20.01592255 3.00926943 29.74463965 -0.00289399 -0.00716840 0.00576895
N 5.62511834 8.05242039 29.28639920 0.00843188 0.00380866 0.00352213
N 7.35671135 11.57220818 9.57480493 0.00596233 0.00106319 -0.00545113
N 16.45407167 12.85532178 0.36899825 0.00389837 -0.00172805 0.00212756
N 21.71630375 17.75020734 15.10062458 -0.01050076 -0.00031474 0.00293102
N 8.42614439 8.64719149 3.38719786 0.00868667 -0.00197834 0.00210915
N 15.70805117 1.06683005 14.15819920 -0.00090825 -0.00420109 -0.00355960
N 17.13598580 4.72269732 6.77404653 -0.00107751 0.00348485 -0.00055020
N 9.60741362 23.40483857 5.74471751 -0.00101295 0.00143677 0.00301322
N 23.21313076 0.96559504 17.77783692 -0.00094164 0.00588546 0.00649999
N 10.64727442 15.67207061 28.61240387 0.00187705 0.00244283 0.00052992
N 12.72798889 11.71791573 21.66149774 0.00003829 -0.00001923 0.00575888
N 11.02874908 2.30740994 2.06593117 -0.00170726 -0.00251770 -0.00486716
N 7.82192630 14.89681785 29.02405482 -0.00298637 0.00734536 0.00100549
N 17.23678760 16.34594157 23.15475101 -0.00318603 0.00008824 0.00295517
N 12.70349323 6.24688724 15.02039402 0.00714929 -0.00134298 0.00009511
N 13.02376508 19.33126689 21.42852126 -0.00380321 0.00223001 0.00677464
N 20.24682876 17.66886992 8.39485642 -0.00420248 -0.00834453 0.00092557
N 20.05674695 6.25820690 14.80455775 -0.00648614 0.00004330 -0.00475569
N 15.16252315 8.87157778 1.65532758 -0.00319700 -0.00192872 -0.00307557
N 22.86655491 7.68606169 7.49750619 -0.00299672 -0.00369658 0.00264049
N 21.18914888 24.90308693 11.04862905 -0.00204236 -0.00256121 -0.00115051
N 2.06556448 11.21351265 6.96580381 0.00570200 -0.00102244 0.00377277
N 14.32758243 18.86617618 2.32714177 0.00111624 0.00240768 0.00425663
N 22.88176493 3.15216042 0.84065460 0.00618079 -0.00194649 -0.00936061
N 0.46800075 6.51700328 12.28376978 0.00215586 0.00098869 -0.00158152
N 12.13283075 20.42456401 29.11224407 0.00052722 -0.00192506 0.00029832
N 18.50970446 25.10455166 16.56611381 -0.00384338 0.00068623 -0.00100606
N 18.27353247 13.17798924 26.78210930 0.00313738 0.00230295 -0.00399120
N 19.34632095 23.38496642 25.76507933 0.00600952 -0.00619320 -0.00599439
N 1.71594187 3.74409116 23.61114165 0.00202445 -0.01183734 -0.01027068
N 14.10250152 1.96222770 24.46958822 -0.00470084 0.00084605 -0.00792996
N 23.72297697 6.02191626 22.23086598 0.00147980 0.00032265 -0.00092056
N 19.93685240 24.75355596 4.22859900 0.00312574 -0.00912185 -0.00114269
N 20.58082741 16.41924799 11.80108901 -0.00121883 0.00087093 -0.00045448
N 11.37105350 23.97098833 0.67386098 -0.00157886 -0.00272410 0.00418855
N 2.04603104 26.13028591 14.75614037 -0.00218967 0.00601332 -0.00490278
N 14.50195007 17.94194848 14.93664143 0.00474035 -0.00138812 0.00481257
N 17.89145369 16.96198846 3.18041002 0.00432179 -0.00663811 -0.00447612
N 23.20694191 25.46979224 8.92148874 -0.00324814 -0.00054378 -0.00510223
N 18.00836632 22.37923070 2.43671832 0.00372846 0.00237210 0.00052448
N 6.39239446 23.32916646 20.89206415 -0.00005131 -0.00452085 0.00392756
N 17.48318463 24.46518626 28.99613152 -0.00407899 -0.00591205 -0.00059482
N 16.90839729 3.96644487 28.34646132 0.00249395 0.00267125 0.00342627
N 23.58931845 14.61406635 4.77579825 0.00143527 0.00119910 0.00119851
N 13.95381680 7.44540619 20.77496466 0.00022730 -0.00103335 0.00315450
N 1.96230495 21.10643176 16.37672180 0.00156358 0.00475500 -0.00138546
N 24.08188451 18.29890690 25.97312004 -0.00007109 0.00044182 -0.00162690
N 19.15592657 9.19936333 18.75390193 0.00395466 0.00330195 -0.00589809
C 6.40420000 24.68035848 11.15947746 0.00238232 0.00228674 0.00704933
C 5.20448172 2.83690066 8.26292567 -0.00234097 -0.00317167 -0.00012985
C 3.16470123 14.47438661 29.40407903 -0.00297979 -0.00416317 0.00083615
C 24.63037844 10.57909924 18.51937993 -0.00247071 0.00074427 0.00526369
C 23.85579189 12.34596843 14.08620609 -0.00180116 -0.00279341 0.00351119
C 4.71099342 11.24022863 28.83609737 0.00187695 -0.00136262 -0.00160123
C 10.78825989 19.78808338 13.34568212 0.00775034 -0.00518217 -0.00180351
C 2.08989742 1.76376478 4.93147088 -0.00354973 0.00405381 -0.00125762
C 5.52636523 23.86587584 11.91674901 -0.00031989 0.00138791 -0.00015936
C 5.23370849 1.97424098 9.29964243 0.00313242 0.00714661 -0.00161155
C 3.53787038 15.73635238 29.72070571 -0.00395189 -0.00272153 -0.00428197
C 23.32529445 10.52767018 18.14874228 -0.00436276 -0.00315215 -0.00057368
C 23.36418596 11.94661042 12.86383590 0.00026831 -0.01009038 0.00684178
C 4.68427936 11.37992504 30.22896456 -0.00268921 -0.01122192 0.00022948
C 9.74215151 20.02653447 14.14840709 -0.00745051 0.00248694 0.00556797
C 1.76724063 2.21561923 6.19481290 -0.00422297 -0.00179816 -0.00361886
C 5.45514378 22.49880169 11.65324972 0.00012575 -0.00809548 -0.00360955
C 4.49633384 2.20170495 10.50811006 0.00196876 0.00047633 -0.00497920
C 3.00275489 16.43202012 30.84655078 -0.00108085 0.00119701 -0.00117750
C 23.01392597 9.90489903 16.92931546 -0.00028007 -0.00284907 -0.00001543
C 24.23039942 11.94930020 11.74323184 -0.00006052 -0.01091730 0.00286216
C 3.87934756 10.61515700 31.06785569 0.00800546 -0.00539012 0.00279102
C 8.42805358 19.59779207 13.77534222 0.00019156 0.00802001 -0.00086431
C 1.24335035 3.41459530 6.46055117 0.00416817 -0.00881784 -0.01049978
C 6.29267306 22.00069462 10.73613617 -0.00252785 -0.00419079 0.00292203
C 3.59159023 3.22910444 10.47734013 0.00154111 -0.00324606 -0.00342643
C 2.02520628 15.72807814 0.53556174 0.00084295 -0.00065023 0.00219131
C 24.08932327 9.40535198 16.12381946 -0.00269153 0.00245992 0.00689450
C 0.53521220 12.34491276 11.92782352 0.00518977 0.00043005 -0.00378453
C 2.94108271 9.78650098 30.41722256 0.00298771 -0.00107104 -0.00080194
C 8.27082109 18.93018072 12.56852556 0.00300577 0.00096005 0.00378601
C 1.05777529 4.27473778 5.36781614 -0.00238330 -0.00335212 0.00296225
C 7.27049527 22.77563205 10.05151306 -0.00091451 -0.01105350 0.00550547
C 3.43735144 4.10137972 9.40269980 -0.00453389 0.00487258 0.00183444
C 1.57647463 14.46564551 0.22978332 0.00107742 -0.00030946 -0.00294930
C 0.36469871 9.39238673 16.54293493 -0.01212008 -0.00019322 -0.00313284
C 1.02637469 12.81496102 13.11300153 0.00439668 -0.00340657 -0.00217335
C 2.83113093 9.70961726 29.08344110 -0.00023620 0.00147835 0.00586672
C 9.36658222 18.74858990 11.69043925 0.00498947 -0.00590930 -0.00722083
C 1.27535688 3.81462892 4.09823796 0.00232256 -0.00027642 -0.00286607
C 7.30580684 24.11040873 10.29963798 -0.00167989 -0.00339630 0.00328369
C 4.16641908 3.88114261 8.22623508 0.00341374 -0.00239557 0.00551550
C 2.13257813 13.88994946 30.16591212 -0.00443535 -0.00823051 0.00233588
C 0.62120601 9.87209526 17.80770359 -0.00338623 -0.00189434 0.00346776
C 0.18162687 12.77578798 14.21908090 -0.00656886 -0.00250062 0.00026766
C 3.74000995 10.43669329 28.24544686 -0.00472937 -0.00259929 0.00167164
C 10.64009754 19.14517662 12.09971009 0.00068053 -0.00171236 -0.00386798
C 1.75934811 2.55166471 3.82154793 -0.00171917 -0.00013436 0.01348246
C 8.37747256 26.23788314 9.82508559 -0.00208159 0.00662636 -0.00115822
C 4.78508285 4.73037988 5.89159241 -0.00424472 0.00449847 -0.00502407
C 0.49057141 12.17422885 30.16498409 0.00082236 -0.00282691 -0.00123259
C 2.34877303 10.14070152 19.52334746 0.00573668 0.00362944 -0.00679770
C 0.05375422 13.43047290 16.55623778 -0.00103519 -0.00341467 0.00626665
C 4.15548552 10.94009793 25.77330823 0.00474182 0.00177061 -0.00352653
C 11.80482065 18.18832103 10.17211350 0.00060241 -0.00383704 -0.00241367
C 1.60988953 2.61773939 1.40525431 -0.00088229 -0.00090791 -0.00469433
C 3.79288516 14.29434951 25.94658963 0.00220839 -0.00535221 0.00252175
C 6.26581703 4.89022563 5.92706196 0.00357812 -0.00500810 0.00192282
C 2.56372123 23.87585509 9.00825565 -0.00219283 -0.00481882 0.00018289
C 10.92417405 5.89551088 28.53614091 -0.00578222 0.00277837 0.00324752
C 5.78986880 2.18938998 1.36129950 0.00275463 -0.00062355 -0.00175271
C 3.57341653 10.63759343 24.41272197 0.00672913 0.00239772 0.00521688
C 3.81659049 13.27501183 2.42023475 -0.00663220 0.00416589 -0.00306278
C 5.18486017 4.34986686 14.09321020 0.00480771 -0.00237339 0.00170881
C 8.75204362 1.08191994 14.80948552 -0.00948882 -0.00340185 0.00206427
C 0.40632755 8.10052540 25.06846870 -0.00853958 0.00277073 0.00674647
C 24.92187893 12.90519331 22.98984662 0.00164014 -0.00133634 -0.00484160
C 13.29112420 5.55665994 24.88159208 -0.00112277 0.00068907 0.00851696
C 20.29683464 10.82588778 1.69025131 0.00244213 0.00199773 -0.00048021
C 6.43988553 9.56832797 13.11951724 -0.00343729 -0.00480135 -0.01035955
C 11.43042987 22.84993854 24.38767813 0.00709486 -0.00105510 -0.00465844
C 7.24491545 6.63424465 17.39543475 -0.00522293 0.00349786 0.00202146
C 7.74875461 1.44168323 13.90080603 -0.00279997 0.00764959 0.00320758
C 1.58238223 7.46656069 24.61525865 -0.00321110 0.00594389 0.00582517
C 0.71569858 13.98954117 22.54983986 0.00167007 0.00483011 0.00369752
C 13.87444790 5.29215770 23.64840080 0.00798915 0.00077137 -0.00299175
C 20.66210022 10.62962523 0.40942508 0.00050285 -0.00620944 -0.00980444
C 5.15910761 9.72447750 12.60889997 0.00012095 -0.00185459 0.00412696
C 11.90104836 23.97531310 24.96936894 -0.00213065 -0.00719254 -0.00780022
C 8.00213950 6.08881556 18.42229227 0.00073188 0.00001839 0.00419572
C 8.09120191 2.31920355 12.89590456 -0.00534788 0.00203579 0.01380537
C 2.24915557 6.51463652 25.50331811 0.00034666 0.00359266 0.00162199
C 0.15397560 14.90912870 21.64433207 -0.00128045 0.00657284 -0.00138445
C 13.19585039 4.64290060 22.65005099 -0.00455088 0.00507300 0.00400811
C 20.60665455 11.80885862 30.70073840 -0.00061099 -0.00245596 -0.00063447
C 4.19995979 10.22087415 13.41599248 0.00236229 0.00220899 0.00884509
C 11.51863351 24.30025950 26.31397460 0.00244206 0.00460432 -0.00908918
C 8.12950091 4.69298193 18.47465732 0.00303593 -0.00248510 -0.00695436
C 9.40731918 2.70298299 12.68636211 0.00649239 0.00156038 -0.00255346
C 1.54841050 6.18625412 26.66651986 -0.00389420 -0.00812084 0.00168135
C 23.93262024 14.65310357 21.03338769 0.00272255 0.00011965 -0.00532808
C 11.94498048 4.04673486 22.90507773 0.00036765 0.00585772 -0.00693677
C 20.29698644 13.06908752 0.20849113 -0.00384525 0.00104153 0.00378601
C 4.55404900 10.55271831 14.75545274 0.00649433 0.00457098 0.00024974
C 10.76210902 23.40879863 27.01520794 0.00532258 0.00165309 0.01536980
C 8.00119968 3.94720335 17.30493463 0.00687080 -0.00300828 0.00709794
C 10.35961056 2.45179768 13.67624832 -0.00130429 0.00641537 0.00465219
C 0.38276986 6.78719811 27.07304561 -0.00763983 -0.00238838 0.00301431
C 23.18282610 13.56577403 21.41930254 -0.00168181 0.00042756 -0.00522097
C 11.28414834 4.41282826 24.03402390 0.00444906 -0.00206675 -0.00239240
C 20.07763939 13.18250510 1.61532139 0.00369487 0.00052097 -0.00633770
C 5.75369400 10.24825902 15.32488580 0.00055086 0.00424327 -0.00415866
C 10.26096851 22.28981926 26.42870478 -0.00388328 0.00919850 -0.00487284
C 7.33662490 4.55095643 16.19861692 0.00006365 0.00546388 0.00056501
C 10.06502284 1.69597105 14.82782394 -0.00127733 -0.00468345 -0.00393232
C 24.78539024 7.73743137 26.22959068 0.00575478 0.00000895 0.00143070
C 23.64482831 12.63700649 22.36037178 -0.00094893 -0.00351878 -0.00206660
C 11.90538396 5.15511620 25.01042786 0.00169388 0.00450320 0.00552652
C 20.10692985 11.99864566 2.34680669 0.00132982 -0.00255685 0.00624309
C 6.82401573 9.82487576 14.44950472 0.00497242 -0.00140947 -0.00089462
C 10.67500919 21.92251579 25.15257664 0.00445573 -0.00333590 0.00186233
C 6.94628994 5.87949454 16.25199530 -0.00222388 0.00238442 -0.00148067
C 10.66754093 0.62436653 16.87876961 0.00542279 0.00714666 -0.00630858
C 22.95390630 8.08545740 27.66094759 0.00256881 -0.00630907 0.00650408
C 22.84093754 10.72948023 23.79588308 0.01123251 0.00404528 0.00242971
C 11.83055138 5.59783765 27.35955913 -0.00033666 0.00551594 0.00309921
C 19.81541688 13.05460261 4.49439955 0.00348366 0.00442346 -0.00419957
C 8.63081608 9.77590920 16.06885552 0.00041119 0.00678744 0.00553508
C 9.77334493 20.66504652 23.24899284 0.00382747 -0.00095592 0.00201309
C 5.59721508 5.83634689 14.05606072 0.00594004 -0.00131086 0.00088052
C 12.70055499 22.37098561 15.29351769 -0.01109294 0.00145426 -0.00419428
C 21.59383106 8.63681946 27.79562692 0.00297603 0.00729771 -0.00433819
C 18.63571770 24.97899715 20.56986748 -0.00015239 0.00947867 0.00142687
C 3.48175484 9.43703354 20.24774258 -0.00217365 -0.00376989 -0.00382570
C 2.64690971 5.02982745 18.25079053 -0.00075272 -0.00080876 0.00091766
C 10.13043906 9.72135235 16.25380180 0.00291012 0.00169745 -0.00585315