1920
Time=30000.00000001 pbc="T T T" Lattice="25.04787032 0.00000000 0.00000000 0.00000000 26.68209004 0.00000000 0.00000000 0.00000000 30.71586265" energy=-12236.02139270 virial="1.20872020 -9.24384319 31.64886990 -9.24384319 -32.01644933 15.65776374 31.64886990 15.65776374 -55.35545159" stress="0.00234558 -0.00037621 0.00156357 -0.00037621 0.00077637 0.00080900 0.00156357 0.00080900 -0.00026915" Properties=species:S:1:pos:R:3:vel:R:3
O 4.14668537 21.98841002 12.08255973 0.00060748 -0.00200000 0.00424210
O 4.42072176 1.37427050 11.12171831 -0.00078049 -0.00156065 0.00815286
O 4.19686846 17.74514392 0.33257141 0.01094667 -0.00160499 -0.00074891
O 21.29800282 10.58054079 15.96032538 -0.00098982 -0.00429491 0.00205052
O 23.89008789 12.42214643 10.36665817 0.00200857 -0.00238024 0.00301486
O 4.07408380 10.71786098 0.85922852 0.00155578 0.00011461 0.00315097
O 7.58932531 19.85449663 14.63267346 0.00116711 -0.00013444 0.00206276
O 0.99774215 4.96882762 7.44242291 -0.00217496 0.00256430 0.00146269
O 9.58114296 0.89892167 16.80203438 0.00334946 0.00405545 0.00194382
O 4.87453209 6.03902761 5.15071933 0.00503105 -0.00026493 -0.00795073
O 0.27959796 12.54675455 0.49530288 0.00349250 -0.00926843 -0.00130211
O 12.70835385 5.37805436 27.18360051 -0.00243363 -0.00350769 0.00065944
O 20.41235945 14.54557568 3.94138046 0.00549850 0.00191787 0.00052167
O 5.23390062 10.76545667 25.28919051 -0.00787581 0.00113491 0.00465328
O 10.53861637 17.95421932 9.39352866 0.00534858 -0.00075693 -0.00036326
O 5.48948732 7.29256112 13.27555735 -0.00613936 0.00343082 0.00244615
O 7.17874686 3.39775765 11.58276179 0.00015263 -0.00166319 -0.00398219
O 3.61049746 5.88342235 25.11805275 -0.00379478 0.00071983 0.00595451
O 0.58138914 15.75316570 21.78889926 -0.00170375 0.00572424 -0.01309011
O 14.35537184 4.39418638 20.90268823 0.00111595 0.00219188 0.00570241
O 21.63476469 11.80799881 29.11815487 0.00115304 -0.00601504 -0.00425931
O 2.72033888 10.87905042 12.98367580 0.00009652 -0.00309505 0.01103277
O 12.95513145 24.62365162 25.92435338 -0.00075464 -0.00195770 0.00229065
O 8.09782155 3.51947647 19.34598725 0.00454457 -0.00483469 0.00522564
O 7.67063421 0.48031376 10.45843060 0.00078160 -0.00138880 -0.00250055
O 23.07950337 6.91485828 28.09527917 0.00101615 -0.00163504 -0.00744617
O 23.34224381 10.59948983 24.49534215 -0.00216721 -0.00486609 -0.00168581
O 1.47924279 10.27102560 19.71275905 -0.00490174 -0.00052230 0.00141177
O 24.00100252 12.99187724 16.54009187 -0.00304406 -0.00069637 0.00040894
O 7.63089918 9.73084257 16.93645511 -0.00235732 -0.00606570 -0.00261493
O 9.86800875 21.33611855 21.62096254 0.00340487 -0.00375205 -0.00357070
O 0.60184770 4.30119643 1.10447362 -0.00708637 0.00459580 0.00320001
O 16.65764041 19.90426417 8.52522258 -0.00309100 0.00172903 -0.00169670
O 4.38725066 20.05710045 7.48843670 0.00025937 0.00309932 0.00269400
O 6.89819303 25.56379477 2.40677726 0.00048915 0.00318916 0.00378520
O 5.42916766 18.55938144 14.84243944 -0.00298909 -0.00296979 0.00218377
O 5.06376382 23.67652753 17.11264289 0.00070897 -0.00005437 0.00537084
O 3.72591638 26.24051770 29.91695547 -0.00141897 0.00406507 -0.00498629
O 7.70805017 19.84689371 4.84604571 0.00073442 -0.00161591 0.00252263
O 3.28900607 26.22857133 25.34693507 -0.00324923 -0.00299975 -0.00613595
O 3.57000359 16.40803564 26.80509532 0.00020680 -0.00029702 -0.01316748
O 3.39336132 17.64594622 13.36623723 0.00230406 -0.00867429 -0.00736633
O 3.34926567 22.16874690 6.50696160 0.00279695 0.00518194 0.00346218
O 5.08924426 19.23216484 29.11092692 -0.00058925 -0.00498396 -0.00254433
O 5.22861398 1.46311233 30.16751949 0.00156606 -0.00272064 0.00725913
O 0.93775176 24.94471420 4.73915950 -0.00310398 -0.00129234 -0.00145140
O 4.13273942 14.66540676 4.23362984 -0.00078766 -0.01057691 -0.00089060
O 19.84889701 19.69229929 21.24080974 0.00781399 -0.00862817 -0.00342436
O 22.51767703 16.11292578 28.40314025 -0.00316130 -0.00076512 0.00711818
O 24.70849680 18.79169121 3.49152757 0.00054710 0.00595076 0.00544469
O 0.24408132 21.21429724 22.11816111 -0.00336673 -0.00179732 0.00103544
O 8.40612270 24.56190329 29.11402454 0.00031366 0.00107104 -0.00072692
O 5.58821184 4.01540897 24.24663400 0.00492998 -0.00816714 0.00145730
O 2.84085256 18.26986973 24.99439425 -0.00232652 0.00338370 -0.00314312
O 2.45526918 12.82138009 19.96882354 -0.00449791 0.00480808 0.00321193
O 19.08923288 19.54722768 27.55687242 0.00402917 0.00167176 0.00226456
O 13.61602656 21.35467336 13.75748147 -0.00257525 0.00160565 -0.00240944
O 5.62271690 22.55355253 0.62660352 -0.00273082 -0.00029348 -0.00562479
O 20.52364246 24.46798268 19.28376192 -0.00694288 -0.00578685 0.00041785
O 2.54620954 16.14615614 20.27125438 -0.00431338 -0.00139423 -0.00084379
O 4.73526664 3.18338923 16.75420586 -0.00033385 -0.00048887 -0.00611138
O 4.37053102 24.34239255 23.99894757 0.00578746 -0.00154778 0.00149455
O 7.35758347 16.60481962 20.95588028 0.00368621 0.00216188 -0.00657029
O 20.83179337 25.86938357 25.48497764 0.00376022 -0.00620806 -0.00369714
O 3.81404850 5.85428450 2.82546160 -0.00002664 0.00746724 0.00573956
O 7.99017721 7.40002451 12.46914847 -0.00334342 0.00205986 0.00204940
O 16.36014656 9.03963370 26.68346126 -0.00450183 0.00134740 0.00477425
O 10.65588310 10.01313300 12.93330199 -0.00080864 0.00516790 -0.00224684
O 11.04198528 11.64805320 7.62935991 -0.00231886 -0.00407742 -0.00165579
O 13.43451219 10.81601117 6.78863152 0.00226272 -0.00408806 -0.00108565
O 18.41718537 4.00372884 11.95656252 -0.00381535 0.00621798 0.00323522
O 20.17209671 11.97643089 12.86436299 -0.00115916 0.00077401 -0.00000970
O 22.71806079 2.89517344 16.39953925 0.00295115 0.00263736 -0.00383651
O 7.65002053 5.37379218 6.43104433 -0.00577574 0.00071072 -0.00205557
O 14.84699969 13.78646388 0.22398108 0.00508169 0.00367000 0.00755317
O 2.50803608 8.93490265 2.13253293 -0.00335699 0.00398167 -0.00375198
O 8.96749530 16.08358836 30.36164844 -0.00233807 0.00380760 -0.00688073
O 19.54441798 9.45698153 8.73929147 0.00857466 -0.00414975 0.00417199
O 16.63306643 1.99706012 6.38778558 -0.00247693 -0.00175227 0.00257197
O 19.91265981 3.28989064 27.49130208 -0.00406460 0.00351289 -0.00435100
O 0.29406771 0.05960578 22.39842470 -0.00271229 -0.00554588 -0.00496153
O 7.49708005 11.43906453 24.58810012 -0.00334414 0.00559301 -0.00459755
O 7.74487589 11.11145387 19.29900589 -0.00509111 0.00085236 0.00432928
O 21.97110436 7.20122033 30.40758510 0.00163073 -0.00322798 -0.00144259
O 8.88055911 9.74457408 29.99823958 -0.00548210 -0.00866620 0.00133030
O 19.42627235 0.50991895 14.87518191 0.00119243 -0.00359824 0.00128657
O 13.61626344 2.40060401 18.91096052 -0.00048190 -0.00270793 -0.00716157
O 18.12843213 7.69555416 0.88274863 -0.00348831 -0.00671150 -0.00017585
O 4.66845470 5.98629854 27.41939453 -0.00076087 -0.00466421 -0.00341644
O 9.39109844 4.90622504 21.17393328 0.01028100 -0.00155970 0.00539927
O 11.94253735 14.53993028 22.84123100 0.00065770 -0.00256392 0.00619062
O 15.51599160 13.83143092 14.41829406 0.00049788 -0.00210100 -0.00162656
O 7.43104051 9.11829334 1.37687570 -0.00857321 -0.00131310 0.00136592
O 19.86674804 4.71707747 21.20619588 -0.00107824 -0.00212285 -0.00152274
O 11.78057698 7.83160035 13.75122340 -0.00223416 0.00023064 0.00251723
O 13.92612168 12.08814302 11.62317631 -0.00775983 0.00930559 0.00920231
O 11.56367449 9.08069588 29.52399861 0.00266662 0.00829331 0.00644695
O 4.02400215 15.07296267 6.84144498 -0.00047545 0.00249322 -0.00049149
O 12.78048380 6.41926048 4.03473795 0.00443911 0.00033763 -0.00228092
O 23.75771387 18.47426535 10.25592435 0.00285088 0.00542274 -0.00365589
O 11.98387530 25.13987404 8.73803735 -0.00315194 0.00163556 0.00272053
O 18.01142298 22.22404176 13.10451326 0.00576983 0.00029346 -0.00426648
O 9.04692346 14.83193073 11.79718168 0.00370980 0.00286510 0.00690427
O 8.31768754 18.80179743 8.28496285 -0.00104749 0.00506285 0.00385845
O 16.00644934 9.93990899 19.23823104 -0.00924308 -0.00296694 0.00127636
O 8.20702283 9.09902298 8.96852258 -0.00044322 -0.00084723 0.00068772
O 15.18295000 7.59592950 9.87333351 -0.00299860 -0.00111847 -0.00676599
O 11.44666697 4.33473924 3.18129967 0.00069326 0.00008661 -0.00555313
O 7.93339611 1.10680676 25.90880509 0.00137871 0.00085254 -0.00737934
O 17.89113186 1.74002894 13.07960001 -0.00223225 -0.00178305 0.00061824
O 9.68411216 15.90891398 4.39369267 -0.00257230 0.00182576 0.00294163
O 13.68099945 17.91584760 20.54333599 -0.00023360 0.00410349 0.00757300
O 14.74966439 15.71549007 21.21720367 0.00128009 -0.00094585 0.00256988
O 7.65181982 15.25036684 23.22019869 -0.00338859 -0.00651762 0.00055821
O 16.81912642 24.03517219 7.81941573 -0.00153532 -0.00148764 0.00029505
O 7.81782934 0.53264621 28.41766285 -0.00375508 0.00220372 -0.00045588
O 9.43024263 25.57096177 18.64017527 0.00242958 0.00483251 0.00177343
O 18.80682010 17.10013446 18.35608638 -0.00142207 -0.00128898 -0.00159214
O 11.89120776 15.99168670 16.83046911 -0.00466750 0.00136298 -0.00374158
O 14.63631485 23.85538079 18.38442464 0.00180647 0.00575071 0.00230117
O 13.17957165 13.95025586 2.72072250 -0.00329178 0.00079464 -0.00429482
O 11.31671733 13.62314724 27.98788319 -0.00097555 0.00359087 0.00934216
O 14.46040134 2.71376712 10.14454780 0.00123015 0.00162159 -0.00452234
O 21.12704205 17.12098747 17.40783506 -0.00431314 -0.00446907 -0.00211544
O 7.88982485 25.44527025 13.55389597 0.00107485 -0.00766598 -0.00341660
O 15.77370384 18.02067524 23.62569698 0.00258176 -0.00201798 -0.00189705
O 6.89181241 15.62492580 12.96780961 -0.00333742 -0.00722754 -0.00868389
O 11.54793028 23.79874497 6.35704682 0.00126475 0.00188277 0.00151133
O 22.39733457 20.01247391 3.32258491 -0.01235517 -0.00029637 0.00367329
O 0.59039284 5.63120591 18.92957177 -0.00221189 -0.00464964 0.00019482
O 10.49321421 20.33311731 3.94589150 0.00412412 0.00615522 0.00117142
O 18.16634020 6.00530178 4.54706974 -0.00233559 -0.00052585 0.00158843
O 12.78360350 14.23977854 10.96536731 -0.00243801 0.00123695 -0.00290840
O 23.77484015 11.16516770 2.11319205 -0.00315269 -0.00040877 -0.00684587
O 22.53701903 3.99382369 8.47846868 -0.00610413 0.00735718 0.00612599
O 23.81212692 26.43558611 5.38251002 0.00268153 0.00311670 0.00222567
O 6.35794887 21.65735933 18.67573278 -0.00464165 -0.00016737 -0.00080064
O 19.90225214 6.29915356 16.52406697 -0.00284464 -0.00393448 -0.00622300
O 13.16972651 23.88749212 30.04225493 -0.00364067 -0.00061231 -0.00153483
O 20.81831572 13.99726019 28.08866522 -0.00770467 0.00505665 -0.00061215
O 11.38284533 8.30289549 21.20697048 0.00358177 -0.00567666 0.00215980
O 0.45588973 11.90591349 8.24674324 0.00230599 -0.00405601 0.00317917
O 24.45404105 23.21471109 9.32195515 0.00297473 0.00203238 0.00349875
O 0.09171251 5.65610893 21.45859034 -0.00110678 -0.00602786 -0.00088049
O 1.41108414 23.64620006 21.92693317 0.00053368 0.00176510 -0.00196761
O 15.65815444 20.36615323 24.81954175 -0.00183254 0.00076862 0.00149929
O 18.81176907 6.23393381 22.94887932 -0.00320443 -0.00477261 0.00152598
O 19.74448380 12.76843708 21.96425613 0.00378885 -0.00093828 -0.00145246
O 16.54093360 10.06848342 24.43790764 -0.00832501 0.00032038 -0.00429161
O 5.80575281 2.86349272 20.20734757 -0.00055919 0.00083396 0.00003145
O 23.23895905 22.94384275 29.35747250 -0.00051454 0.00124141 -0.00146691
O 20.97215636 2.64792405 25.13432051 -0.00198982 -0.00132014 0.00121739
O 18.11227917 24.20341961 5.69859712 -0.00015336 -0.00060600 0.00240716
O 10.71773115 19.09129135 28.19546314 0.01032329 -0.00127229 -0.00031367
O 16.55639332 1.85879138 27.11044271 0.00392611 0.00035707 0.00445885
O 23.95104322 6.31900380 7.45598917 -0.00237176 0.00211519 -0.00519306
O 12.32134815 18.31559497 15.60011306 -0.00193863 -0.00170196 0.00542758
O 1.07961016 1.56538109 24.35170280 0.00474909 0.00311411 0.00069564
O 25.03127891 19.84122115 24.29431140 0.00100138 -0.00489323 0.00486402
O 24.22872002 1.76130239 29.97342393 0.00276519 -0.00282374 -0.01032951
O 24.57772306 21.17434237 7.72058942 -0.00066800 0.00294398 0.00707385
O 17.59174819 18.59350890 16.67939646 0.00443237 -0.00061630 -0.01054413
O 13.25120558 4.41829593 29.57182992 0.00067753 0.00035050 -0.00282204
O 24.08932995 21.70161386 13.63229013 0.00563298 -0.00283564 0.00627604
O 22.46541314 2.66954713 13.63632424 -0.00149943 0.00050234 -0.00136421
O 23.02673852 17.15747928 30.67510611 0.00088766 -0.00533525 0.00181430
O 17.23057766 17.84578670 28.47934527 -0.00085713 -0.00466512 0.00722704
O 13.43954498 21.59238083 6.35444247 -0.00390209 0.00008163 0.00256222
O 1.03530980 9.00305216 12.94318546 -0.00219552 -0.00120388 -0.00320943
O 20.65189117 14.52777424 12.78409878 0.00436399 -0.00096320 -0.00035894
O 16.73067709 7.56208445 3.05279690 0.00076515 0.00012713 0.00075989
O 24.84084509 16.23256677 3.23247268 -0.00397697 0.00039517 -0.00067748
O 18.28158056 21.92589064 27.22650817 -0.00269264 -0.00166404 0.00974409
O 19.26631957 16.56917835 4.88621903 -0.00985329 -0.01070652 0.00572710
O 12.66490264 18.67499581 4.04258779 -0.00152826 0.00343617 -0.00215186
O 19.86607767 10.50677770 20.78093174 0.00024250 0.00268295 -0.00040258
O 20.41867840 7.40203520 10.34210273 0.00848151 -0.00262848 0.00302619
O 20.81317207 0.16049170 2.37975691 -0.00581600 0.00134808 -0.00047927
O 22.62732488 21.15334332 15.49496797 -0.00221191 0.00479853 0.00110117
O 0.61788765 16.34919947 9.45671867 -0.00082961 0.00197446 -0.00450752
O 14.87609682 24.44387028 22.71630318 -0.00329986 0.00312385 0.00377383
O 24.46607786 17.63565648 20.25646823 0.00124963 0.00152576 0.00068334
O 14.50591617 26.39353553 19.23802523 0.00434232 -0.00693121 0.00260423
O 17.65818726 13.52539874 15.62420052 -0.00199790 -0.00381652 0.00366991
O 18.90873088 18.99096627 9.41000469 0.00567247 0.00037298 0.00057218
O 15.49289987 24.92415351 30.23619673 -0.00643886 -0.00216731 0.00288251
O 17.01389964 23.50631301 17.34712105 -0.00438389 0.00080417 0.00147638
O 2.75647021 26.66341011 12.24549332 -0.00421599 0.00438707 0.00279070
O 19.55595266 25.63952661 9.21916322 -0.00488713 0.00211525 0.00103261
O 3.56694430 21.71561190 17.59148716 -0.00212142 0.00180001 -0.00511404
O 12.55872061 0.36277984 25.21456814 -0.00255085 -0.00245744 -0.00084880
O 17.96205637 20.13253482 2.55830022 0.00369577 0.00085010 0.00243243
N 13.49163940 22.84039325 12.04677972 0.00410185 -0.00945471 -0.00093068
N 4.26880408 5.13947656 7.09115866 0.00327131 -0.00048170 0.00393703
N 4.26470681 24.16700936 7.10442634 0.00148221 0.00047249 -0.00238099
N 1.42953146 9.23891943 17.68917610 -0.00421610 -0.00518988 0.00647015
N 3.39385507 2.18700233 18.28231034 0.00163722 0.00065179 0.00351370
N 3.04942541 10.62894060 26.09880643 -0.00815100 0.00374448 0.00220130
N 5.39303184 15.43852627 2.52521612 0.00538185 -0.00461054 -0.00326783
N 2.12886503 3.00763777 2.31875756 -0.00778420 0.00047106 -0.00018923
N 2.34653335 14.60907821 26.15498499 0.00035451 0.00147427 0.00104689
N 23.74160750 8.14892808 26.33881331 -0.00122035 0.00266593 -0.01317531
N 20.13253165 23.21271037 21.12898300 0.00149956 0.00571228 0.00438702
N 11.26993676 4.58077085 25.59908890 0.00318062 0.00401379 0.00592610
N 6.50280476 3.25819486 29.62676324 0.00119156 -0.00124508 -0.00714694
N 7.92158710 9.93850567 14.68003423 0.00211264 -0.00267692 -0.00142653
N 6.81352454 15.96242587 18.86856315 0.00351796 0.00249156 -0.00016061
N 6.00850834 6.66740518 15.43731580 -0.00366106 -0.00516934 0.00593302
N 7.78924173 25.20827555 9.32591099 -0.00117097 -0.00134277 0.00072787
N 1.71673640 18.48697894 11.99967271 -0.00209331 0.00164278 -0.00752532
N 1.88507112 12.93515957 29.63863344 0.00623333 0.00530765 -0.00374513
N 4.19697201 17.74965579 20.15478837 0.00031327 0.00194091 0.00048574
N 0.80284051 13.73594060 15.37899348 0.00338007 -0.00157281 0.00055556
N 1.48184635 23.24857286 3.28186875 -0.00044932 0.00031891 -0.00002306
N 11.67458715 18.95220080 11.02626709 -0.00122905 -0.00294818 -0.00824875
N 22.90187113 26.16762806 26.26530670 -0.00430506 0.00406873 0.00435900
N 10.96233713 1.40548664 15.11952158 0.00434693 0.00561395 -0.00919547
N 3.77711063 21.31367353 0.63205343 -0.00806176 -0.01001096 -0.00372091
N 22.44249776 11.32482599 22.55815751 -0.00289711 0.00018991 -0.00477916
N 4.22179837 21.11750075 28.10598203 -0.00107115 -0.00079526 0.00226063
N 19.74196349 12.38549241 3.78642522 -0.00286043 -0.00297984 0.00068170
N 5.89123784 22.96246301 24.94939473 -0.00272425 0.01232887 0.00577558
N 9.37281090 20.94660372 23.79446660 0.00959441 0.00062175 -0.00305623
N 20.95097189 18.06489275 22.56879708 -0.00230559 0.00066836 -0.00595338
N 12.85140272 11.81752728 3.56252055 -0.00140676 0.00075145 0.00373026
N 9.65699224 5.87731636 7.46370228 0.00351937 0.00363754 0.00149923
N 14.42778890 5.58054479 9.22112476 -0.00372149 0.00650334 0.00246200
N 13.34726293 14.40706020 14.90572621 -0.00058046 0.00021240 -0.00054040
N 8.43954320 23.35491169 12.71326718 0.00397662 0.00220949 0.00507552
N 18.50214203 11.48965697 9.14870227 0.00007423 0.00558987 0.00399981
N 8.58626277 16.10285813 6.32697296 -0.01257629 -0.00152912 -0.00311642
N 15.25806417 10.31926758 10.88656503 0.00450274 -0.00356838 0.00049173
N 14.19712897 11.01502143 18.36282882 0.00735100 0.00042391 -0.00166350
N 9.54723413 6.72199616 22.52140029 0.00006746 0.00288484 0.00077569
N 13.32397867 1.48481066 8.51509016 -0.00208656 -0.00019844 0.00099915
N 0.78291920 8.61970860 3.58416770 -0.00200059 0.00536220 -0.00401748
N 7.97200208 0.84622184 23.65232733 0.00961339 0.00268732 0.00309664
N 19.72065559 2.79536637 19.91645176 0.00465618 -0.01066269 -0.00325341
N 7.08776603 14.09082416 14.70843543 -0.00484420 -0.00166505 -0.00246774
N 19.19164316 2.66105944 29.59749960 -0.00397489 0.00634916 -0.00391977
N 6.08030183 7.21469849 28.65190058 0.00145302 0.00212014 0.00022414
N 7.10247392 11.02014829 9.01858532 -0.00379074 -0.00504025 0.00415029
N 16.81632430 12.56605531 0.28418104 -0.00739491 -0.00247922 0.00561222
N 21.53235457 17.75023188 15.30926881 -0.00503097 -0.00301987 0.00348066
N 8.63867792 9.20540973 3.27801389 0.00024824 -0.00134394 -0.00090523
N 16.00326436 0.70496190 13.74735095 0.00091869 0.00869188 -0.00510105
N 16.88565369 4.28906868 6.64505723 -0.00705616 0.00705702 0.00415620
N 9.36149467 23.77311653 5.83145280 -0.00248680 0.00064775 -0.00500389
N 23.44442818 0.98706307 17.32830821 0.00587091 0.00946514 0.00982417
N 11.01967381 15.87259714 27.42949098 0.00672894 -0.00171135 -0.00308102
N 12.45957794 12.48145713 21.89705490 -0.00050420 -0.00058180 0.00036381
N 11.06381522 2.75407372 1.67679218 0.00473866 -0.00153527 -0.00309471
N 8.06401736 15.00575733 28.54811004 -0.00051140 -0.00198588 0.00074403
N 17.30057042 16.44110266 23.53159976 0.00748027 -0.00760923 0.00206460
N 12.66277524 6.15210360 14.89955582 -0.00166167 -0.00357668 0.00284048
N 12.15018292 19.54223622 20.88075953 -0.00073599 -0.00527117 -0.00151697
N 20.25334339 17.87141461 7.96991691 0.00130071 -0.00696710 -0.00039562
N 21.70880906 6.46019181 15.13530190 -0.00038775 -0.00002940 0.00024928
N 15.51839106 8.71666657 1.50314306 -0.00395748 0.00397157 0.00096904
N 22.82573127 8.11952203 6.77803696 0.00755258 0.00140549 -0.00073469
N 21.25196468 24.83828737 10.51318985 -0.00147447 -0.00026025 -0.00005506
N 2.07731955 11.76852890 6.60882333 -0.00445931 -0.00762588 0.00598121
N 14.27981934 18.78745589 2.43584579 -0.00024028 -0.00549854 -0.00507284
N 23.00125866 2.84867357 0.82758604 -0.00148176 0.00340823 0.00056135
N 0.55542978 6.93541761 12.36322137 -0.00072826 0.00153390 0.00137828
N 12.38294436 20.26185141 29.17869092 -0.00528593 -0.00028640 0.00195951
N 18.56008266 24.67258038 15.98633576 -0.00347094 0.00595064 0.00384304
N 18.63317408 13.83609722 27.35906089 0.00142272 -0.00213099 -0.00243575
N 19.43807585 23.23198326 25.71717885 0.00260028 -0.00444173 -0.00419980
N 1.64617466 3.71830488 23.83627248 0.00525312 0.00056399 -0.00675577
N 13.84264468 1.97548600 24.22344364 0.00384735 0.00183634 0.00061976
N 23.48612284 6.80848771 22.48586374 0.00526579 0.00149883 0.00137390
N 20.19345491 24.92446148 5.11026090 -0.00154665 0.00071651 0.00123024
N 19.77533797 16.50576597 12.04304031 0.00070016 0.00058591 0.00340205
N 10.94524532 24.24112483 30.60882336 0.00145142 -0.00032920 -0.00038303
N 1.99375104 26.27279322 14.40026537 0.00155324 -0.00201878 -0.00557884
N 14.41068963 18.05256665 14.73256886 0.00444928 0.00209374 0.00218651
N 18.39767516 17.30543896 2.93553448 0.00166668 0.00348912 -0.00052413
N 24.33351633 25.39807535 9.02286109 0.00817113 0.01016041 0.00329732
N 17.90144208 22.39791768 2.95498203 -0.00004016 0.00336420 0.00170907
N 6.68165778 23.69629167 19.75331182 0.00443908 0.00673787 0.00025034
N 17.47954803 24.96599352 29.16034984 0.00560798 0.00027963 0.00607400
N 16.59473520 4.00360229 27.67559734 -0.00689247 0.00167901 -0.00061004
N 23.62895317 14.81539592 4.56724896 -0.00261530 -0.00562285 -0.00508490
N 13.54531562 7.64224465 20.47448265 0.00322724 0.00195657 -0.00652714
N 1.70910450 21.04372296 16.51093266 -0.00102633 0.00260758 0.00048544
N 24.15822421 18.57610389 26.04387874 0.00071479 0.00070615 -0.00391553
N 19.13314381 9.32400539 18.96180962 0.00662882 0.00581298 -0.00734854
C 5.93937067 25.04211900 11.07772851 -0.00051609 0.00040121 -0.00110372
C 5.42540468 3.10976343 8.16119015 0.00221165 0.00357386 -0.00497655
C 3.58647063 14.54084674 29.40582854 -0.00109336 -0.00049284 0.00106483
C 24.28928330 10.23544411 18.16319881 -0.00435655 0.00036851 0.00043099
C 23.98877352 12.87734083 13.91686423 -0.00157599 0.00164472 0.00371062
C 4.52715685 11.27765655 27.99471641 0.00567848 0.00265703 -0.00319585
C 10.89579665 19.94203605 13.12946930 -0.00215026 -0.00359007 -0.00998576
C 1.90733840 2.68641308 4.65371392 0.00272068 0.00728211 -0.00702671
C 5.20603343 24.17832893 11.91198561 -0.00963558 0.00206229 -0.00063904
C 5.33145285 2.11791510 9.05881001 -0.00185396 0.00373778 -0.00050716
C 4.13828979 15.80984333 29.75106831 0.00433590 -0.00230252 0.00106816
C 23.02891724 10.46963609 17.74566862 -0.00475001 0.00530016 0.00168879
C 23.53682903 12.48838699 12.69598255 -0.00278719 0.00893110 0.00551602
C 4.69593141 11.35257258 29.32772167 0.00509905 -0.00071040 -0.00029414
C 9.78494198 20.30818984 13.95815411 0.00088279 0.00229231 0.00620528
C 1.82362288 3.26896584 5.92391604 -0.00754821 0.00241870 -0.00514835
C 5.15577766 22.80808404 11.64992577 -0.00378081 -0.00705740 -0.00603116
C 4.35636109 2.25055897 10.11878300 -0.00286891 -0.00288865 0.00241957
C 3.55046311 16.63834876 0.03306402 -0.00154073 0.00250061 -0.00213913
C 22.60652001 10.16615531 16.43095862 -0.00411001 0.00632936 0.00515734
C 24.36001546 12.72354107 11.59539732 -0.00015684 0.00503892 0.00313193
C 3.83655968 10.67735485 30.24948645 -0.00212481 -0.00338176 -0.00162808
C 8.58363012 19.71183624 13.73475640 0.00673821 0.00123586 0.00340983
C 1.25854104 4.53694368 6.19683595 0.00109474 0.00176982 0.00239564
C 6.05905865 22.34046656 10.71178109 0.00266669 -0.00719392 -0.00110275
C 3.30659656 3.11617766 10.02079932 -0.00093825 -0.00171664 -0.00564793
C 2.46693210 16.13671835 0.73326055 -0.00336648 0.00151856 -0.00692127
C 23.50915735 9.57346762 15.54785551 0.00294883 -0.00189970 0.00100295
C 0.61508216 13.19054622 11.71867859 -0.00450560 -0.00064170 0.00578150
C 2.74980700 10.02485593 29.71908394 0.00448049 0.00011759 -0.00494616
C 8.39060621 18.95428776 12.58573296 -0.00152737 -0.00040933 0.00219453
C 0.97454502 5.28555070 5.03154661 0.00931429 0.00538614 -0.00012851
C 6.75449327 23.17411977 9.90796847 0.00682760 0.00138366 -0.00705962
C 3.40319390 4.15448823 9.06291822 -0.00724111 -0.00137378 0.00150748
C 1.90360749 14.88272544 0.40228447 0.00323042 -0.00298669 -0.00005107
C 24.80215719 9.27136324 16.00271727 0.00163230 -0.00059768 0.00071479
C 1.07500009 13.50970732 12.98740518 0.00165284 -0.00731990 -0.00092474
C 2.51709144 10.01596809 28.31089724 0.00247674 0.00816780 0.00503503
C 9.39347386 18.76310133 11.69465063 -0.00229673 0.00847782 0.00211118
C 1.08684182 4.74862753 3.74403664 -0.00802637 -0.00270029 -0.00064634
C 6.82356235 24.59296267 10.09899339 -0.00173826 0.00423145 0.00250430
C 4.37408544 4.15116040 8.07042184 -0.00300179 -0.00186377 -0.01111489
C 2.42955705 14.12434051 30.05773932 0.00509436 0.00035338 -0.00533563
C 0.12842191 9.60140577 17.28229014 -0.00060768 -0.00350557 -0.00370589
C 0.26696459 13.29782426 14.11570464 0.00229680 -0.00247787 -0.00127068
C 3.41678573 10.57493219 27.46836941 -0.00354748 -0.00806025 0.00319966
C 10.69087172 19.22530138 11.97836772 -0.00309249 -0.00099212 -0.00107760
C 1.71336508 3.46703912 3.54136860 0.00272379 -0.00846280 -0.00135616
C 7.99996786 26.59318278 9.41814189 0.00041863 -0.01045211 -0.00215480
C 4.75744525 5.03477929 5.82267301 -0.00456630 0.00065417 -0.00110854
C 0.67900125 12.44350875 30.07291730 0.00229703 0.00754622 -0.00609436
C 2.00745987 9.54342971 18.88865373 -0.00917556 -0.00440486 -0.00477068
C 24.98708694 13.69296008 16.44512499 -0.00566780 0.00693161 0.00019602
C 3.99745920 10.59949953 25.12963949 -0.00348122 0.00928213 -0.00473330
C 11.60587637 18.39811094 9.80786541 0.00257408 -0.00656366 0.00656959
C 1.51868914 3.47268475 1.17555783 0.00166089 -0.00110348 0.00082740
C 4.62730745 14.76458748 25.46451891 0.00008502 -0.00242640 0.00804052
C 5.17943613 3.65628058 5.33587440 -0.00308283 -0.00062717 -0.00028493
C 3.01189027 23.02029712 8.69400827 0.00140910 0.00433709 -0.00669153
C 10.40784703 6.00402271 27.35756415 0.00722456 0.00163514 0.00162729
C 6.19093713 2.73073032 1.25649040 -0.00386892 -0.00116689 -0.00145659
C 3.45977612 10.56030223 23.71162657 -0.00131479 0.00653271 0.00325287
C 3.92547968 13.53663983 2.20764357 0.00527400 -0.00191437 -0.00305776
C 4.92759850 5.09311323 13.82692544 -0.00254223 -0.00179190 -0.00019768
C 8.67629801 1.52227028 14.34747207 0.00073085 -0.00134065 0.00479638
C 0.58654606 7.91424480 24.94895916 0.00705762 -0.00007701 -0.00653265
C 24.61184057 12.44466289 22.83168641 0.00455821 -0.00190544 -0.00132998
C 13.29875353 5.28250887 24.31400125 0.00189777 0.00305848 0.00025568
C 20.68142037 10.95586992 1.99171366 -0.01000623 0.00018000 0.00383782
C 6.33923818 10.19811615 12.94758744 0.00352005 0.00189282 -0.00324255
C 11.54869421 22.24269151 23.62124595 0.00558842 -0.00157021 0.00093925
C 7.05617598 6.48187587 17.56096910 -0.00177496 0.00064051 -0.00405457
C 7.79409415 1.85133099 13.28458087 0.01094225 -0.00362194 -0.00199472
C 1.79897352 7.37531667 24.64174579 -0.00347923 0.00335136 0.00763190
C 0.39893156 13.51349628 22.55150220 -0.00219519 0.00254578 0.00346781
C 14.04277309 5.22691758 23.13218985 -0.00185411 -0.00717753 -0.00226017
C 21.15773360 10.77372385 0.62734093 -0.00345266 0.00603539 0.00450797
C 5.05862978 10.31075333 12.49227161 -0.00661768 0.00146059 -0.00341649
C 12.39139672 23.14200938 24.18510897 0.00324218 -0.00852110 -0.00159223
C 7.58872253 5.72352140 18.56694244 0.00142041 -0.00317801 0.00181661
C 8.13696020 2.83518566 12.37509659 -0.00179635 -0.00080771 -0.00393073
C 2.36839587 6.41591859 25.47975811 0.00636630 0.00553641 -0.00960729
C 24.91032730 14.65546029 21.85293157 -0.00414594 0.00864714 0.00241751
C 13.61044904 4.43066047 22.08727157 -0.00227995 -0.00271158 0.00019475
C 21.28419385 11.87184664 30.42542160 -0.00446857 -0.00587167 -0.00431446
C 4.01915221 10.65471732 13.36197319 -0.00552674 0.00450636 0.00089202
C 12.10906299 23.71303366 25.40510150 0.00544257 0.00400397 0.00802327
C 7.84851315 4.36912048 18.33692138 -0.00248985 0.00046524 0.00505695
C 9.55210237 3.27719404 12.35863091 0.00185015 0.00509334 0.00201014
C 1.72128912 6.02405782 26.61027132 -0.00581474 -0.00148241 0.00340609
C 23.73886871 14.55605946 21.21964756 -0.00930735 -0.00337561 0.00646657
C 12.42744171 3.66835211 22.20576254 0.00054958 -0.00380047 -0.00108766
C 21.02555482 13.16927442 0.30578087 -0.00128017 -0.00437828 0.00738904
C 4.29596603 10.63686135 14.75668131 0.00266426 -0.00475955 0.01038082
C 11.11943783 23.07525707 26.17763645 -0.00099668 -0.00294888 0.00153732
C 7.76735708 3.83598770 17.00030690 -0.00569960 -0.01010707 0.00632328
C 10.43870782 2.91436875 13.29015382 -0.00584747 0.00313348 -0.00384347
C 0.53420493 6.60301568 26.95891333 0.00441207 -0.00161125 0.00437487
C 22.94643960 13.39658561 21.36925879 0.00238331 -0.00358487 -0.00298632
C 11.65351048 3.80857632 23.37283720 0.00248455 0.00191601 0.00831347
C 20.55203882 13.33018089 1.60516279 -0.00193962 0.00293671 -0.00159420
C 5.56676305 10.39140044 15.20558860 0.00029578 -0.00516545 0.00208132
C 10.29041423 22.16559962 25.59772558 -0.00035999 0.00437784 0.00291507
C 7.28503750 4.62755445 15.94310684 0.00222809 -0.00096361 -0.00206750
C 9.96755731 1.92485947 14.21949752 0.00379200 -0.00080686 0.00160319
C 24.98492486 7.60506655 26.11680402 0.00639011 0.00047482 -0.00199943
C 23.29412225 12.42114393 22.30730598 0.00713126 0.00104348 -0.00194987
C 12.07942968 4.55184734 24.45192532 -0.00142338 0.00086383 0.00189076
C 20.33230101 12.21039381 2.53017071 0.00734076 0.00299166 0.00376302
C 6.62280674 10.18734847 14.33236824 0.00189168 -0.00865187 -0.00256201
C 10.38675239 21.75241063 24.28420336 -0.00104101 -0.00662675 -0.00581350
C 6.71424592 5.84928381 16.31141960 0.00032942 0.00143093 -0.00360627
C 10.74461528 0.87166981 16.30585080 0.00138611 0.00360531 -0.00517769
C 22.92093848 7.90735006 27.36313678 0.00570809 -0.00162709 -0.00017575
C 22.36543123 10.61449884 23.73750665 0.00412812 -0.00009037 0.00043993
C 11.58328297 5.33288288 26.73130223 0.00629351 0.00337245 -0.00241940
C 19.74286072 13.55843199 4.43140290 -0.00493014 -0.00497638 -0.00182027
C 8.39211346 9.78793439 15.97209767 -0.00235971 0.00183864 -0.00112366
C 9.15689205 20.77612290 22.46411591 0.00055617 0.01220646 0.00282720
C 5.56775106 6.39269255 14.15397023 0.00081547 -0.00616729 -0.00072679
C 12.24670234 23.25599696 14.15566986 0.00049347 -0.00253744 0.00671987
C 21.75988943 8.84396702 27.62525880 -0.00225658 0.00036385 0.00357614
C 18.39436006 24.84818649 20.47278791 -0.00358535 -0.00112412 -0.00284323
C 3.35225566 8.92077814 19.16257803 0.00541739 -0.00875444 0.00016415
C 3.51014584 4.59199445 18.16772574 -0.00505233 -0.00271613 -0.00042063
C 9.89564686 9.78538538 16.16358942 -0.00183899 0.00185519 -0.00601346