1920
Time=44000.00000003 pbc="T T T" Lattice="24.89019528 0.00000000 0.00000000 0.00000000 26.78647583 0.00000000 0.00000000 0.00000000 30.89197894" energy=-12237.81679386 virial="-37.12617244 -1.79391135 5.11493005 -1.79391135 -48.08940059 16.74450910 5.11493005 16.74450910 -81.35744746" stress="0.00060431 -0.00016408 0.00020803 -0.00016408 0.00014616 0.00084624 0.00020803 0.00084624 -0.00148912" Properties=species:S:1:pos:R:3:vel:R:3
O 4.41108521 22.78958481 12.95035315 -0.00350778 -0.00536489 0.00555802
O 4.15756708 1.66523040 11.24522759 -0.00107468 0.00009639 0.00296207
O 3.09058956 18.16821516 0.19320941 -0.00288452 -0.00435422 -0.00212680
O 20.71281918 10.58800925 16.28449798 -0.00111795 0.00461516 -0.00521229
O 23.64842472 11.73951846 10.24236747 -0.00759246 -0.00336355 0.00319795
O 4.49669768 10.97142260 0.71206789 -0.00149790 -0.00695466 -0.00072509
O 7.86748230 20.40405919 15.01354197 0.00129747 0.00106393 0.00241835
O 1.02070084 3.80901834 6.76156015 -0.00428018 -0.00292522 0.00117008
O 8.44808345 0.73269722 17.22736935 -0.00670360 -0.00263404 -0.00648753
O 4.59759643 6.48756474 4.97822011 0.00856361 0.00399338 0.00091940
O 24.48367560 12.69127478 0.26304641 0.00127485 -0.00058808 -0.00605275
O 13.00011170 5.01704771 27.50171738 0.00435351 -0.00050416 -0.00035164
O 19.50572789 14.57294048 3.52278563 0.00223639 0.00124372 0.00045157
O 5.60236714 11.22445303 25.36917210 0.00433068 0.00220451 -0.00036509
O 10.36566105 17.90423690 9.56928104 0.00388992 0.00457114 -0.00352794
O 5.66750548 7.45009439 13.99222194 -0.00125271 0.00244866 0.00390203
O 6.54263839 3.17309894 11.78194379 0.00155411 -0.00130862 -0.00326812
O 4.30010311 5.85658289 25.59037876 -0.00335320 0.00167482 0.00416598
O 1.25070119 15.18280729 21.08805142 -0.00640127 0.00073039 0.00097129
O 13.66302205 3.73116788 21.23569310 -0.00750639 -0.00141046 -0.00314572
O 21.54892764 11.21098947 29.53879955 -0.00155766 -0.00738785 -0.00929895
O 2.87270055 10.48511287 12.58267835 0.00882270 0.00170209 -0.00268029
O 12.32538634 25.24763723 27.06219325 -0.00579159 -0.00032834 0.00202525
O 8.58977706 3.81077464 20.12242659 -0.00164794 -0.00067459 0.00142103
O 7.83140413 0.99251728 10.32407396 0.00034510 0.00244573 0.00720760
O 23.43173587 6.78894939 28.29487438 0.00037389 0.00194944 0.00131306
O 24.09126271 9.56803058 23.13782913 -0.00136174 0.00196509 -0.00361565
O 1.54438108 10.84829376 19.11987212 -0.00332101 -0.00261142 -0.00186449
O 23.61762077 13.95177217 16.20771291 -0.00207807 0.00426084 -0.00260214
O 7.71479852 11.00700273 16.51144652 0.00493924 -0.00277454 0.00248492
O 11.13524182 20.66307323 23.00132917 -0.00231256 -0.00333922 -0.00492035
O 1.40437110 4.81300805 0.59708716 0.00674954 -0.00329112 -0.00078363
O 15.59458196 20.21639211 8.33437940 -0.00557426 -0.00435816 0.00050073
O 4.19400852 20.70648793 8.08584462 0.00112934 -0.00239442 0.00396190
O 6.69998508 24.71076091 2.25175063 -0.00114048 -0.00983625 -0.00277776
O 5.54878223 19.06033591 14.99189727 0.00384906 0.00977822 -0.00161857
O 4.91998426 24.31738976 18.25401638 0.00393137 0.00325535 0.00147872
O 2.83677699 0.06592016 30.21389834 -0.00553868 -0.00409892 0.00323086
O 7.91364283 19.74762138 5.02358404 0.00552145 0.00136959 -0.00459486
O 2.74615631 25.68159205 26.46576842 -0.00601437 0.00069815 -0.00222378
O 2.73139735 15.93706331 25.91134444 -0.00150431 -0.00147197 -0.00532769
O 3.46222483 18.05462259 13.82532934 -0.00336885 -0.00557730 -0.00275842
O 3.37152281 23.13112518 7.51015474 0.00483642 -0.00748780 -0.00251953
O 4.15655839 20.05764753 29.54159850 0.00068079 0.00772527 -0.00018567
O 5.15873148 1.06965546 0.18170625 0.00473170 -0.00047138 0.00552903
O 0.90767951 25.19095744 4.82472915 -0.00201283 -0.00441516 -0.00209247
O 3.30901645 15.33895997 4.26904210 -0.00256124 -0.00022420 -0.00230901
O 20.60173653 19.58179128 22.07374330 0.00735908 0.00845874 -0.00185349
O 22.07805961 14.61673526 28.30387416 0.00028066 0.00378885 0.00048146
O 24.16788111 18.81374212 3.42639514 -0.00365935 0.00106753 -0.00321198
O 0.44106631 20.60215337 22.75690033 0.00087454 0.00071104 -0.00901145
O 8.36706986 24.70005209 29.44288025 0.00351318 -0.00133092 -0.00135796
O 4.97092930 3.22573433 24.98968372 -0.00612411 -0.00224266 -0.00339095
O 4.10413249 17.69385584 24.48220409 -0.00505154 0.00869422 -0.00050227
O 3.71548347 11.93350559 20.11802375 0.00489928 -0.00152025 0.00031668
O 18.32316400 18.37075859 27.99797890 -0.00199235 0.00429354 -0.00057208
O 13.64299757 21.83524087 14.32816849 -0.00107841 0.00071124 -0.00233892
O 5.43105201 22.83201170 0.99878877 -0.00262869 0.00208784 0.00112466
O 20.72834427 23.95991381 19.67623125 -0.01034074 0.00396840 -0.00668178
O 3.40002336 15.67169784 19.89329525 -0.00200983 0.00662619 -0.00465163
O 4.51317688 3.83738547 17.94304763 0.00686022 -0.01057218 0.00543655
O 4.05123442 24.03358074 25.21563606 0.00508633 0.00059278 -0.00111295
O 7.93839482 16.72774186 20.85650823 -0.00090160 0.00659485 0.00470423
O 19.98186879 26.00617964 25.97297838 -0.00512033 0.00201683 0.00564283
O 3.94754972 6.28025517 2.55182947 0.00039116 0.00009021 -0.00611208
O 7.87625936 6.99886368 12.53046095 0.00323029 -0.00027180 0.00480861
O 16.90347009 9.90826547 26.67800631 -0.00605032 0.00276996 -0.00287597
O 10.53957584 9.45330836 13.15260921 -0.00207275 0.00208843 0.00386813
O 11.22871765 10.88290133 8.19901781 0.00194639 -0.00440929 -0.00049382
O 13.69897514 10.14170836 7.00643826 -0.00051178 -0.00271291 -0.00230608
O 18.12483029 3.86128327 12.03283196 0.00069894 0.00302277 -0.00073559
O 19.92043202 11.77861667 13.18687866 0.00006841 -0.00436308 0.00564450
O 22.47276260 26.69773225 15.87352794 0.00373829 -0.00260713 -0.00299499
O 8.38567723 3.87350530 7.16567526 -0.00558151 -0.00993667 0.00285574
O 15.03691540 14.09798525 0.05694730 0.00214368 0.00021215 0.00091084
O 2.52913155 9.86382484 2.03664814 -0.00431727 -0.00503488 -0.00207391
O 6.85832526 16.96165820 29.63776247 0.00241389 -0.00217766 -0.00342219
O 19.71174259 9.57243761 9.28696660 -0.00013664 -0.00143734 -0.00465059
O 16.43616838 1.90697994 6.25798990 0.00489108 -0.00560908 0.00633544
O 20.09103705 4.09706174 27.10294014 0.00078866 -0.00059186 -0.00538934
O 0.07201000 26.15824442 23.03914797 0.00477409 -0.00263728 0.00149586
O 7.65065236 12.45647797 23.67408841 0.00055723 -0.00040270 -0.00485282
O 8.22866791 10.51669604 19.00883817 -0.00321876 -0.00289140 0.00274721
O 22.16965098 7.20413959 30.58118513 -0.00556266 0.00178053 0.00138170
O 9.57692661 11.18820219 30.32907660 0.00001081 0.00453346 -0.00341448
O 18.65282690 1.09222212 15.02645961 -0.00342366 0.00519005 0.00040934
O 12.47728365 1.75901055 19.56252114 0.00411316 -0.00245741 -0.00314510
O 18.81759697 7.89218301 1.00588550 0.00225245 -0.00096755 -0.00089083
O 6.12370393 6.69569744 27.55985183 -0.00027264 -0.00403515 -0.00375985
O 9.15549874 5.45551716 21.88760758 0.00334228 0.00828397 0.00105947
O 12.04973139 14.66872164 21.87466841 0.00354881 -0.00072421 0.00076855
O 15.41367235 13.51169205 14.34796207 -0.00244976 -0.00160295 0.00169065
O 9.52841080 11.55673064 2.00490763 -0.00398601 0.00437024 -0.00063545
O 18.42520862 6.11765087 20.65305497 0.00527231 -0.00162816 -0.00675877
O 11.88748826 7.32224690 13.98317029 -0.00400490 0.00440858 0.00597415
O 14.05910574 11.97639721 11.32577577 0.00371373 0.00056562 0.00074571
O 11.72995129 8.80149240 30.28503371 0.00044669 -0.00443968 0.00629739
O 3.36322782 14.50774960 6.76617393 0.00307725 -0.00453910 -0.00267027
O 13.12813175 6.16562300 3.80856883 0.00166571 -0.00403638 0.00584707
O 24.11760167 17.27116282 10.65790760 0.00024442 -0.00180702 -0.00055170
O 11.76764034 25.74623004 8.69468810 -0.00277391 -0.00543944 0.00230751
O 18.25366653 22.22854002 13.78798401 0.00164665 0.00016364 0.00303775
O 8.81210096 15.03526898 11.81498633 0.00151270 0.00239342 0.00500382
O 8.50946497 19.28248969 8.37432750 -0.00015158 -0.00110842 0.00146839
O 15.48461167 9.55998078 18.92026182 -0.00185713 0.00009997 0.00238637
O 8.95260392 9.78281743 9.19245390 -0.00247438 0.00006440 0.00029154
O 15.49020443 7.48539438 9.80466948 -0.00020709 -0.00050673 0.00107587
O 12.45934357 3.81215716 2.89598377 -0.00385789 -0.00382184 -0.00264682
O 8.19510978 1.75258131 26.69562229 0.00009199 -0.00220497 0.00654209
O 16.85587236 1.75147186 13.18184790 -0.00002986 -0.00239882 -0.00264459
O 9.14346796 15.53754412 4.30575618 0.00170330 0.00769432 -0.00415245
O 14.46702154 18.04048213 19.95909199 -0.00260128 0.00039946 0.00179856
O 15.22151558 15.66269648 20.53810869 0.00798496 0.00305569 -0.00411427
O 8.44227094 17.80181524 23.20542216 0.00318928 0.00409231 0.00052556
O 16.66578707 23.83861055 7.84346977 -0.00132188 0.00191461 0.00185204
O 8.05615484 0.29026566 28.70552160 -0.00097563 0.00214325 0.00444143
O 8.72979525 26.40758678 19.33826355 -0.00059612 -0.00052636 -0.00094140
O 19.02886756 19.29066759 18.42234001 0.00257347 -0.00623419 -0.01037819
O 11.63588256 16.01155588 16.53881302 0.00250133 0.00271611 -0.00047820
O 14.86860764 24.16305234 18.14873498 -0.00075342 0.00230433 0.00633035
O 13.36623266 13.69495194 3.07635404 -0.00063533 0.00627399 -0.00344868
O 11.66766621 12.63631083 25.14468947 -0.00426206 0.00754548 -0.00100946
O 14.38354429 2.51111965 10.11080546 0.00035094 -0.00200297 0.00590228
O 21.20893421 18.39353592 17.61434610 -0.00452052 0.00209592 -0.00093920
O 9.00402333 25.42861902 14.45577810 -0.00267706 -0.00024144 0.00282379
O 15.38448392 18.89209731 23.64335247 0.00427557 0.00001294 -0.00079720
O 6.62936822 15.68356813 12.79450835 0.00524384 0.00279340 -0.00309149
O 11.25016788 24.31485199 6.64173556 0.00085533 0.00042114 0.00436052
O 21.97101612 20.18793337 2.33396794 -0.00674589 0.00497368 0.00282630
O 23.89888613 4.57871431 17.61688587 -0.00364374 -0.00056023 -0.00087350
O 9.83120106 19.98314129 3.46964773 0.00130706 0.00474271 0.00351120
O 17.76925655 6.47480211 4.62649512 -0.00019756 0.00616059 0.00227224
O 12.71142504 14.12319407 10.68522748 -0.00253080 -0.00136082 -0.00803092
O 23.43106866 11.53717131 2.40178437 -0.00600493 0.00240487 -0.00168790
O 22.28195881 3.94667526 8.56066732 0.00335825 0.00142536 0.00082748
O 23.86139583 0.08262757 4.98257329 0.00112377 0.00791238 0.00306183
O 6.65890426 21.60457459 19.58704833 -0.00101221 -0.00126892 -0.00033870
O 19.39953909 8.79297084 14.96665416 -0.00010508 0.00179984 -0.00063976
O 13.30953933 23.78836803 0.03582579 -0.00228219 0.00438705 -0.00385090
O 20.17811838 12.85694382 28.18773963 -0.00479373 -0.00506635 0.00420023
O 12.17915893 7.37723572 21.77021567 -0.00319252 0.00030646 -0.00414742
O 0.35310353 10.43053872 8.52113550 -0.00497626 -0.00248966 -0.00675802
O 23.00897957 23.28481113 8.43748297 -0.00080175 -0.00158149 0.00147076
O 24.31201663 5.08857898 20.05719255 -0.00106975 0.00102844 0.00202415
O 1.63582070 22.96764722 23.00044843 -0.00303116 0.00589157 -0.00106459
O 15.53581607 20.38785566 25.72417323 -0.00196890 0.00042172 -0.00360887
O 18.51384083 6.75754805 23.07258612 0.00348584 0.00068427 -0.00120545
O 18.12678508 12.84764277 22.17715539 -0.00313241 0.00478355 -0.00801895
O 16.03922577 11.33746178 24.79475106 -0.00508881 -0.00195851 0.00225833
O 5.22753405 3.27727057 20.26734948 -0.00274143 -0.00246842 -0.00159539
O 22.83760859 22.72015104 29.89541726 0.00232306 0.00169976 -0.00538805
O 20.21608083 3.13528767 24.54789468 -0.01116153 -0.00115850 -0.00371281
O 18.14269464 23.84180142 5.84538357 -0.00259479 -0.00073472 0.00407119
O 9.61950663 20.17851942 28.07656500 -0.00066509 -0.00344867 0.00150398
O 17.12265459 2.39457875 27.96925767 0.00323273 0.00164509 0.00045201
O 23.82400522 5.58234449 6.79279113 0.00555956 0.00018938 0.00655544
O 12.40867506 18.20672833 15.33897054 0.00328203 -0.00064544 -0.00439217
O 0.88169749 1.40972943 24.52974309 -0.00265072 -0.00684709 -0.00269117
O 0.62451165 19.33005167 25.19593756 -0.00388033 -0.00613450 -0.00017983
O 22.99795300 2.03415817 29.95033274 0.00401541 -0.00203436 -0.00024837
O 23.43703102 21.08716290 7.14222813 0.00812198 0.00067536 -0.00244131
O 17.30763470 18.90731382 16.54369659 -0.00561708 0.00525462 -0.00034728
O 13.47693463 4.70431314 30.01270562 0.00321758 -0.00467176 -0.00005424
O 0.18431750 22.00547741 14.36463662 0.00143798 -0.00160773 -0.00398534
O 22.98627764 1.68897294 14.20076139 -0.00306227 0.00069750 0.00961208
O 22.72101170 16.50598315 29.99725547 0.00459331 -0.00042318 0.00201729
O 16.55425646 16.60451861 28.07669403 0.00612669 0.00131256 -0.00097882
O 13.52486746 22.95091809 6.04096138 0.00759025 -0.00010724 -0.00432128
O 1.17312862 8.75649539 13.47619860 -0.00138256 0.00575592 -0.00345075
O 20.33233362 14.50470584 13.01930579 0.00449279 -0.00558424 0.00851388
O 17.08326585 8.34705515 3.02826276 -0.00658535 0.00079819 -0.00087538
O 24.68149488 16.79232471 4.73583608 0.00119012 0.00331966 -0.00239958
O 18.10557651 21.63159853 27.60280554 0.00397271 -0.00131180 -0.00508977
O 19.01857214 16.72283316 4.30323026 -0.00161317 -0.00109186 0.00018474
O 11.40622438 18.02343174 2.70367716 -0.00346289 -0.00187036 -0.00223611
O 19.70493502 10.88424048 21.30815366 0.00053849 0.00339713 0.00228879
O 20.79290986 7.42932815 10.21938581 -0.00316797 0.00126530 0.00505605
O 20.33032876 0.84837723 2.53485120 -0.00131876 0.00184115 0.00514666
O 22.93016229 21.46382538 15.70605025 -0.00326366 0.00654203 -0.00213790
O 1.95291806 16.38473279 10.67943018 0.00132872 0.00130658 -0.00052673
O 14.95081073 23.51056745 22.26904497 -0.00085685 0.00477962 -0.00231327
O 24.74222202 17.21821151 20.14477795 -0.00551317 -0.00063334 -0.00354704
O 14.41167306 26.56207742 19.36826186 0.00354077 -0.00023429 0.00167367
O 17.36685251 13.67410378 16.00108412 -0.00076886 0.00462654 0.00266154
O 17.79212522 18.85661767 8.68613459 0.00588456 -0.01046647 -0.00713250
O 15.63883959 24.72527523 30.37791276 0.00132312 -0.00150549 0.00091028
O 17.38110947 23.96827694 17.92707429 -0.00155356 0.00282711 0.00444084
O 2.02926920 0.92713657 12.45309338 -0.00715764 0.00209131 0.00176101
O 19.00675193 25.76363809 10.22837379 -0.00260610 -0.00228932 0.00444625
O 3.55229733 22.19067387 18.20058482 -0.00505521 -0.00117380 -0.00116899
O 13.46055845 0.12204572 25.54571308 -0.00401295 0.00643350 -0.00132762
O 17.34290397 20.50828774 1.98894986 0.00092073 -0.00098466 0.00110599
N 13.36384588 23.22302974 12.49670886 -0.00355023 -0.00280059 0.00122151
N 4.13189715 5.39244114 6.94134864 -0.00399659 -0.01065839 0.00322038
N 4.32771626 25.24742934 7.24482486 -0.00023547 0.00507038 -0.00111607
N 1.12572185 9.31289456 17.47374191 0.00094817 -0.00213936 -0.00677382
N 2.68599376 2.59033421 18.62266094 0.00039118 0.00420058 -0.00095269
N 3.68779136 10.15708542 26.14583926 0.00290948 0.00421658 0.00144773
N 5.05124411 15.61641890 2.74308969 -0.00305081 -0.00005847 -0.00123968
N 2.62466807 3.10300536 1.47889195 0.00172429 0.00274907 -0.00060417
N 1.85304080 13.92506699 25.38942063 -0.00479423 0.00216768 0.00544531
N 24.20974193 8.00291834 26.54032961 -0.00024646 0.00247167 -0.00193292
N 20.34585124 23.08154197 21.73014331 0.00280100 -0.00084041 -0.00069090
N 11.23400967 4.47993047 26.21151400 -0.00395330 0.00047250 0.00095056
N 6.18395863 3.02282753 30.40010923 0.00353138 0.00488699 0.00011910
N 8.00983858 9.80935677 14.61607496 -0.00101055 0.00062200 0.00224599
N 7.53118601 15.84291252 18.81582160 -0.00368654 -0.01627609 -0.00061389
N 6.46387420 6.85690027 16.04037141 0.00191593 -0.00089519 0.01190581
N 7.76235685 25.66564539 9.43896090 0.00488349 0.00064510 0.00000660
N 1.76502082 19.30629844 12.88365096 0.00292362 0.00221692 -0.00407684
N 1.51014281 13.03754949 29.95878264 0.00531405 0.00752726 0.00040547
N 4.74615735 17.42940353 20.20584291 0.00765436 0.00442744 0.00581482
N 0.61684874 13.07881113 15.29207461 0.00113352 0.00598042 -0.00337846
N 0.70494863 23.56871812 3.18964041 0.00016040 0.00808625 0.00329317
N 11.52183184 19.28640979 10.91012866 0.00005234 0.00463889 -0.00064653
N 22.05076264 25.85904224 26.72413249 0.01291736 0.00640640 0.00186204
N 10.00532442 1.38261936 15.70789411 -0.00863217 -0.00211948 -0.00038243
N 3.32216592 21.92513206 1.12353969 0.00361447 -0.00152873 0.00911230
N 22.63684027 11.06381277 22.24596973 0.00065407 -0.00178278 0.00027008
N 3.60499482 21.98808254 28.44759881 0.00199081 -0.00297917 0.00259003
N 19.89859988 12.34503166 3.77171875 -0.00444952 -0.00302494 0.00858173
N 5.86163727 22.72102157 25.79730677 0.00025430 0.00205797 0.00908658
N 9.47005155 22.11912716 23.55150844 -0.00148427 0.00264789 0.00528918
N 20.90695299 17.47366007 23.07769869 0.00783616 0.00076676 -0.00218261
N 13.11924134 11.59791734 4.02647708 0.00047647 -0.00327682 -0.00401903
N 10.02263372 5.40337343 7.68975908 0.00913494 0.00172098 0.00068019
N 14.80347984 5.45279835 9.13005397 0.00245294 -0.00450463 0.00452075
N 13.24057566 14.11784232 14.54631818 0.00340283 0.00046510 0.00621982
N 8.80701180 23.78147225 12.93814430 0.00543733 -0.00152753 -0.00048386
N 18.59913174 11.55766359 9.17910376 0.00513718 0.00432199 0.00672653
N 8.46188560 16.08986967 6.39690983 -0.00228683 0.00388520 -0.00013968
N 15.24794624 10.21030374 10.67634851 -0.00287612 0.00471845 0.00913129
N 13.75656252 10.88152632 18.19398938 -0.00115445 -0.00067844 -0.00043237
N 9.62350063 7.26220599 23.22735206 0.00511913 -0.00064554 -0.00144547
N 13.39999473 1.46186096 8.35754417 0.00185601 -0.00015400 -0.00045659
N 0.98290751 8.97308533 3.44936571 0.00293610 -0.00266681 0.00361592
N 7.70544960 0.97412975 24.61645656 -0.00063472 -0.00016172 -0.00153977
N 19.10649924 4.52916726 19.31856007 0.00296722 -0.00373952 -0.00839509
N 6.79848485 14.25348444 14.53038252 0.00298851 0.00105053 -0.00030161
N 19.88083731 3.12380317 29.11823610 -0.00463854 0.00461919 0.00242249
N 7.19659918 7.73993757 29.28310453 -0.00079957 -0.00723109 0.00787438
N 7.51651831 11.43558319 8.93291233 -0.00063847 -0.00017632 -0.01252711
N 16.76893007 12.69471758 0.55979621 0.00166100 -0.00242930 0.00170799
N 21.41755392 17.99550714 15.45006602 0.00423595 0.00229350 0.00676585
N 8.41134469 10.16330466 3.45352706 -0.00145187 0.00240219 0.00043949
N 15.21322141 0.17643706 13.68604818 0.00176159 -0.00173955 0.00806733
N 17.27370086 4.02841407 6.51877058 -0.00651256 -0.00237570 -0.00198371
N 9.40517122 23.94285530 5.46249799 0.00198981 -0.00291677 -0.00812947
N 22.52454620 25.94765218 17.95136090 -0.00845729 0.00327434 0.00482175
N 11.15823224 14.22362830 26.67036596 -0.00178087 -0.00355130 0.00462942
N 12.83337690 12.55921314 21.53810292 -0.00635452 0.00594528 0.00191083
N 10.85062509 2.37416620 2.18439944 0.00171175 -0.00440897 -0.00022288
N 7.48730628 15.78246334 27.81848169 0.00349662 0.00441524 0.00501027
N 17.18948182 17.44542966 23.31776111 -0.01038517 -0.00103061 0.00159396
N 12.44771813 5.70069784 15.42318958 0.00224817 -0.00910477 0.00234429
N 12.93388901 19.59543453 20.70050921 -0.00322408 -0.00520426 0.00267369
N 19.57906170 17.50318606 8.34147726 -0.00157686 0.00159790 -0.00088505
N 19.84402963 6.64446465 14.41718814 0.00031015 0.00301312 0.00267842
N 15.55496918 9.24122707 1.59370129 -0.00242109 -0.00931925 0.00013168
N 22.57267205 7.40727621 7.33195880 0.00298432 0.00409086 -0.00492555
N 21.09047745 24.79727531 10.61768574 -0.00015878 -0.00155014 -0.00111877
N 1.70435916 11.47677598 6.95363094 0.00288633 0.00385493 -0.00374454
N 12.99844878 18.03478115 1.19558636 -0.00038378 -0.00130229 -0.00657102
N 22.63539824 3.45593545 0.83689438 -0.00091443 -0.00432244 -0.00679608
N 0.72946615 6.63874701 12.70101953 -0.00486017 -0.00328255 0.00177301
N 11.43420232 20.48926688 29.45346865 0.01113545 -0.00026542 0.00699834
N 18.74037878 25.06773894 16.34980515 -0.00344208 -0.00018450 0.00483292
N 18.07428657 13.66797111 27.79597368 0.00151674 -0.00591327 0.00206689
N 18.82834366 23.27875285 26.23912802 0.00479869 -0.00488294 -0.00152208
N 1.01487608 3.53896414 23.76822820 -0.00206997 -0.00586405 -0.00169326
N 14.81700093 1.67924074 24.56163683 -0.00309647 0.00256641 0.00253830
N 23.63058045 6.47702757 21.76529527 0.00579979 -0.00527368 0.00463053
N 19.70854335 24.80579148 4.49311447 -0.00321533 0.00676142 0.00039019
N 19.99819280 16.63660146 12.27052491 -0.00508422 -0.00172165 0.01238445
N 11.15742543 24.45352611 0.54041990 0.00022107 0.00275843 -0.00129496
N 2.25714216 0.34838480 14.57567591 -0.00389292 0.00097912 -0.00094322
N 14.46359884 18.01554494 14.29292565 0.00577361 0.00314757 0.00449246
N 18.78818039 18.20974904 2.58603494 -0.00380659 -0.00703151 -0.00140523
N 23.90527120 25.39486034 8.15581249 0.00495820 0.00880568 0.00235518
N 16.77154379 22.66873902 1.57693009 -0.00233089 0.00157328 -0.00015811
N 6.66200029 23.53058861 20.75795173 -0.00410114 0.00090248 0.00033510
N 17.51344838 25.30480736 29.22985235 0.00208315 0.00245829 0.00155789
N 16.75915143 4.70411078 28.04750926 0.00150697 0.00346657 -0.00037787
N 24.59194391 14.83056984 5.87443805 0.00045541 -0.00199174 0.00302202
N 14.27652684 7.83663872 20.91342097 -0.00800390 -0.00060995 -0.00613774
N 2.14278185 21.01426823 16.84534113 0.00057840 -0.00685168 -0.00333024
N 23.58897187 18.58410407 26.18519418 0.00530928 -0.00228518 -0.00428683
N 19.16511717 9.68042108 19.53034529 -0.00222932 -0.00284540 -0.00664168
C 6.37749127 25.58864444 11.49485153 -0.00516780 0.00960216 -0.00850966
C 4.75315662 3.17423574 7.82616730 -0.00257343 0.00057015 -0.00048575
C 2.95406936 14.87837405 29.59969825 -0.00185335 -0.00050307 0.00182455
C 23.92326572 10.50372492 18.03339118 0.00035594 0.00584688 0.00266307
C 23.64151113 12.64480670 13.72254453 -0.00172363 0.00525381 -0.00375493
C 4.81123206 11.42295962 27.98293014 0.00082660 -0.01088276 -0.00482473
C 10.96748618 20.14889375 13.07356486 -0.00048460 0.00465843 -0.00182509
C 2.85929603 2.44992072 3.81882777 -0.00363169 -0.00685793 -0.00175180
C 5.49390317 24.82082551 12.29291818 0.00555723 0.00637340 0.00691108
C 4.80739358 2.34117361 8.91951851 -0.00252346 -0.00155763 0.00064298
C 3.29571952 16.13834642 29.93058972 0.00418009 0.01067347 0.00115674
C 22.59876039 10.71481161 17.82185230 -0.00367926 -0.00100964 -0.00236133
C 23.19383896 12.17083308 12.50291559 -0.00420799 -0.00195253 0.00216042
C 4.97841039 11.66454868 29.35655259 0.00337547 -0.00504386 -0.00340997
C 10.10772005 20.45968317 14.13165400 0.00017311 -0.00467483 -0.00282627
C 2.52441523 2.56749755 5.13383365 -0.00318155 -0.00422010 0.00014750
C 5.18413766 23.52018239 12.07131666 0.00341522 -0.00584742 -0.00758590
C 4.09070389 2.59566959 10.15366267 -0.00122142 0.00660679 0.00453827
C 2.64128363 16.90803884 30.85812850 -0.00362249 -0.00122855 -0.00277331
C 22.03310623 10.28412990 16.61441197 -0.00240951 0.00386357 0.00047816
C 24.08222164 12.12106352 11.47185230 -0.00463339 -0.00446895 -0.00229223
C 4.20536049 10.89938779 30.25515093 -0.00426984 -0.00289048 -0.00009230
C 8.69565358 20.21958319 13.95815011 0.00182403 0.00390310 0.00510831
C 1.68018211 3.74534004 5.47956810 0.00220155 -0.00700321 -0.00130075
C 5.68458119 22.96567630 10.93570995 0.00084490 0.00389318 -0.00907094
C 3.41890371 3.83822621 10.19562078 0.00322834 -0.00198985 0.00837536
C 1.35487485 16.46432500 0.35845385 0.00110987 -0.00051950 0.00818173
C 22.83472932 9.49313562 15.69642453 0.00295623 -0.00375634 0.00035993
C 0.52869774 12.23026080 11.63635387 -0.00104921 -0.00162008 -0.00432988
C 3.24432272 9.93580953 29.80731685 -0.00721789 -0.00080357 -0.00460618
C 8.24670043 19.72769670 12.71300606 -0.00293069 0.00398681 0.00440233
C 1.57893433 4.76574833 4.56854462 0.00692365 -0.00236645 0.00641316
C 6.54231440 23.70190631 10.13193504 0.00394245 -0.00146239 0.00225430
C 3.51110240 4.75587459 9.11633635 0.00049589 -0.00737698 -0.01511247
C 0.94320005 15.18634318 0.18447967 0.00338593 0.00077527 -0.00345535
C 24.07828740 9.12008879 16.11299447 -0.01127818 0.00126109 -0.00631712
C 0.98188251 12.55262850 12.89668965 -0.00474699 0.00266603 -0.01385679
C 3.07070316 9.75541006 28.45720148 0.00547172 -0.00410622 -0.00460015
C 9.17019093 19.32287992 11.72283746 0.00432007 -0.00476112 0.00491605
C 1.79763216 4.58754052 3.22672490 0.00234162 0.00208874 0.00456461
C 6.90211656 25.02350843 10.39402045 -0.00421845 0.00107981 0.00081741
C 4.13115342 4.44161156 7.87977028 0.00415794 0.00387718 -0.01186128
C 1.75668182 14.37425586 30.17021318 0.00611052 0.00648330 0.00330391
C 24.65765467 9.68824954 17.21845060 -0.00126968 -0.00003176 0.00094479
C 0.11473668 12.78139199 13.99042135 0.00095361 -0.00206925 -0.00006945
C 3.82408130 10.50088767 27.52756640 -0.01186114 -0.01274403 0.00005535
C 10.52778297 19.60307806 11.86902874 -0.00311708 -0.00099674 -0.00055104
C 2.44547523 3.41528904 2.80421592 -0.00380094 0.00139458 0.00625234
C 8.06674590 0.21157868 9.39131831 -0.00076700 -0.00619549 0.00058069
C 4.90590625 5.60633872 5.82922359 -0.00648897 -0.00777290 0.00200983
C 0.27155630 12.47814418 30.12565371 0.00312856 -0.00475096 -0.00089096
C 1.84896257 9.85103454 18.44360191 0.00186295 -0.00349520 -0.00730081
C 24.79028713 13.70830224 16.24518784 0.00357796 -0.00320434 -0.00011423
C 4.49891391 10.68585994 25.15691037 0.00401051 0.00590665 -0.00591284
C 11.44532864 18.52987792 9.81462581 -0.00655679 0.00223470 0.00108490
C 2.05936669 3.79205038 0.44562652 0.00244727 0.00058289 0.00708346
C 4.18323326 14.30288540 24.88067268 0.01118731 0.00098768 -0.01041070
C 6.21392723 4.82920939 5.57842235 -0.00092141 -0.00331457 0.00218921
C 3.00576575 24.82046378 9.18447253 -0.00528287 0.00150186 0.00103881
C 10.91101835 5.98174425 28.05971965 -0.00269879 0.00348616 -0.00519299
C 5.79375087 2.62127689 1.84142813 -0.00249716 0.00714581 0.00222763
C 3.88917735 10.43159604 23.77903537 -0.00314473 0.00086052 0.00466096
C 3.72061789 13.64996717 2.69681073 0.00676859 -0.00257552 -0.00300737
C 5.94580400 5.14965229 14.35190178 -0.00087362 0.00106912 0.00749376
C 7.76810648 1.46387435 14.78870133 -0.00631186 0.00259254 -0.00460911
C 0.97887686 7.36194305 25.01354073 -0.00253285 0.00149976 -0.00079216
C 0.02065167 11.83875035 21.79471170 0.00081099 -0.00006597 0.00031100
C 13.08041024 4.90582526 24.66605331 -0.00260938 0.00137871 0.00341987
C 20.39266255 10.68686734 2.06309919 -0.00041785 0.00490978 0.00194449
C 6.46117368 10.14873870 12.82140031 -0.00045839 0.00448708 0.00012449
C 11.61073451 23.10880277 24.25524136 0.00553446 -0.00548952 0.00254491
C 6.77150993 6.45460720 18.38294452 -0.00063685 -0.00581817 -0.00443697
C 6.97503029 1.84730271 13.74987804 -0.00130467 0.00184156 -0.00064610
C 2.19931678 6.81969858 24.84760914 -0.00130396 -0.00098039 -0.00035013
C 0.84261197 12.88241771 21.55604498 -0.00142738 0.00062114 -0.00600650
C 13.66697586 4.68032534 23.47786163 0.00052254 -0.00176444 -0.00815937
C 20.81930252 10.36979751 0.76976691 -0.00456793 -0.00103288 0.00558770
C 5.19956419 10.24134812 12.29917150 -0.01130130 0.00123093 -0.00377857
C 12.31453782 23.90145853 25.08833757 -0.00572657 0.00764943 0.00360559
C 7.26936916 5.63785675 19.39230895 -0.00932180 -0.00207556 -0.00395774
C 7.47325113 2.69912312 12.74589319 0.00500338 -0.00188830 0.00011300
C 2.99044125 6.23174221 25.85561883 -0.00506010 -0.00668753 0.00114281
C 0.41945549 14.14023967 21.16811758 -0.00038446 -0.00244917 -0.00617651
C 13.04322372 3.98021925 22.47267065 -0.00434320 -0.00398171 -0.00111336
C 21.30174052 11.38386928 30.83190178 0.00541229 0.00648939 -0.01022978
C 4.04520693 10.37040277 13.15800807 -0.00437958 0.00223004 0.00317210
C 11.76698777 24.30330501 26.36111042 -0.00104218 0.00263749 0.00703822
C 7.98230167 4.47269291 19.13388702 0.00545651 0.00114739 -0.00366201
C 8.82839935 2.87840964 12.61346717 0.01106549 -0.00402487 -0.00206342
C 2.35330960 5.96823238 27.08416710 0.00673945 0.00393830 0.00267561
C 23.85838019 14.20654279 20.88294541 0.00280662 -0.00047758 0.00033530
C 11.77418760 3.41965196 22.76625858 0.00105376 0.00080782 -0.00631134
C 21.49593141 12.68111975 0.45136089 -0.00597002 -0.00283640 -0.00010839
C 4.29082659 10.37251950 14.55072297 -0.00244495 -0.00278098 -0.00774562
C 10.67966303 23.51775678 26.79412662 -0.00058227 -0.00100765 0.00044435
C 7.87936203 3.99796434 17.81842103 0.00654176 -0.00364299 0.00539905
C 9.62882315 2.66506035 13.69234474 0.00310976 -0.00403496 -0.00028292
C 1.11593328 6.54969992 27.28341201 0.00306546 0.00045641 -0.00616379
C 23.01461372 13.25648523 21.23283230 0.00135721 -0.00245531 0.00099097
C 11.11477493 3.72506631 23.94889512 0.00554557 -0.00282053 0.01020837
C 20.88743287 13.01663345 1.66219514 -0.00463687 0.00329958 0.00011423
C 5.55726586 10.34754758 15.06163131 -0.00064223 0.00071458 -0.00029564
C 9.92794190 22.80761022 25.91755175 -0.00200004 -0.00244435 -0.00445469
C 7.36494259 4.76127774 16.78825417 -0.00180987 0.00541858 -0.00459909
C 9.11152787 1.82634755 14.72975696 0.00641845 -0.00482559 -0.00028466
C 0.47651950 7.28807732 26.30402631 0.00218122 -0.00090708 -0.00009771
C 23.52269778 12.02440060 21.78157547 -0.01303359 0.00882551 -0.00109933
C 11.85353061 4.39799036 24.98614445 0.00310827 -0.00253754 0.00245812
C 20.36798094 12.00981139 2.46345071 0.00474050 0.00408300 0.00870563
C 6.67640107 10.08940285 14.18658880 0.00017384 0.00541369 0.00042089
C 10.28694588 22.68025657 24.58065364 -0.00353438 -0.00121649 0.00439337
C 6.83173365 5.95450053 17.10027820 -0.00304787 -0.00246655 -0.00578081
C 9.66965647 0.78974557 16.82813516 0.00194097 0.00295523 -0.00137694
C 23.32268267 7.72362993 27.48494989 -0.00197975 -0.00496409 -0.00400473
C 22.94960942 10.11656042 23.11871287 -0.00432046 -0.00510575 -0.00103116
C 11.77952873 5.10514862 27.29662840 -0.00480461 0.00220002 -0.00541718
C 19.42435841 13.55207423 4.20464462 -0.00032612 0.00031254 0.00307113
C 8.38124213 10.13940152 15.91678292 0.00378786 0.00175105 -0.00332747
C 9.98473275 21.02962718 22.86583315 -0.00074141 -0.00419163 0.00173418
C 6.02990371 6.59840133 14.77254400 -0.00094395 0.00890604 0.00038871
C 12.19715144 23.72171697 14.64268244 -0.00582664 -0.00598493 -0.00335814
C 22.18860113 8.73252299 27.49493039 0.00970366 -0.00130192 -0.00577616
C 18.72431451 24.72267552 20.63607773 0.00064240 0.00311155 0.00209477
C 3.13346228 9.07015094 18.82651324 0.00238129 0.00018006 -0.00295542
C 2.30551031 4.74491388 17.60650221 -0.00089079 0.00988017 0.00054671