2880
Time=40000.00000002 pbc="T T T" Lattice="39.17617527 0.00000000 0.00000000 0.00000000 28.83850751 0.00000000 -12.05234224 0.00000000 24.50057721" energy=-18400.61672175 virial="67.08977776 42.25428515 -81.58943215 42.25428515 31.63935745 -13.12388056 -81.58943215 -13.12388056 -13.32413837" stress="0.00487008 0.00150553 -0.00296577 0.00150553 0.00359552 -0.00040890 -0.00296577 -0.00040890 0.00195185" Properties=species:S:1:pos:R:3:vel:R:3
C 3.01552194 3.76676922 5.08684673 0.00029394 0.00481145 0.00179285
C 0.22469685 8.54832508 1.13789070 0.00086806 -0.00716335 0.00419569
C 6.75056474 6.02730047 0.95282276 0.00618243 -0.00587971 -0.00260727
C 9.55155431 1.19695705 5.13267989 0.00470397 0.00133375 -0.00312636
C 4.31024466 3.66816660 4.46687102 0.00370941 -0.00009620 0.00300769
C 12.17600295 8.42764497 1.61260958 -0.00426415 -0.01077175 -0.00100296
C 5.63620411 6.02032655 1.76241508 0.00231856 0.00328603 -0.00511836
C 36.89722474 1.22749273 4.21484876 -0.00055622 0.00604110 0.00268236
C 5.32214967 2.80633225 4.91563620 0.00327077 -0.00379101 0.00048088
C 11.09246006 7.60435168 1.15711378 0.00620168 -0.00452904 0.00060690
C 4.61300448 6.94777497 1.45448539 -0.00221167 0.00108873 -0.00878244
C -1.27857747 2.03021223 4.74534248 -0.00342493 -0.00481273 0.00055578
C 5.13706979 1.95040720 6.00317448 0.00491129 -0.00006354 -0.00264493
C 11.37147358 6.75286589 0.06095009 0.00074031 0.00083891 0.00231822
C 4.66600766 7.74794877 0.31976886 0.00324153 -0.00348834 -0.00015688
C -1.54152975 2.82677258 5.85162499 0.00480899 0.00493661 -0.01011085
C 6.90276117 2.06540039 0.82754698 -0.00613388 -0.00203322 -0.00296308
C 9.77363023 6.87351235 5.50093799 -0.00958010 0.00636104 -0.00035095
C 3.21636250 7.48031776 5.53708335 0.00163971 -0.00771644 0.00183586
C 0.27973493 2.74015625 0.55406284 0.00167565 0.00393849 0.00282641
C 5.99322097 2.96718386 0.41162216 0.00077451 0.00216006 0.00110135
C -2.16870964 7.38752648 6.12383492 0.00456366 0.00592380 -0.00391314
C 4.17279767 6.61080804 6.02558861 -0.00499687 -0.00012912 -0.00369226
C 12.59885610 1.77386747 0.14655901 0.00055635 0.00468120 0.00762567
C 1.80772237 5.09730969 3.57603520 0.00300312 -0.00170977 0.00232355
C 1.66741985 0.42413314 2.48644834 0.00542127 0.00249704 0.00690419
C 8.15285008 4.71437679 2.43036260 0.00064656 -0.00526028 -0.00073882
C 8.34363849 9.41730078 3.71593401 0.00360156 0.00531730 0.00352093
C 0.58297305 6.01026427 3.34198391 -0.00767513 0.00032764 -0.00188121
C 2.93539370 1.12195771 2.84138583 -0.00257748 0.00637334 0.00301601
C 9.38494726 3.91242538 2.63833525 0.00173746 -0.00873213 0.00220232
C 7.09048998 8.61052869 3.63806965 0.00087459 -0.00087573 -0.00117265
C 0.15694111 3.89171334 11.48840543 -0.00729716 -0.00338790 -0.00420755
C -2.35191169 8.33819763 7.16086053 0.00775070 0.00140959 -0.00174634
C 3.91409022 5.75895754 7.14646312 0.00542708 -0.00582884 -0.00363377
C 6.80053689 1.22538032 11.31460034 0.00693503 0.00282796 -0.00398060
C 1.33598273 3.74532683 10.78197824 -0.00444272 -0.00830622 -0.00251282
C 9.47210636 8.40831175 7.79159408 0.00499060 -0.00182571 0.00750051
C 2.70494554 5.92696142 7.84923247 0.00653378 -0.00666350 0.00122980
C 34.06231413 1.36328124 10.29867864 0.00203638 -0.00450751 0.00520918
C 2.29215221 2.80051039 11.14006351 0.00608053 -0.00114578 0.00228778
C 8.43861942 7.52311562 7.35305235 0.00559741 -0.00285175 0.00063952
C 1.86259307 6.91162642 7.42243572 -0.00216044 -0.00028178 -0.00402732
C -4.16585430 2.28850813 10.68566051 0.00481667 0.00634331 -0.00240003
C 2.06257006 1.91040274 12.22104405 0.00763005 -0.01064627 -0.00004863
C 8.52839665 6.71459153 6.25778469 0.00577200 0.00087821 0.00433482
C 2.10378101 7.71615207 6.31709209 -0.00011167 0.00229475 0.00044041
C -4.28674245 2.92439709 11.89518350 -0.01154633 -0.00548332 -0.00474024
C 3.85101732 2.03656618 6.61538846 0.00008651 -0.00557163 -0.00451226
C 6.58550005 6.89364345 11.66165600 0.00061349 -0.00648063 0.00238481
C 0.28034325 7.66608771 11.79817155 -0.00578451 0.00563289 -0.00408745
C -2.91613081 2.82070013 6.32972901 0.00473738 0.00340218 -0.00013558
C 2.87353643 2.87309810 6.22391633 0.00436629 -0.00154312 0.00082925
C -5.44304749 7.49380642 12.10707746 0.00229045 0.00187393 -0.00749539
C 1.30002172 6.79597804 12.18795487 0.00270046 0.00323423 -0.00052599
C 9.45492270 2.11374092 6.17569360 0.00211385 0.00148626 -0.00543059
C -0.99625236 5.09170075 9.74125473 0.00361130 0.00379458 -0.00115590
C -1.56077549 0.35367430 8.49025856 0.00553383 0.00495552 0.00711492
C 5.06299625 4.38673428 8.66899058 -0.00198880 0.00069246 -0.00250842
C 5.17959373 9.27877869 9.82364702 0.00429723 -0.00508297 -0.00464165
C -2.16164491 5.96660946 9.38720219 0.00091994 -0.00022221 0.01074488
C -0.40776748 1.24937953 8.61289896 -0.00356934 0.00499313 0.00954159
C 6.42529964 3.75471803 9.00919049 -0.00063868 0.00127187 0.00129675
C 3.97324896 8.48844479 9.56707266 0.00306693 -0.00278150 0.00213286
C -3.01461471 3.60403763 17.38335432 0.00472196 -0.00226704 -0.00259698
C -5.52374920 8.27779253 13.25846462 0.01236498 0.00144254 0.00766505
C 1.09800347 6.01566496 13.34158141 -0.00296650 0.00357942 -0.00712029
C 3.66385443 1.08743850 17.39377154 -0.00857679 -0.00658558 -0.00168731
C -1.81594390 3.51794034 16.69935681 0.00052047 0.00403896 0.00016869
C 6.19353544 8.48181332 13.96648854 -0.00540791 -0.00198162 0.00738285
C -0.16239927 6.09220104 14.05035403 -0.00206883 0.00137174 0.00578786
C 30.83518432 1.24642603 16.61005095 -0.00068798 0.01068340 -0.00242091
C -0.88546977 2.61621542 17.14102007 0.00262165 -0.00858005 0.00070273
C 5.22901055 7.57443900 13.45618366 0.00682173 0.00611313 0.00249348
C -1.13747126 6.91795217 13.61866085 0.00188820 0.00239099 0.00327824
C -7.33388020 2.11740028 16.96490544 -0.00247171 -0.00112426 0.00456664
C -1.07599685 1.77696226 18.28620901 0.00824262 0.00248895 -0.00320888
C 5.39624788 6.68978041 12.39233794 0.00531473 0.00199574 -0.00206908
C -0.92915515 7.78434445 12.50962129 0.00002217 -0.00577890 -0.00437748
C -7.51784256 2.87632339 18.19522121 0.00054997 -0.00260188 -0.00524480
C 0.79338330 2.05167444 12.81957278 -0.00526664 0.00092037 -0.00009035
C 3.66762615 6.70054637 17.90438259 -0.00260804 0.00502020 0.00674719
C -2.78396372 7.47024342 17.71297163 -0.00906461 -0.00641497 -0.00566359
C -5.45551467 2.76038450 12.62510748 -0.00357073 0.00386030 0.01023980
C -0.09850690 3.08109532 12.57852462 0.00459702 -0.00957428 0.00113490
C -8.35898939 7.42874203 18.38828372 0.00142028 -0.00114302 0.00302949
C -1.87715100 6.56844328 18.18831289 0.00573118 -0.00050276 -0.00666610
C 6.69142171 1.99167985 12.42346019 -0.00051998 -0.00086699 -0.00174852
C -4.13149167 5.07633122 15.76485950 0.00258259 0.00576644 0.00295280
C -4.22670711 0.34131235 14.36588003 -0.00579035 0.00775075 -0.00612086
C 2.11267354 4.39656104 14.83545246 0.00432869 0.00986297 0.00499037
C 2.29641338 9.28543328 15.93756590 -0.00450400 -0.00712441 0.00774102
C -5.31919659 5.93390152 15.64435701 0.00083535 0.00843241 0.00338070
C -3.05188103 1.21362561 14.21146245 0.01166130 0.00100581 0.00716606
C 3.20148821 3.36981423 15.01201344 0.00338810 0.00096467 0.00596142
C 1.12985171 8.39625707 15.83783815 -0.00002087 -0.00059216 -0.00239068
C -5.88216588 3.62889005 23.69198670 0.00834630 -0.00426182 0.00137633
C -8.54535206 8.35165616 19.43210606 0.00900066 0.00025194 0.00503614
C -2.13551508 5.90899057 19.36181502 -0.00061076 0.00012997 -0.00061167
C 0.72418851 1.03765885 23.45621244 0.00303906 0.00167983 0.00101533
C -4.69841333 3.49867913 22.96792661 -0.00943543 0.00039046 0.01113668
C 3.07021653 8.50880877 19.95677066 -0.00584959 0.00333389 0.00641018
C -3.31175547 6.10677285 20.07019019 0.00534160 -0.00265076 -0.00005872
C 27.82661354 1.13594341 22.84820991 0.00006730 0.00345236 -0.00096845
C -3.65696362 2.82375287 23.50029014 0.00219962 -0.00361961 0.01202815
C 2.11045911 7.63437858 19.54121516 -0.00244014 0.00352501 0.00099308
C -4.24386372 6.98730400 19.54436025 -0.00532330 0.00387032 -0.00096694
C -10.33253083 2.04609611 23.24086043 0.00382996 0.00215587 -0.00165982
C 8.15316843 1.95450894 0.14513223 -0.00090480 0.00001636 0.00201759
C 2.42934660 6.68790837 18.56162011 0.00336391 -0.00927795 0.00225425
C -4.04116533 7.66933338 18.34544276 -0.00447998 0.00636563 0.00314163
C -10.59354166 2.90052014 24.29443065 0.00864321 -0.00087222 -0.00293568
C -2.29981171 1.88301070 18.95303661 -0.00421898 -0.00131539 -0.00061043
C 0.60860735 6.71639205 23.95950358 0.00206019 -0.00114596 0.00151698
C -6.21497939 7.77057546 24.06247259 -0.00058443 0.00268003 -0.00296390
C -8.66709884 2.70203478 18.90930442 -0.00073181 -0.00827452 0.00561133
C -3.27724078 2.83541026 18.54025029 -0.00187219 0.00019060 0.00154610
C -11.59307144 7.73842274 24.47420146 -0.00376885 -0.00209482 -0.00171776
C -5.22820028 6.85437232 24.33063553 -0.00116032 -0.00629492 -0.00515645
C 3.41480745 2.03651032 18.43327283 0.00359834 0.00105681 -0.00155154
C -7.07696595 4.88025091 22.03828441 0.00492020 0.00118270 -0.00045573
C -7.62084603 0.26493163 20.75661122 0.00634751 -0.00158825 -0.00314341
C -1.01342021 4.48565521 21.07005009 -0.00532143 0.00439428 0.00097018
C -0.44525939 9.41078825 21.90790558 -0.00032713 -0.00141987 -0.00162939
C -8.04069650 6.00203720 21.83174624 -0.00180331 -0.00189316 0.00582368
C -6.32842619 0.88011971 21.11174189 -0.00043924 0.00065660 0.00222859
C 0.12308600 3.56251783 21.34944959 -0.00705485 0.00381053 0.00511018
C -1.61602339 8.53465081 21.71043138 -0.00235647 -0.00450585 -0.00045409
C 3.10848049 13.42357703 5.37717265 -0.00140140 0.00423283 0.00254466
C 0.47344029 18.00982531 1.04346981 0.00190326 0.00516494 0.00278318
C 6.93929876 15.44173523 1.25112785 -0.00414360 0.00856403 0.00312595
C 9.64660048 10.80135317 5.24025696 -0.00086946 -0.00436858 0.00060033
C 4.33908694 13.35429547 4.72060829 0.00380575 -0.00938988 -0.00212722
C 12.38948359 18.19046003 1.68071164 -0.00560456 -0.00385950 -0.00594458
C 5.74809811 15.37724503 1.87159285 -0.00373456 0.00489551 0.00227584
C -2.09612332 10.78373871 4.61373591 -0.00139593 0.00230571 -0.00208365
C 5.36012490 12.49803637 5.12700589 0.01069184 -0.00678535 0.00201270
C 11.40672798 17.24687092 1.34691471 -0.00621002 -0.00449548 0.00430873
C 4.75013845 16.30283999 1.48992352 0.00823800 -0.00175290 0.00448655
C -1.21451842 11.74253926 4.88427620 -0.00434695 -0.00574535 0.00079896
C 5.18640203 11.70180080 6.23960251 0.00282613 0.00311326 -0.00292520
C 11.71591429 16.23587416 0.41309519 0.00787987 0.00298782 -0.00594323
C 4.84734975 17.17045147 0.39999568 -0.00294033 -0.00292773 -0.00608420
C -1.38435230 12.59644147 6.05220322 -0.00470969 0.00093483 -0.00515906
C 6.67525395 11.53320719 0.53583427 -0.00440075 0.01220138 -0.00622934
C 9.99864032 16.27058968 5.97054859 0.01073004 -0.00000529 -0.00015276
C 3.20908912 17.28156146 5.64178945 0.00067157 -0.00613877 -0.00147067
C 0.40301607 12.43877423 0.58268326 -0.00380444 0.00299072 -0.00114085
C 5.81493819 12.55051779 0.19850696 -0.00168242 -0.00206523 0.00539940
C -2.27273768 17.17279501 6.36910889 -0.00085975 -0.00182568 0.00662927
C 4.26256899 16.47004725 6.00971505 0.00259826 0.00059916 -0.00439136
C 12.51063622 11.60269602 0.16599813 0.00234747 -0.00220425 -0.00379767
C 2.02160171 14.78483945 3.67522571 0.00123488 -0.00047373 0.00001443
C 1.51216991 9.80990115 2.77561515 -0.00553150 -0.00552888 0.00961230
C 8.31420918 14.17343015 2.72591824 0.00500578 -0.00971478 -0.00151959
C 8.45969964 19.09978652 3.57846873 0.00201786 0.00669892 -0.00452268
C 0.93619013 15.81069136 3.43821382 0.00510184 0.00238408 -0.00069849
C 2.80606693 10.50733611 2.96212566 0.00112286 0.00364941 -0.00508337
C 9.56834003 13.41715460 2.92105813 0.00165738 0.00047668 0.00190910
C 7.33015473 18.19668464 3.24346288 -0.00257186 -0.00450394 0.00596956
C 0.02472090 13.52851762 11.46403224 -0.00831337 -0.00188897 -0.00092904
C -2.60491420 18.10815087 7.39726768 0.00668151 0.00621104 0.00446359
C 4.10489510 15.56606729 7.14366641 0.00624840 0.00098954 0.00518365
C 6.46161230 10.69606120 11.33367936 0.00327322 0.00238963 0.00340838
C 1.29594670 13.46688833 10.75325481 0.00420628 -0.00568921 0.00024845
C 9.44061055 18.15225201 7.94541758 0.00474340 -0.00506971 0.00176402
C 2.90823892 15.61759134 7.84348414 -0.00062604 0.00088890 -0.00770590
C -5.20255988 10.51886827 10.73567600 -0.00375997 0.00483047 -0.00170630
C 2.27107715 12.57484190 11.16244753 0.00718470 0.00500458 -0.00112440
C 8.51427592 17.16600738 7.63414830 0.00325694 0.00073664 0.00198610
C 1.87288844 16.44382691 7.48137567 0.00359331 -0.00135702 0.00146275
C -4.23841792 11.34381549 11.23015730 -0.00775590 0.00204104 -0.00648836
C 2.09192390 11.79494714 12.29113743 0.00085066 0.00275162 0.00607903
C 8.77273476 16.21902407 6.60734694 -0.00499858 0.00231664 0.00169553
C 2.01527739 17.31351737 6.32631716 0.00122373 0.00107476 -0.01146655
C -4.45650286 12.16887355 12.35955443 -0.00107027 0.00742883 0.00765105
C 4.00619533 11.81244085 6.95817573 0.00075807 -0.00439854 0.00636967
C 6.49905157 16.41713545 11.75363190 0.00481244 0.00562464 0.00415717
C 0.12308174 17.31468773 11.77760563 0.00661250 0.00078208 0.00321099
C -2.50580637 12.36107799 6.87424088 -0.00049988 -0.00138067 -0.00328128
C 2.94377154 12.52202709 6.43781496 -0.00647271 0.00069808 0.00283810
C -5.46288481 17.34128534 12.27137706 0.00065954 0.00188941 0.00145041
C 1.11652601 16.41307517 12.23163518 -0.00350147 -0.00452669 0.00335919
C 9.59854240 11.47653803 6.43448602 0.00291396 -0.00134206 -0.00526262
C -1.39450660 14.63498199 9.89774174 -0.00356244 -0.00212488 -0.00023156
C -1.16478209 9.89922897 8.59905000 -0.00117681 -0.00534458 -0.00204302
C 5.24816818 14.21391278 8.75782172 -0.00606150 0.00310781 0.00970908
C 5.35529116 18.92166397 9.54656457 0.00197848 0.00431736 -0.00247873
C -2.69513423 15.35366252 9.82373996 -0.00866870 -0.00415114 0.00452374
C 0.11834473 10.71699718 8.68338433 0.00372136 -0.00334211 0.00399494
C 6.30301986 13.19076618 8.93324806 -0.00430868 0.00255209 0.00252596
C 4.01658311 18.28902043 9.29387209 -0.00046736 0.00306588 0.00007687
C -2.81598979 13.34729638 17.39670793 -0.00198492 -0.00199595 -0.00079761
C -5.65317169 18.12088523 13.37035108 0.00079102 0.00070064 -0.00481786
C 0.88753665 15.58574294 13.31824728 -0.00391674 -0.00072616 0.00841647
C 3.56401354 10.68814640 17.46486333 0.00124826 -0.00787356 -0.00576083
C -1.58468341 13.30186167 16.69823371 0.00124859 0.00054313 -0.00850730
C 6.08423864 18.09911956 13.94722974 -0.00575557 0.00351648 -0.00865378
C -0.33715458 15.70861110 13.94944912 -0.00345532 -0.00152298 -0.00003442
C 30.86189290 10.65731271 16.61033335 0.00246940 -0.00473912 -0.00141543
C -0.61884714 12.44129884 17.20422360 0.00557091 0.00678350 0.00768408
C 5.07826326 17.28434748 13.51614414 -0.00503758 0.00866016 -0.00198008
C -1.22989547 16.69013145 13.66751742 -0.00282656 -0.00273396 -0.00029879
C -7.24576690 11.44663887 17.08317294 0.00403770 0.00458938 -0.00069492
C -0.80367432 11.59274539 18.34342072 0.00471850 0.00888488 0.00423376
C 5.33050477 16.40263874 12.43489382 0.00515779 -0.00317719 0.00556737
C -1.01709732 17.48487226 12.56969269 -0.00545987 0.00464155 -0.00507821
C -7.48087387 12.24427627 18.21643009 0.00178559 -0.00199176 -0.00241500
C 0.79130853 11.74076932 12.85301185 0.00329036 0.00181954 -0.00863591
C 3.73546625 16.15149430 18.18577071 -0.00513089 0.00168333 0.00655926
C -2.88497781 17.40858267 18.04423497 -0.00591601 0.00715521 -0.00263944
C -5.70233349 12.00131323 13.04138809 -0.00028983 -0.00360287 0.00318943
C -0.21037853 12.57255229 12.35107699 0.00623822 0.00165056 -0.00105326
C -8.50247646 17.28091468 18.34946531 -0.00472726 0.00249872 0.00052310
C -1.87771056 16.50152787 18.41619631 -0.00119949 -0.00525261 -0.00418499
C 6.31664251 11.62939706 12.35300956 0.00276906 -0.00096548 0.00240233
C -4.06330956 14.71323625 15.82868631 -0.00509437 -0.00128500 0.00730924
C -4.39782275 9.77091685 14.77874703 0.00436179 -0.00553701 0.00233605
C 2.07234845 14.36837122 14.92154531 0.00533414 0.00369860 0.00394759
C 2.36703253 18.84822888 15.81485861 0.00688638 -0.00498849 0.00697830
C -5.35543461 15.44009628 15.60740122 -0.00726587 -0.00475805 0.00278013
C -3.19457311 10.64262819 14.91308315 0.00781310 0.00131624 -0.00895779
C 3.24928004 13.43835442 15.03211741 -0.00073508 0.00356182 0.00297813
C 1.41080120 17.71087827 15.63446190 0.00165729 0.00037797 -0.00090491
C -6.06169935 13.32506718 23.54555108 0.00472796 0.00086713 -0.00390651
C -8.69171159 18.15379185 19.42672505 -0.00220776 -0.00600372 -0.00373397
C -2.14042117 15.60567052 19.46584263 -0.00589243 0.00671285 0.00391604
C 0.67120854 10.79176757 23.49048268 -0.00154797 0.00358372 0.00429539
C -4.86126090 13.15928328 22.86438127 -0.00045858 -0.00315887 -0.00275901
C 3.07725796 17.97890670 20.17766059 0.00522722 0.00012838 0.00336733
C -3.34450943 15.76539160 20.18781240 0.00404264 -0.00153793 0.00692865
C -11.10644683 10.77477998 22.91689687 -0.00804178 -0.00733143 -0.00687127
C -3.90287695 12.22509454 23.23170261 0.00316743 -0.00189657 -0.00538515
C 2.20935448 16.99165837 19.85828189 -0.00244110 -0.00569958 -0.00569209
C -4.32870018 16.62744240 19.72575508 -0.00874933 0.00558052 -0.00809239
C -10.20253749 11.65167122 23.33383100 -0.00199800 0.00180982 0.00020541
C -4.16054117 11.34307454 24.29424140 -0.00398301 0.00435540 -0.00026829
C 2.46752574 16.07492868 18.80330977 0.00581764 0.00298546 -0.00198441
C -4.21509267 17.35818232 18.54209693 0.00670614 -0.00520535 -0.00365352
C -10.40131994 12.49071761 24.45914812 0.00259481 0.00224280 0.00225318
C -2.10208083 11.67223360 18.92240365 -0.00163028 0.00370099 -0.00705210
C 0.87155989 16.27403015 24.29074756 -0.00811442 -0.00174683 0.00245579
C -6.02211411 17.13281087 24.17735416 -0.00136052 0.00375679 0.00020244
C -8.69028218 12.22192554 18.85205302 -0.00687430 0.00740951 0.00278666
C -3.05789307 12.45645861 18.40969384 -0.00842793 -0.00163859 0.00038295
C -11.41480388 17.18785651 24.46980047 -0.00071235 0.00724030 -0.00269494
C 7.05947084 16.35828235 0.11222479 0.00138488 0.00046444 0.00126415
C 3.46240955 11.48959094 18.62258752 -0.00604895 -0.00240783 0.00671996
C -7.17277161 14.71077921 21.96344335 0.00523976 0.00745582 -0.00120439
C -7.36781839 9.74839964 20.96529518 0.00380457 -0.00924032 0.00698537
C -0.81863861 14.30439579 21.04825501 -0.00798135 0.00155234 0.00159235
C -0.54626336 19.08335569 22.05132502 0.01051774 0.00034323 -0.00753241
C -8.29057569 15.75577188 21.78382781 -0.00257768 -0.00209042 -0.00259123
C -6.30081466 10.76242647 21.10680612 0.00107432 -0.00113198 -0.00463468
C 0.26210844 13.25130857 21.22328337 0.00449309 0.00111928 -0.00259024
C -1.73522790 18.21844736 21.83894096 -0.01307883 -0.00215832 0.00221795
C 3.00505982 22.98467225 5.05995799 -0.00059757 -0.00018017 0.00683012
C 0.55126243 27.76651815 0.93937965 -0.00291594 -0.00385143 0.00025869
C 7.03259149 25.06923876 1.00532526 -0.00064910 -0.00186928 0.00504024
C 9.64128592 20.36230343 5.26921730 0.00232557 0.00000268 0.00291106
C 4.26725561 22.84474629 4.41922655 0.00039392 0.00456087 0.00080545
C 12.41580406 27.78514037 1.77204909 0.00057142 0.00314909 -0.00022832
C 5.77584291 25.14989271 1.63256699 0.00192068 -0.00176891 -0.00308940
C 36.77291416 20.16603478 4.75305903 0.00320516 -0.00816757 -0.00176794
C 5.32878743 22.04710369 4.84646995 0.00039589 -0.00333977 -0.00271640
C 11.43219326 26.98444878 1.25522249 -0.00437679 0.00529326 0.00640743
C 4.73215362 25.91224714 1.07519325 -0.00503092 0.00882578 -0.00302120
C -1.44728243 21.13137054 5.05394737 0.00806835 -0.00610608 0.00674568
C 5.09505331 21.24264064 5.97446834 -0.00494708 -0.00253628 -0.00086154
C 11.62127372 26.02579399 0.16418939 0.00338935 0.00415658 -0.00366170
C -6.99456612 26.72165161 24.48728417 0.00565647 0.00615600 -0.00037052
C -1.63533107 22.05275008 6.08326594 0.00130548 0.00619703 -0.00054648
C 6.72679213 21.44995634 0.49234809 -0.00271974 -0.00442098 0.00917591
C 9.48744613 26.03083958 5.62149893 -0.00264424 -0.00148202 0.00241888
C 3.14667778 26.67307665 5.31180050 -0.00197045 0.00260493 -0.00430278
C 0.34211065 22.11950739 0.49836015 -0.00031805 0.00679469 0.00041920
C 5.75809861 22.36108705 0.00073654 -0.00436602 -0.00759940 0.00397811
C -2.54114569 26.77607559 5.86157141 0.00232273 -0.00220801 0.00076099
C 4.17207803 25.95671252 5.83069261 -0.00536262 0.00477404 -0.00150494
C 12.57842689 21.14393131 0.36447611 0.00336171 0.00177050 0.00307420
C 1.68492728 24.27245505 3.51965539 -0.01054513 -0.00927069 -0.00443626
C 1.71053999 19.51558453 2.58804267 -0.00239465 -0.00426655 0.00171467
C 8.17190086 23.75828923 2.68381579 -0.00113902 0.00265411 0.00686639
C 8.40685953 28.56072156 3.51714479 -0.00069883 0.01301971 0.00420683
C 0.57439674 25.29433271 3.32440751 -0.00131650 -0.00118144 -0.00467600
C 2.94574291 20.33838924 2.62436876 0.00142324 -0.00599921 0.00421759
C 9.37175969 23.03235676 2.90467570 -0.00483991 -0.00513303 0.00041903
C 7.27207043 27.71923102 3.24380016 0.00049302 0.00751917 -0.00224941
C -0.05406261 22.93683474 11.24953948 -0.00587666 -0.00130367 0.00175278
C -2.66215683 27.69506267 6.94999283 -0.00330744 -0.00279271 0.00512790
C 3.96182801 25.17374969 7.01524220 0.00723379 0.00528718 0.00554609
C 6.63377253 20.18564982 11.17858331 -0.00261802 -0.00145262 -0.00182784
C 1.24458480 22.95731744 10.63184436 -0.00667179 -0.00484107 0.00129270
C 9.07809315 27.74638715 7.76173703 0.00144048 0.00631444 0.00181573
C 2.70500850 25.39196677 7.64019683 -0.00005659 0.00471237 0.00535040
C 33.90692294 20.58560436 10.46988511 0.00271178 -0.00211747 -0.00535482
C 2.17690647 22.01624318 10.98797122 0.00456162 0.00628683 -0.00262101
C 8.10005221 26.83219392 7.44195501 -0.00383920 0.00035142 0.00218570
C 1.74829305 26.18857266 7.08253028 -0.00535186 0.00592126 0.00058966
C -4.29144541 21.45421223 10.97075638 -0.00346474 -0.00108508 0.00271106
C 2.00002084 21.27264769 12.13931082 -0.00512331 0.00272702 -0.00519499
C 8.24928420 25.96127882 6.29899467 -0.00044696 -0.00525628 -0.00220960
C 1.87769864 26.94921511 5.92404137 -0.00262556 0.00310359 -0.00768348
C -4.38979563 22.16873145 12.15838228 -0.00388341 -0.00397622 -0.00540342
C 3.90939235 21.38280837 6.69283090 -0.00064516 -0.00207279 -0.00002315
C 6.87291122 26.27525373 11.70972542 -0.00796615 0.00352886 -0.00455381
C 0.08881066 26.67841878 11.44035669 -0.00356611 0.00175902 0.00873563
C -2.81667229 21.88185559 6.87444815 -0.00079908 -0.00240852 0.00119429
C 2.84337040 22.10156539 6.11239629 -0.00244659 -0.00281001 0.00666385
C -5.59815305 26.91803035 11.85896935 -0.00423175 -0.00269525 -0.00608977
C 1.06875411 25.87752950 11.89159972 -0.00729344 -0.00073048 0.00482530
C 9.33435402 21.29382157 6.24862514 0.00656705 0.00483895 0.00289562
C -1.24608229 24.24834875 9.64880110 -0.00191689 0.00164587 0.00059138
C -1.56132112 19.68160598 8.81670446 0.00454684 -0.00146075 -0.00079699
C 4.93552449 23.74153003 8.62341364 -0.00194191 0.00547748 -0.00000106
C 5.50927442 28.68873442 9.73847054 -0.00696502 -0.00799370 -0.00724360
C -2.54476423 24.95696793 9.35166179 -0.00187969 0.00162482 0.00027847
C -0.39593493 20.57350227 8.95868777 0.00100373 -0.00248716 -0.00195840
C 6.05156968 22.85304893 8.87416704 -0.00272263 0.00689364 -0.00083058
C 4.19677902 28.00154201 9.58907779 0.00109642 -0.00257301 0.00406171
C -3.12288094 23.11840355 17.33691776 -0.00527951 0.00216198 0.00422697
C -5.63328662 27.69762083 13.00447673 0.00004439 -0.00409497 -0.00531234
C 0.94982810 25.07731448 13.04341539 0.00516433 0.00226312 -0.00631786
C 3.63356622 20.22390775 17.48138151 0.00332352 0.00139282 -0.00861401
C -1.83642578 22.99396887 16.68725207 0.00009369 -0.00029545 -0.00527271
C 6.32418682 27.70939058 14.12168388 0.00110697 -0.00720082 0.00114371
C -0.33041875 25.06486328 13.67175095 0.00330930 0.00099561 0.00435329
C 30.83871951 20.33032516 16.80136263 -0.00094947 0.00278976 -0.00045217
C -0.85547597 22.13008531 17.09409970 0.00781113 -0.00542075 -0.00092660
C 5.39455263 26.81881277 13.58276278 -0.00349081 0.00398490 -0.00256155
C -1.28141811 25.97071900 13.28796659 0.00023855 0.01116373 0.00244235
C -7.38556488 21.22765048 17.21344588 -0.00461961 -0.00336039 0.00082788
C -1.01070126 21.30843374 18.24733454 -0.00387849 -0.00094448 -0.00084590
C 5.67013437 26.03589959 12.42981879 -0.00065103 0.00355363 0.00344824
C -1.09114479 26.82978760 12.13019374 0.00153169 -0.00046036 0.00134049
C -7.46578599 21.95876438 18.43216003 0.00381182 0.00148525 -0.00242371
C 0.78309925 21.33945861 12.85737811 -0.00279070 0.00063966 0.00003255
C 3.80290302 26.09555380 17.94181362 -0.00421058 0.00220872 -0.00271099
C -2.80994497 26.77075041 17.57064515 0.00117837 0.00647148 -0.00013364
C -5.62710113 22.07285386 12.86709999 -0.00178765 -0.00392440 -0.00220379
C -0.26095235 22.06023442 12.33899691 0.00255435 0.00583230 0.00568101
C -8.56582792 26.81793926 18.07356809 -0.00555469 -0.00757155 -0.01024171
C -1.85944802 25.94539907 18.09407452 -0.00574386 -0.00061816 -0.00449949
C 6.41263469 21.12900127 12.21501612 0.00431398 -0.00017196 -0.00132330
C -4.25060554 24.44194331 15.75394348 0.00811673 0.00010879 -0.00393117
C -4.51925037 19.62060418 14.83874157 -0.00259855 0.00176107 -0.00721954
C 2.30494220 23.72350371 14.59780008 -0.00276643 0.00080926 0.00068346
C 2.61609988 28.48087477 15.77891529 -0.00056227 -0.00116316 0.00037526
C -5.58997995 25.10404567 15.46422370 0.00070667 -0.01083758 -0.00262627
C -3.20274449 20.43258508 15.05492372 0.00134189 0.00611235 -0.00294320
C 3.51485001 22.85798572 14.68127900 -0.00197140 0.00215219 -0.00148614
C 1.43435051 27.65503800 15.64900124 0.00431523 0.00351004 0.00422938
C -6.03242129 23.10573074 23.42930316 0.00099900 -0.00443248 -0.00845795
C -8.77573409 27.72332907 19.12187212 0.00397568 -0.00329792 0.00005598
C -2.12595049 25.17641313 19.20573805 -0.00330474 -0.00340815 0.00538921
C 0.70649285 20.38928556 23.71413650 0.00152410 0.00150054 -0.00328914
C -4.78049144 23.08671795 22.83685461 0.00391673 0.00257724 0.00252115
C 3.14473721 27.74367951 20.10099956 0.00305665 0.00002209 0.00041443
C -3.39483727 25.29640562 19.82563945 -0.00178161 0.00743929 -0.00270562
C -11.18085353 20.31579672 22.94843753 -0.00018322 -0.00230868 -0.00338931
C -3.80023172 22.21546483 23.32819526 0.00500960 -0.00246266 -0.00007186
C 2.32459307 26.72490936 19.65705706 -0.00333865 -0.00055031 -0.00626337
C -4.32988839 26.20937764 19.33358815 -0.00318944 -0.00081780 -0.00264183
C -10.17590219 21.22313382 23.28561710 -0.00008472 0.00098328 0.00374591
C -4.14283839 21.28621854 24.29946245 0.00324386 -0.00225788 -0.00321953
C 2.55215110 25.88731823 18.54695681 0.00008884 -0.00158919 0.00024242
C -4.06863965 26.95249865 18.14366635 -0.00315315 0.00091932 -0.00069617
C -10.50232039 22.16706763 24.26643527 0.00690102 0.00676506 -0.00080883
C -2.24715462 21.41216331 18.89854942 -0.00230309 0.00369209 -0.00075510
C 0.84332727 26.06787776 24.02012360 0.00292982 0.00592814 -0.01025694
C -5.75288166 26.72321151 23.86379753 0.00412939 0.00317864 0.00143235
C -8.64298221 21.79168833 19.15621666 -0.00820183 -0.00680846 0.00954185
C -3.26544735 22.27372512 18.49498422 -0.00655614 -0.00473244 0.01040669
C -11.39138830 27.04011839 24.23927686 -0.00118672 -0.00122101 -0.00970409
C -4.72947687 25.90716540 24.36133313 0.00562291 0.00087567 0.00324686
C 3.35090167 21.08581528 18.51956112 -0.00200368 -0.00249858 -0.00096951
C -6.97683891 24.46396816 21.64446216 0.00283706 -0.00131962 0.00150643
C -7.41082654 19.41245721 21.06065486 0.00305977 0.00024268 0.00172397
C -0.95642104 23.80183180 20.85387583 0.00716547 0.00463482 0.00336385
C -0.52914668 28.65466607 21.86434722 -0.00029446 -0.00297991 0.00793331
C -8.32136786 25.01106232 21.11902646 0.00494889 0.00032857 -0.00200883
C -6.16274992 20.19941331 21.30448367 -0.00116381 0.00389393 -0.00328899
C 0.13434442 22.82107284 21.15940599 0.00183544 -0.00223414 -0.00217282
C -1.77833785 27.93376093 21.57695964 0.00344881 0.00327807 -0.00020964
C 16.40907400 3.72405752 5.33786595 -0.00037208 -0.00068149 -0.00473261
C 13.34057088 8.50436430 0.93917937 -0.00375207 0.00076830 0.00434295
C 19.96672718 6.12757511 0.91669951 0.00505438 0.00566534 0.01227865
C 22.69019040 1.14406633 4.99902008 -0.00014655 0.00047917 0.00407851
C 17.65504202 3.59678466 4.67242238 0.00233303 0.00164991 -0.00155180
C 25.19924426 8.39113551 1.59355490 -0.00780014 0.00058819 -0.00100156
C 18.67699095 6.11469642 1.55418661 -0.00216763 0.00098230 -0.00433786
C 10.80136378 1.21420021 4.40103051 -0.00018665 0.00511136 0.00010907
C 18.52749917 2.56129272 4.93175190 0.00244652 -0.00194449 0.00358698
C 24.22365024 7.49892777 1.23111352 -0.00048742 0.00133206 0.00574817
C 17.66763648 6.98537275 1.24486189 0.00423780 -0.00427688 -0.00206253
C 11.77344766 2.16348198 4.70362347 -0.00299010 -0.00116407 -0.00189428
C 18.28496577 1.71862282 5.99212130 0.00446229 -0.00508984 0.00531842
C 24.37242180 6.63902751 0.10941033 0.00180017 -0.00095583 0.00274787
C 17.81275301 7.80808879 0.05767095 -0.00238517 -0.00292659 0.00025365
C 11.68504254 2.93815635 5.95664941 0.00101075 0.00787068 -0.00017338
C 19.67219398 2.35261055 0.43051550 0.00778224 0.00194590 0.00243728
C 22.75319921 6.83234332 5.56324271 0.01037833 0.00527078 -0.00526448
C 16.39524166 7.56918413 5.69597456 0.00236202 -0.00390793 0.00141301
C 13.45391820 2.75579054 0.56637212 0.00149040 -0.00097439 -0.00444124
C 6.75614531 3.27268219 24.43032590 -0.00664887 0.00242685 -0.00288286
C 10.68497866 7.86223206 5.76287058 -0.00140554 -0.00169220 -0.00130000
C 17.41096305 6.73717116 6.12927008 0.00204976 0.00553834 -0.00069923
C 25.29814615 1.93428408 0.03732839 -0.00567698 -0.00244990 -0.00151464
C 15.22995467 4.95394935 3.55501759 -0.00040564 0.00223432 0.00289986
C 14.77017714 0.49347153 2.63534361 0.00113697 -0.00457828 -0.00210255
C 21.20206162 4.82137496 2.54722165 -0.01113668 0.00604005 -0.00464071
C 21.63212620 9.48780751 3.50569631 -0.00354642 0.00237241 0.00224211
C 13.94987084 5.79447583 3.41506709 -0.00725704 -0.00308356 0.00272337
C 15.95493919 1.40523729 2.84070122 -0.00446856 -0.00420191 0.00095758
C 22.55180220 4.16021890 2.79729332 -0.00361530 0.00058233 -0.00053480