2880
Time=48000.00000003 pbc="T T T" Lattice="39.29985694 0.00000000 0.00000000 0.00000000 28.87849176 0.00000000 -12.01533522 0.00000000 24.35034892" energy=-18398.79490691 virial="-35.77116129 17.05687515 -57.39438377 17.05687515 -17.92608281 10.84832813 -57.39438377 10.84832813 -5.72283705" stress="0.00115651 0.00064253 -0.00213643 0.00064253 0.00193137 0.00047702 -0.00213643 0.00047702 0.00233086" Properties=species:S:1:pos:R:3:vel:R:3
C 3.18572342 3.67232295 5.08146395 0.00553453 0.00183401 -0.00548269
C 0.31326360 8.41448630 0.91326678 0.00645099 0.00612481 -0.00058485
C 6.90674729 5.79134429 0.87031120 0.00865306 0.00049799 0.00461262
C 9.64365436 1.04049232 5.04972888 0.00341295 -0.00621686 0.00174257
C 4.37676047 3.50304760 4.32328407 0.00159394 -0.00736514 0.00271128
C 12.40793411 8.21889764 1.75170197 -0.00695997 -0.00646430 0.00114861
C 5.68677867 5.85445493 1.58533884 0.00117333 0.00563363 -0.00093449
C -2.09273495 1.01289382 4.48194744 -0.00210973 -0.00055082 -0.00345117
C 5.35790511 2.65798940 4.78804540 -0.00254093 0.00202788 -0.00069761
C 11.44520660 7.36244232 1.37589406 -0.00318239 -0.00506887 0.00113810
C 4.63470889 6.65069858 1.18690082 -0.00034067 0.00412360 -0.00067392
C -1.15060631 1.90277942 4.82868405 0.00442228 -0.00061277 0.00806741
C 5.18031332 1.88263713 6.00493674 -0.00207329 0.00419636 0.00722074
C 11.59471103 6.57845198 0.23147098 -0.00649515 0.00517633 -0.00464387
C 4.84490292 7.53023481 0.09454230 -0.00054569 0.00176762 -0.00591582
C -1.48788726 2.86007985 5.88692842 0.00052384 0.00128621 0.00024205
C 6.97771923 1.98796600 0.56086882 0.00088899 0.00265468 -0.00678374
C 9.94639665 6.79991475 5.44891843 0.00726375 0.00063424 0.00340699
C 3.23608873 7.40954226 5.43427630 -0.00355803 -0.00003227 -0.00139460
C 0.46520119 2.77423191 0.50300289 0.00218468 -0.00542649 -0.00175504
C 5.85744274 2.65319765 0.03586365 0.00277422 0.00597538 0.00387227
C -2.28372059 7.50575467 6.04961671 0.00362106 0.00040037 -0.00397032
C 4.34496619 6.83532747 5.96301169 -0.00277361 0.00234376 -0.00268692
C 12.58831256 2.05439295 0.32009532 -0.00185716 -0.00384509 -0.00303572
C 1.90186425 4.96525851 3.40729321 -0.00848643 0.00011554 0.00293691
C 1.40493118 0.16341456 2.49305762 -0.00389313 -0.00573332 -0.00007651
C 8.17150971 4.44817888 2.50515819 -0.00367274 -0.00058403 0.00364274
C 8.61230910 9.19932502 3.45311004 0.00066093 -0.00148621 -0.00085096
C 0.68801545 5.88474138 3.19664829 0.00073189 -0.00342582 0.00430078
C 2.61295075 0.99329579 2.67656425 -0.00276514 -0.00796340 0.00131074
C 9.48451163 3.73886240 2.75901425 -0.00031832 -0.00000365 -0.00095147
C 7.61810064 8.15916280 3.31512600 0.00017406 0.00343228 0.00553862
C 0.18497277 3.72489832 11.36801307 0.00361430 -0.00303536 0.00082024
C -2.46893815 8.35904431 7.16095342 -0.00544119 0.00320938 -0.00509814
C 4.20799616 5.98376976 7.08976402 -0.00230053 0.00219008 -0.00179593
C 6.81073499 1.25524105 11.28381894 -0.00259010 -0.00092061 0.00006261
C 1.46546144 3.62721835 10.61801945 -0.00748603 0.00019852 -0.00355483
C 9.39030888 8.35555083 7.78587386 0.00081338 -0.00691899 -0.00031726
C 2.95334910 5.98578999 7.73801482 0.00335795 -0.00216587 -0.00125096
C 34.02150215 1.10664423 10.57804668 0.00326079 0.00569365 -0.00767929
C 2.44789847 2.74396077 11.02632231 0.00498180 -0.00432721 -0.00366798
C 8.49645523 7.40483573 7.35609967 0.00005678 -0.00965731 -0.00328753
C 1.85779679 6.66108152 7.27660661 0.00874301 -0.00530425 0.00043715
C -4.34674800 2.08629588 10.97323948 0.00862762 0.00109690 0.00031787
C 2.32871994 1.97640257 12.22456242 0.00167660 -0.00304370 0.00246435
C 8.73485084 6.64927867 6.19578267 0.00854418 0.00028622 -0.00248141
C 1.92074345 7.44832902 6.02276025 0.00604123 -0.00128870 -0.00855240
C -4.53750436 2.88109702 12.08758277 0.00325124 -0.00078574 -0.00513839
C 4.01756195 2.17343216 6.75663888 -0.00030360 0.00307032 0.00256773
C 6.73307965 6.90380433 11.61416219 -0.00317730 0.00039204 -0.00303062
C 0.21965502 7.45431751 11.49246977 0.00175838 0.00342050 0.00291798
C -2.70056112 2.69767011 6.59993793 0.00792073 0.00337540 0.00194012
C 3.02479521 2.97318882 6.25985661 -0.01177771 0.00528711 0.00816355
C -5.55520008 7.51374258 11.97973006 -0.00924950 0.00130857 0.00050809
C 1.21936606 6.61895157 12.02707682 0.00110889 0.00243332 -0.00960010
C 9.35034182 1.88022561 6.14945328 0.00091939 0.00153661 -0.00076673
C -1.08768604 5.07657253 9.80573751 -0.00338911 0.00089955 -0.00140846
C -1.21439459 0.30155762 8.77956703 -0.00837477 0.00413980 0.00540949
C 5.38138097 4.51293199 8.65114087 0.00657652 -0.00492893 -0.00351461
C 5.76698800 9.32795022 9.60050677 0.00473030 -0.00099429 -0.00427357
C -2.44836270 5.81338485 9.62584428 0.00368304 0.00395139 -0.00417991
C 0.03093727 1.07361906 8.89401029 -0.00401324 0.00425278 0.00080125
C 6.44008916 3.51846327 8.82032498 0.00020088 -0.00458098 0.00167521
C 4.63702435 8.40082757 9.37088408 -0.00394759 0.00476604 0.00320985
C -2.92488385 3.74374320 17.31860711 0.00101642 -0.00464288 -0.00798554
C -5.74312655 8.34296932 13.11274751 0.00505734 -0.00364019 0.00070933
C 1.06199623 5.87430696 13.25068799 0.00401005 0.00038099 0.00441661
C 3.57370626 1.02719077 17.37424619 -0.00278938 -0.00524945 0.01211428
C -1.65170461 3.62142841 16.65186743 -0.00791686 0.00497077 0.00748933
C 6.17083264 8.57617831 13.75353548 0.00453009 -0.00055787 0.00871161
C -0.16894880 6.02385545 13.93222427 -0.00236995 -0.00039933 -0.00613792
C 31.03908472 1.28658834 16.61203829 0.00321992 0.00091217 -0.00486467
C -0.73439621 2.73183977 17.13784514 -0.00070936 0.00772274 -0.00176140
C 5.17494661 7.81491544 13.24274109 -0.00109717 0.00466516 0.00007213
C -1.10937973 6.92391316 13.42074644 0.00240887 0.00162793 -0.00268177
C -7.33538358 2.19949655 17.05367279 -0.00273515 -0.00111609 -0.00507684
C -1.08453084 1.82190022 18.12389334 -0.00115120 -0.00275461 0.00023930
C 5.40994955 6.90655656 12.18085372 0.00014999 -0.00315252 0.00342645
C -0.99338808 7.68365163 12.20487477 0.00341216 -0.00161041 0.00096973
C -7.58703375 2.95439423 18.22180079 -0.00042685 0.00275690 0.00953424
C 1.10581712 1.97233484 12.81973021 -0.00195896 -0.00368649 -0.00661118
C 3.58717783 7.03536144 17.52985211 0.00550727 0.00418087 -0.00183282
C -2.77084777 7.64484026 17.84628384 0.00574043 -0.00592560 0.00232538
C -5.79888837 2.75822320 12.76488540 0.00521893 -0.00239189 -0.00108828
C 0.07086602 2.84610620 12.44303499 0.00384860 0.00789373 -0.00207264
C -8.36124701 7.48910530 18.19901263 0.00468941 -0.00508817 -0.00018220
C -1.81593443 6.73522261 18.20965592 -0.00060191 0.00012821 0.00483750
C 6.52840031 2.10338870 12.37839634 -0.00230688 -0.00099241 0.00365962
C -4.17744276 5.21089971 15.78528336 -0.00066263 0.00364966 -0.00227066
C -4.47292326 0.34502995 14.76829091 -0.00692556 -0.00167151 0.00106097
C 2.29633625 4.67172400 14.83517710 -0.00096578 -0.00249199 0.00023023
C 2.37549522 9.57312808 15.76854141 0.00022458 0.00662854 0.00298994
C -5.23536961 6.27299206 15.76031035 0.00001729 -0.00178089 0.00330244
C -3.30360876 1.24359423 15.06156916 -0.00678853 0.00100110 -0.00501315
C 3.65613187 3.95204506 15.05288105 -0.00006913 -0.00157305 0.00158452
C 1.03634364 8.83848881 15.65839588 -0.00200038 0.00444219 0.00273438
C -6.02465099 3.49453573 23.30508322 0.00027732 -0.00455442 -0.00000996
C -8.56557517 8.35390273 19.25994242 -0.00503572 -0.00767984 0.00213869
C -1.98959287 5.85862086 19.25314813 -0.00387809 0.00777510 -0.00279888
C 0.77950879 1.27887646 23.53307748 0.00037110 0.00410221 0.00427110
C -4.79676830 3.43450226 22.64915372 0.00298512 -0.00531905 0.00648212
C 3.28121389 8.59537958 19.88745623 -0.00629524 0.00144679 -0.00249332
C -3.23488985 5.80034922 19.89867261 0.00214515 -0.00356553 -0.00030411
C 28.02079512 1.14570560 22.64683518 -0.00192364 0.00240928 0.00964682
C -3.84460138 2.55931744 23.02818145 -0.00179777 0.00484094 0.00163359
C 2.28688494 7.73551388 19.48348059 0.00077396 -0.00064426 -0.00046611
C -4.27415870 6.70153901 19.57451633 0.00040378 -0.00313600 0.00086112
C -10.32111130 2.08567708 22.88449128 0.00616023 -0.00295624 -0.00081750
C -3.84219891 1.89334475 24.22014773 -0.00588418 -0.00038880 0.00525399
C 2.45922595 6.82950678 18.38511973 -0.00207552 0.00297029 -0.00147864
C -3.99112415 7.65565591 18.48816117 -0.00091509 0.00052912 -0.00284400
C -10.37229367 2.87998856 24.07144788 0.00048000 -0.00686043 -0.00270229
C -2.34411926 1.93696864 18.82025786 -0.00640227 -0.00778955 0.00134464
C 0.66740936 6.72343830 23.77453412 -0.00389300 0.00303165 -0.00548433
C -5.99919065 7.38299971 23.64084425 0.00560222 -0.00752727 0.00239302
C -8.87213888 2.69478707 18.86251144 -0.00420787 0.00141255 0.00429794
C -3.18845795 2.92387659 18.44903187 -0.00092802 0.00315591 0.00416485
C -11.50715481 7.57715632 24.14518193 -0.00198646 -0.00239352 0.00192402
C -5.01148050 6.51194205 24.03619930 -0.00307404 -0.00391723 -0.00680454
C 3.28827210 1.91699997 18.41156710 -0.00343884 -0.01225729 -0.00183029
C -7.14361190 5.02636453 21.77937637 -0.00585965 0.00175106 -0.00052923
C -7.59103451 0.10507926 20.77972198 0.00485360 0.00608665 0.00112091
C -0.71296226 4.60745734 20.93510876 -0.00153888 0.00666571 -0.00191170
C -0.82453040 9.26169418 21.98203786 0.00581991 -0.00310333 0.00809227
C -8.23111773 5.96264948 21.58639060 0.00219546 0.00456612 0.00114511
C -6.73200723 1.35766214 21.16625744 -0.00904490 0.00203763 0.00280864
C 0.61493533 3.94364033 21.08759456 0.00102356 -0.00512224 0.00515506
C -1.99781290 8.30607182 21.81273991 0.00858664 -0.00380081 -0.00494885
C 3.16976733 13.13147595 5.00756807 0.00762754 0.00281388 0.00724038
C 0.50354770 18.19333706 1.10785922 -0.00410260 -0.00326638 0.00429259
C 7.01641776 15.44414760 0.87565220 0.00034837 -0.00025731 0.00056886
C 9.70970045 10.58587102 5.07785124 0.00642288 0.00124122 0.00274963
C 4.41803345 13.02435269 4.42003745 0.00433935 -0.00057900 0.00830201
C 12.33954073 17.79296775 1.67549150 0.00357545 -0.00615488 -0.00554855
C 5.81632371 15.63732542 1.53852946 0.00492230 -0.00161346 0.00198035
C -2.04656791 10.49918962 4.67954145 -0.00045644 0.00156923 0.00033466
C 5.43075465 12.26382124 4.96708337 0.00179946 -0.00243435 0.01194607
C 11.37711079 17.00169220 1.18377148 0.00197455 0.00192125 0.00213732
C 4.77819874 16.42008657 1.05332344 -0.00467523 -0.00106365 0.00715657
C -1.02061544 11.31286461 4.99068543 -0.00116068 -0.00138728 0.00601056
C 5.11956959 11.45659232 6.05342100 0.00185675 0.00020235 -0.00483758
C -0.46560669 16.28440144 24.34011931 -0.00200807 -0.00256426 -0.00203674
C -7.04988568 17.15178806 24.24205271 0.00353688 0.00128085 -0.00017352
C -1.28018715 12.33711175 5.92580450 -0.00169645 -0.00065826 0.00675703
C 6.67249742 11.55275113 0.36614483 0.00328497 0.01001092 0.00612865
C 9.91440717 16.44612218 5.50740861 -0.00178951 -0.00650485 0.00850054
C 3.36488928 17.10810445 5.61903678 0.00700799 0.00368736 0.00101629
C 0.56618884 12.34585312 0.52425628 0.00181001 -0.00739481 -0.00475610
C -6.21713052 12.52477082 24.32547700 0.00288676 -0.00154096 -0.00154183
C -2.36904145 17.22808732 5.98824522 0.00254286 0.00345924 0.00366615
C 4.37089222 16.28616560 5.99933764 0.00442795 -0.00067041 0.00264894
C 12.42681672 11.34907122 0.34200188 0.01022050 0.00615747 -0.00259281
C 2.04477691 14.60906659 3.40432106 -0.00560534 0.01506605 0.00105212
C 1.68695127 9.66683973 2.51019551 0.00097306 0.00365266 -0.00701596
C 8.26022696 14.05069917 2.60898261 0.00094050 -0.00295288 -0.00652358
C 8.65515866 18.87296952 3.46168878 0.00220202 -0.00660810 -0.00299450
C 0.91946978 15.58758557 3.26008736 -0.00188290 0.00453755 0.00570715
C 3.11738059 10.12390422 2.66146903 -0.00283325 0.00374246 -0.00653315
C 9.38019906 13.14391539 2.90525798 -0.00417602 0.00331402 -0.00276053
C 7.37216836 18.23500915 3.06337168 -0.00021028 0.00566103 0.00710727
C -0.02787271 13.19548629 11.20915545 0.00194552 -0.00074449 0.00170539
C -2.57424056 18.00301118 7.14447283 0.00629641 -0.00265437 0.00442999
C 4.16479247 15.29151648 6.99755822 0.00255971 0.00452387 -0.00928972
C 6.93698067 10.69226788 11.17387759 0.00048181 0.00269183 -0.01022140
C 1.22320360 13.11684421 10.56015833 0.00291398 0.00908678 -0.00092905
C 9.40030802 18.10837724 7.72602467 -0.00040816 0.00343609 0.00286320
C 2.90513307 15.25530465 7.62067789 -0.00316765 -0.00298848 -0.00125719
C 34.04860090 10.63371934 10.37265928 -0.00730965 -0.00264601 0.00021112
C 2.22860025 12.24633241 10.97859465 -0.00088569 0.00716809 -0.00808291
C 8.49558133 17.13051890 7.36645263 -0.01037062 -0.00421842 0.00343588
C 1.88016846 16.05637909 7.22577631 -0.00051906 0.00694848 -0.00327141
C -4.30171879 11.51533557 10.75112423 -0.00450654 0.00350596 -0.00281519
C 2.07839389 11.35250212 12.06558918 0.00093867 0.00281863 -0.00437880
C 8.66301215 16.32632380 6.22497073 0.00072572 -0.00468675 0.00750182
C 2.08771605 16.96356232 6.19624778 -0.00347022 -0.00287176 0.00589732
C -4.37206588 12.35299461 11.89593452 0.00215909 0.00056692 -0.00254479
C 3.88664350 11.48342746 6.63779703 -0.00688422 0.00227295 0.00668351
C 6.84285483 16.46218439 11.72201182 -0.00256858 -0.00192872 -0.00284131
C 0.34108773 17.00747011 11.48486631 -0.00134044 0.00435194 0.00092743
C -2.49761171 12.40474986 6.60091944 0.00653109 0.00061902 -0.00098690
C 2.90992633 12.35747614 6.14223644 -0.00043731 0.00171289 0.00025504
C -5.18469592 17.25527448 12.00699840 0.00122061 0.01314079 0.00057409
C 1.30618805 16.19021716 12.00583780 0.00164214 -0.00127035 0.00102923
C 9.52883975 11.38714329 6.25117008 -0.00791709 0.00063701 0.00337210
C -1.20717470 14.58043349 9.59225893 0.00099279 0.00163401 -0.00043336
C -1.26526273 9.72009241 8.75147916 0.00499406 -0.00052800 0.00279040
C 5.43189287 14.03512110 8.62163762 0.00127548 -0.00751028 -0.00638088
C 5.62649767 18.57127020 9.47702383 -0.00094987 0.00220474 -0.00616068
C -2.27820984 15.55717238 9.66941630 -0.00152464 0.00169694 0.00771133
C -0.02845777 10.56288389 8.93914484 0.00493802 -0.00344947 0.00201172
C 6.70406316 13.26915522 8.81673859 -0.00130567 -0.00555618 -0.00021849
C 4.57311418 17.51569106 9.26310156 -0.00325228 0.00322451 -0.00157060
C -2.69759626 13.29667445 17.10865704 0.00011440 -0.01190914 0.00034731
C -5.34738547 18.08985665 13.10406054 -0.00961963 -0.00482710 -0.00688600
C 1.07555873 15.34096801 13.06667868 -0.00076155 -0.00326085 -0.00387026
C 3.65995715 10.91142589 17.31409204 -0.00079404 -0.00324481 -0.00072779
C -1.39681332 13.13805801 16.58421949 -0.00682999 -0.00505264 0.00776450
C 6.14008781 18.22936656 13.87398282 0.00992005 0.00420154 0.00373002
C -0.10751455 15.50534013 13.80847141 -0.00080101 -0.00707444 0.00619150
C 30.95751690 10.77586954 16.37539651 -0.00044707 0.00265492 0.00093777
C -0.46144711 12.39521990 17.21438254 -0.00924150 0.00229413 -0.00039794
C 5.29133186 17.23309741 13.47919448 -0.00302085 0.00138972 0.00562636
C -1.04831657 16.40135769 13.33386690 0.00508135 0.00407141 0.00380960
C -7.30536666 11.56753556 16.77811191 0.00852081 0.00537105 0.00435709
C -0.72729884 11.61244420 18.39763248 0.00085352 -0.00149799 0.00193457
C 5.56209135 16.41176819 12.32709357 -0.00178516 -0.00828718 0.00136000
C -0.88128591 17.18958109 12.17523587 -0.00321067 0.00042757 0.00214442
C -7.34733744 12.27690902 17.99619048 -0.00269020 0.00096022 -0.00492188
C 0.91312705 11.61480629 12.88429612 -0.00349878 -0.00684587 -0.00243815
C 3.85342793 16.73103964 17.67101667 0.00379399 0.00282357 0.00852176
C -2.93935916 17.24497458 17.46762700 0.00576176 -0.00140376 -0.00268565
C -5.50817136 12.25170083 12.67227653 0.00270805 -0.00559042 0.00057968
C -0.11209458 12.43853343 12.40960998 0.00143410 0.00334744 0.00669122
C -8.52500836 17.26635593 17.93173816 -0.00198022 0.00067619 -0.00095620
C -1.96987595 16.35514014 17.90646703 0.00188847 -0.00263178 -0.00679726
C 6.62950046 11.68714754 12.14522043 -0.00039197 -0.00489629 -0.00062992
C -3.79585263 14.70236245 15.37630857 -0.01401029 -0.00007202 -0.00136343
C -4.42778216 9.74626698 14.62147443 -0.00313180 -0.00019025 -0.00252899
C 2.11584973 14.10359784 14.81734213 0.00043156 -0.00223415 0.00484632
C 2.35941891 18.84439631 15.72130647 0.00718535 -0.00511880 0.00527443
C -4.89781007 15.73714849 15.06566372 -0.00354370 -0.00167982 0.00437824
C -3.18761947 10.60893149 14.78145888 -0.00718410 0.00132663 -0.00268302
C 3.30745284 13.24656104 15.11362581 0.00543407 -0.00690014 -0.00301445
C 1.21194197 17.88717463 15.71398594 0.00082511 -0.00284749 -0.00402843
C -5.89350596 13.29780943 23.15331410 0.00355404 0.00359044 -0.00890781
C -8.75833256 18.03473767 19.09323603 -0.00187228 0.00602764 0.00367721
C -2.21614600 15.50121341 19.05729835 -0.00392919 -0.00768362 -0.00158332
C 0.55226614 10.60492702 23.49282661 0.00581333 0.00198394 -0.01054072
C -4.65637122 13.10409817 22.49724824 0.00068004 -0.00039887 -0.00202369
C 3.24399181 18.41629854 19.83558426 0.00139323 -0.00159835 -0.00246029
C -3.43965089 15.50205951 19.77061170 0.00037599 -0.00874195 -0.00649031
C 28.14453484 10.83110492 22.55976214 0.00243315 0.01068483 0.00000026
C -3.81231073 12.08984126 22.90670690 0.00490783 -0.00099480 0.00718325
C 2.35236131 17.46343732 19.40568035 -0.00042393 0.00368206 0.00278759
C -4.36801000 16.49905078 19.37093632 -0.00357717 -0.00322505 -0.00542470
C -10.08304636 11.66486039 22.97414815 0.00243804 0.00089560 0.00129761
C -4.15389441 11.32348375 24.06638530 0.00153284 -0.00573310 0.00410557
C 2.65657713 16.60252340 18.30143627 -0.00470473 -0.00303989 -0.00058156
C -4.12265608 17.35912880 18.21923907 -0.00196968 -0.00049530 0.00388447
C -10.24814642 12.45168454 24.10761233 0.00301791 -0.00563831 -0.00064020
C -2.05366757 11.61681497 18.80643285 -0.00494417 -0.00443971 -0.00683976
C 0.77751024 16.49000211 23.71385796 0.00005184 -0.00280319 0.00060955
C -5.72718683 17.14995714 23.69220161 0.00442370 0.00126635 -0.00689629
C -8.60693365 12.35569921 18.62742908 0.00124833 -0.00502798 0.00303017
C -3.00759600 12.41281831 18.21358680 -0.00403729 0.00147657 -0.00003471
C -11.25958489 17.47489868 24.25301022 0.00144868 -0.00491400 -0.00026710
C -4.76951723 16.24447103 24.12062570 0.00219147 -0.00407858 0.00030412
C 3.55803990 11.65037667 18.47696443 -0.00472632 0.00013273 0.00081402
C -7.10458969 14.56287880 21.49193328 -0.00005074 -0.00642237 -0.00113890
C -7.36714415 9.77967765 20.76445458 0.00016202 -0.00548806 -0.00268644
C -0.94053017 14.33701443 20.78108791 -0.00185233 0.00337374 -0.01127613
C -0.79904303 18.88138103 22.07088371 0.00115482 -0.00144240 -0.00254329
C -8.30455403 15.43930245 21.21883084 -0.00285756 -0.00443663 0.00057413
C -6.31623703 10.82905312 20.89273024 -0.00250009 0.00249617 0.00060213
C 0.41544215 13.68466766 21.05128420 0.00426917 0.00597866 -0.00737584
C -2.12925515 18.13913999 22.08791716 -0.00152995 0.00035888 -0.00050558
C 3.21684110 22.99486747 5.25284395 -0.00632744 -0.00065208 0.00500389
C 0.27456769 27.43370339 0.94318657 -0.00401846 -0.00060619 -0.00297595
C 7.06419869 25.04052421 1.04070539 -0.00301592 -0.00447651 -0.00694119
C 9.79631325 20.20836267 5.12797334 -0.00514762 -0.00427723 -0.00091516
C 4.35114443 22.72132348 4.50360701 0.00493753 -0.00059748 -0.00546998
C 12.33180647 27.70141390 1.63403031 -0.00061064 0.00422694 0.00342139
C 5.77180698 25.01995228 1.66230467 -0.00020564 0.00265329 0.00064169
C -2.16158644 20.33244233 4.43471232 -0.00871084 0.00225208 -0.00240987
C 5.26129512 21.78209507 4.86524709 -0.00314589 0.00137583 0.00665656
C 11.41023596 26.80276269 1.05499501 -0.00088383 -0.00877103 0.00591902
C 4.85071358 25.90952599 1.27171687 -0.00081189 -0.00122206 -0.00287315
C -1.23994020 21.26178403 4.88204575 -0.00181031 0.00168650 -0.00481467
C 5.16981128 21.06074383 6.08718094 -0.00544515 -0.00219109 0.00236506
C -0.36051101 26.06639540 24.23820269 -0.00441503 0.00626972 -0.00055216
C 5.07524982 26.88136679 0.29643657 0.00479641 -0.00831217 -0.00868738
C -1.47425390 22.03548339 6.01271125 -0.00179027 -0.00506004 -0.00325544
C 6.74786708 21.18394890 0.59158419 0.00158842 -0.00325106 -0.00340133
C 9.82533663 25.82826382 5.82992855 -0.00087305 0.00406312 -0.00672374
C 3.16281426 26.94372613 5.52277044 0.00770431 0.00609232 0.00285160
C 0.09503352 22.13121038 0.62142388 -0.00020354 0.00235895 -0.00400484
C 5.73253722 21.99370271 0.12456643 0.00355722 -0.00270962 -0.00835961
C -2.13569483 26.83150023 6.27485983 0.00429463 0.00111893 0.00357445
C 4.14781090 25.99375725 5.85458111 0.00025419 -0.00094714 -0.00360613
C 12.44855439 21.25240160 0.12747092 -0.00055483 0.00464584 0.00009216
C 2.02366383 24.35894258 3.70037093 0.00281069 0.00217675 0.00241468
C 1.49699145 19.46318966 2.79895907 0.00525218 -0.00159298 0.00698830
C 8.24883924 23.81503259 2.63853516 0.00251590 0.00495977 0.00019732
C 8.54583416 28.62826911 3.39319826 0.00949443 -0.00087496 -0.00590408
C 0.95763115 25.35282451 3.32961242 -0.00045105 0.00361105 0.00470101
C 2.64582433 20.20825573 3.32872629 0.00179901 0.00035635 -0.00183548
C 9.51153882 23.00936316 2.95921052 -0.00746769 0.00305408 -0.00201342
C 7.24653917 27.91273797 3.09709122 -0.00657559 0.00338176 0.00252945
C 0.27035874 22.97411253 11.33715368 -0.00137711 -0.00007178 0.00060018
C -2.36007635 27.72829111 7.27662363 -0.00007021 0.00189379 -0.00030913
C 4.00243937 25.26515146 7.04259064 0.00157687 0.00522521 -0.00199428
C 6.60404968 20.09627374 11.02568679 0.00334411 -0.00143629 -0.00078771
C 1.51263121 22.97051047 10.69323825 0.00055579 -0.00166163 0.00599846
C 9.37335471 27.67363230 7.84656804 -0.00468664 -0.00558368 -0.00041179
C 2.81392867 25.44990426 7.79784996 -0.01078299 -0.00301666 0.00203571
C -4.95478839 20.29767456 10.53093927 -0.00015839 0.00488181 0.00056307
C 2.49608889 22.08236099 11.08257310 0.00470051 -0.00440937 -0.00701373
C 8.37742156 26.77396413 7.54947673 0.00424995 -0.00350494 0.00294161
C 1.82539770 26.31133167 7.37950145 -0.00123364 -0.00084361 0.00350500
C -4.03836804 21.20443161 10.98493027 -0.00606207 -0.00408384 -0.00537684
C 2.29416016 21.23262614 12.18097848 0.00116543 -0.00317559 -0.00311543
C 8.58254263 25.88594361 6.44844413 0.00567055 0.00696137 -0.00938809
C 2.01031192 27.14771548 6.26588245 0.00043506 -0.00171098 0.00479150
C -4.26445296 21.98893969 12.12791389 -0.00582331 -0.00462321 0.00079419
C 4.10824308 21.47431476 6.96115771 0.00374806 0.00220553 -0.00181345
C 6.56382694 26.24501706 11.50909843 -0.00052089 0.00642730 -0.00076515
C -0.12288713 27.06277696 11.46413051 0.00310996 0.00196669 -0.01264117
C -2.72336091 21.93459767 6.72017662 -0.00001759 -0.00006944 0.00202997
C 3.16022745 22.39394688 6.54298466 -0.00509155 0.00275730 -0.00826511
C -5.45807886 27.06105588 12.11616125 -0.00591601 0.00084781 -0.00249680
C 0.92402861 26.25747853 11.82716268 -0.00529829 0.00175342 -0.00433902
C 9.51947583 20.99544142 6.25288249 -0.00317391 -0.00137639 0.00695443
C -0.84576328 24.32157268 9.71689498 0.00193610 0.00370321 0.00335114
C -1.28092284 19.42274537 8.68403130 -0.00319695 0.00229691 0.00631499
C 5.18369879 23.84975492 8.66575516 0.00353722 0.00046364 0.00379385
C 5.67269628 28.65075442 9.68995361 0.00469245 -0.00027973 -0.00629116
C -2.09635947 25.15197653 9.44829265 0.00400180 0.00511904 -0.00184246
C -0.20547283 20.38313172 8.80805156 -0.00455669 -0.00198394 -0.00517305
C 6.42393249 23.09468584 8.89495576 -0.00750797 -0.00530263 -0.00381159
C 4.42155466 27.77786365 9.51783156 0.00407615 0.00155025 0.00195568
C -2.89061667 23.11126499 17.48015638 -0.00151632 0.00083050 -0.00314133
C -5.68729041 27.89762205 13.20533324 0.00283913 0.00184876 -0.00052608
C 0.74198033 25.54955255 13.04389114 -0.00241938 -0.00457761 0.00244523
C 3.55781212 20.48154942 17.13247081 -0.00381449 0.00027792 0.00107189
C -1.68991978 23.00986943 16.80980667 0.00046218 0.00137754 -0.00175030
C 6.17750495 27.76555037 13.74810056 0.00084471 0.00198388 0.00120472
C -0.43397550 25.54794624 13.82110212 -0.00233522 0.01161404 0.00197376
C -8.08136007 20.56300784 16.43989378 -0.00445290 0.00397320 0.00703103
C -0.75426426 22.09744161 17.17233465 0.00306509 0.00485993 -0.00807616
C 5.16326108 26.98147764 13.27644483 0.00162845 -0.00656754 -0.00520528
C -1.50859772 26.37534558 13.38445726 0.00710165 0.00328796 -0.00322328
C -7.09235497 21.50951223 16.83093178 -0.00586128 0.00299164 0.00000125
C -0.91323212 21.31664060 18.32702681 0.00224449 0.00650208 0.00554308
C 5.31657420 26.22884818 12.14554234 0.00021213 0.00527795 0.00021391
C -1.31597321 27.20632837 12.22512776 0.00956650 -0.00635301 0.00259263
C -7.29325866 22.19628760 18.04773283 -0.00670516 0.00175487 0.00854459
C 1.06120253 21.23314612 12.88421042 -0.00867877 -0.00059298 0.00357653
C 3.69490561 26.31365470 17.62845563 -0.00094923 0.00464457 0.00282104
C -2.80741942 27.19938261 17.94957991 0.00499115 -0.00424218 -0.00042364
C -5.45369217 21.81815035 12.85979109 -0.00087790 0.00349664 -0.00202844
C 0.02698654 22.03255703 12.41610708 0.00104638 0.00661613 -0.00838287
C -8.71472917 26.75825396 18.16134737 -0.00270616 0.00369309 0.00433646
C -1.90175783 26.28256283 18.40272098 -0.00168301 -0.00047078 0.00084994
C 6.23574449 20.99981422 12.04990689 0.00170037 0.00389830 -0.00095127
C -4.17615530 24.32899654 15.78956941 0.00638155 -0.00065642 -0.00510302
C -4.32384618 19.56816780 14.67430915 0.00849309 -0.00087577 -0.00815017
C 1.99063856 24.18390004 14.66848764 0.00127656 0.00896423 -0.00335942
C 2.28678474 28.67731430 15.77710220 -0.00686296 -0.00338054 -0.00050706
C -5.45378384 25.13987425 15.68322519 0.00132384 0.00443494 -0.00842600
C -3.21315918 20.49223438 14.93564268 0.00080901 -0.00139971 0.00180204
C 3.04746014 23.12030644 14.83786007 -0.00044234 0.00545940 -0.00200650
C 1.02495286 27.91418570 15.51970627 0.00359067 -0.00158221 0.00303945
C -6.07476318 22.88673415 23.38473400 -0.00214164 -0.00454612 0.01300639
C -8.86012115 27.64690572 19.22643195 0.00030865 -0.00731309 -0.00064239
C -2.10824685 25.41297199 19.45604044 0.00150052 -0.00210659 0.00349894
C 0.57253187 20.38543533 23.38982974 0.00314450 0.00643403 -0.00597506
C -4.85348745 22.78951047 22.74247296 -0.00504353 0.00009422 -0.00340508
C 3.28901837 27.83105340 19.90493891 -0.00463294 -0.00000910 0.00274700
C -3.34156815 25.51557029 20.16369332 -0.00143458 0.00486293 0.00171269
C -11.27247508 20.49487252 22.86003488 0.00559869 -0.01049476 -0.00395314
C -3.83648685 21.94257358 23.18179370 0.00636532 -0.00104941 -0.00417084
C 2.38033871 26.90602089 19.48657803 -0.00098578 0.00451643 0.00595844
C -4.28131927 26.37974370 19.74377285 0.00238295 0.00548241 -0.00180899
C -10.28659507 21.31534351 23.31996840 0.00508908 -0.00366092 -0.00539111
C -4.01534538 21.11721827 24.27262907 -0.00488727 0.00256945 0.00258896
C 2.52385304 26.06756824 18.37831953 0.00206781 -0.00083017 -0.00004696
C -4.04217743 27.26759575 18.64608567 -0.00150117 -0.00740114 -0.00053272
C 1.45253065 22.15430724 0.10926799 -0.00052468 0.00119914 -0.01154060
C -2.12318876 21.47807669 19.05579714 -0.00161481 0.00325942 -0.00698266
C 0.92984869 26.23103458 23.65889642 0.00412618 -0.00491266 -0.00857913
C -5.72707781 26.83108464 23.98685305 -0.00257558 0.00981578 -0.00202033
C -8.56520377 22.06660495 18.76486474 -0.00321202 -0.00130750 0.00687507
C -3.11622931 22.35595704 18.61114648 -0.00446234 0.00497254 -0.00199234
C -11.56870969 26.48820243 24.22939500 -0.00139125 0.01124122 0.00147062
C -4.75956709 25.87165902 24.25867527 -0.00463936 0.00194999 0.00177126
C 3.29507475 21.34563656 18.19416337 -0.00083332 -0.00285379 0.00349942
C -7.25831108 24.23155935 21.83681756 -0.00725574 -0.00475624 0.00065752
C -7.64178151 19.48114227 20.66775661 -0.00180605 -0.00574637 0.00066454
C -1.00726303 23.82120626 20.90926230 -0.00063708 0.00304863 -0.00665718
C -0.36491398 28.67570261 21.87191057 -0.00707546 0.00349219 -0.00109534
C -8.46844642 25.07993249 21.46311558 -0.00219058 -0.00728071 -0.00525060
C -6.42810803 20.29623923 20.81920003 0.00746403 0.00552142 0.00108756
C 0.05729023 22.84624069 21.22703091 -0.01211956 -0.00617548 -0.00343166
C -1.59498381 27.85104611 21.66995310 0.00468035 -0.00080922 0.00625474
C 16.33102119 3.44132002 5.33782353 -0.00385587 0.00133786 0.00632706
C 13.55189583 8.38761752 0.96051596 0.00103629 0.00135462 0.00601485
C 20.10760014 6.16102890 0.96802952 -0.00482442 -0.00548229 -0.00004466
C 22.94686484 1.15004445 5.07119539 -0.00423964 0.00545858 -0.00119178
C 17.53059806 3.36979680 4.61379746 0.00299049 0.00534303 -0.00202665
C 25.46281351 8.53195330 1.77296214 -0.00578410 0.00301669 -0.00543925
C 18.87222903 6.21153026 1.58540533 0.00345855 0.00221864 -0.00229006
C 10.86597848 1.15510372 4.34188071 -0.00467175 0.00061550 -0.00183230
C 18.50725426 2.41542337 4.82120013 0.00106200 -0.00119788 0.00153774
C 24.56034534 7.53881566 1.38639600 -0.00205554 -0.00240043 0.00292204
C 17.93256016 7.09200493 1.16147187 0.00541978 -0.00364178 -0.00679537
C 11.73751077 2.06265808 4.79673488 -0.00593368 -0.00339262 0.00384688
C 18.41148510 1.63612093 5.95943664 0.00248738 -0.00101718 0.00396143
C 24.84073653 6.76211549 0.24274611 0.00073619 -0.00162947 0.00658873
C 18.21697733 7.98819856 0.11579833 -0.00336479 0.00128005 -0.00333406
C 11.55196926 2.86542017 5.95758389 0.00049523 0.00154795 -0.00736314
C 20.04011631 2.26069472 0.56708674 -0.00360153 0.00144439 -0.00307267
C 22.90833018 6.69340481 5.57881807 -0.00610614 -0.00415193 -0.00181384
C 16.44943226 7.37296565 5.50480737 -0.00266452 -0.00639730 0.00285368
C 13.61148962 2.88154858 0.81413570 0.00236469 0.00506652 -0.00049125
C 19.08726511 3.15871047 0.22374096 -0.00010987 -0.00484655 0.00914986
C 10.84119662 7.74246297 6.00121299 0.00006069 -0.00003919 0.00089004
C 17.45426581 6.45580307 5.82147350 -0.00409619 0.00302239 -0.00690029
C 25.65451018 1.99617605 0.21763151 -0.00296817 -0.00611140 0.00034239
C 15.13068760 5.05046593 3.90772407 -0.00462861 0.00514623 0.00426702
C 14.81102850 0.31837513 2.65562408 -0.00160373 -0.01150138 -0.00398188
C 21.34029059 4.73417055 2.52022530 -0.00524382 -0.00376766 0.00135807
C 21.74065079 9.36647332 3.42257089 -0.00219197 0.00067901 0.00451192
C 13.82047528 5.60922684 3.64929936 -0.00153288 0.00198044 0.00172047
C 16.03594303 1.23437821 2.85488515 0.00186269 0.00272610 -0.00015688