2880
Time=14000.00000000 pbc="T T T" Lattice="39.25544103 0.00000000 0.00000000 0.00000000 28.92838343 0.00000000 -12.02236620 0.00000000 24.37885533" energy=-18397.32555079 virial="17.95872200 2.64913289 -35.54741220 2.64913289 26.38815199 -4.57348321 -35.54741220 -4.57348321 48.01029993" stress="0.00319495 0.00013361 -0.00132787 0.00013361 0.00340778 -0.00020532 -0.00132787 -0.00020532 0.00426090" Properties=species:S:1:pos:R:3:vel:R:3
C 3.24975269 3.86178827 5.10399174 0.00457734 -0.00142326 0.00025477
C 0.36222638 8.55987967 1.01591140 -0.00337459 0.00055787 0.00007729
C 6.65051571 6.09497728 0.85775551 -0.00876841 0.00670150 -0.00275288
C 9.86942015 1.19038419 4.96916594 0.00228785 -0.00369508 -0.00048755
C 4.41965046 3.68502482 4.37310285 0.00271482 -0.00014487 -0.00397129
C 11.96531341 8.48255599 1.66181400 0.00156338 0.00036746 -0.00854179
C 5.45974959 6.22163501 1.54152377 0.00192466 -0.00246102 0.00234867
C -2.20031587 1.25011985 4.53538567 0.00430824 0.00103278 0.00322568
C 5.27503842 2.65587107 4.65755755 -0.00116033 0.00164754 -0.00673939
C 10.94302982 7.64916777 1.25716079 0.00058038 0.00174100 -0.00060073
C 4.53326551 7.13891078 1.17651263 0.00219111 -0.00921602 -0.00081261
C -1.22255469 2.22701129 4.76501726 0.00174675 0.00374768 -0.00089892
C 5.11399493 1.84229017 5.80507910 0.00209183 -0.00055569 -0.00572260
C 11.11249777 6.72584862 0.19527425 0.00760288 -0.00232194 0.00183481
C -7.34641873 7.91545025 24.35833816 -0.00085767 0.00573923 0.00040227
C -1.36880853 3.03239969 5.93832492 0.00402302 0.00147534 -0.00463101
C 6.75361238 2.08478849 0.43948770 0.00663922 0.00490165 -0.00096910
C 9.61020065 6.91117576 5.58589084 0.00572103 0.00111282 0.00224952
C 3.13338423 7.66039964 5.63365034 -0.00381205 0.00107857 0.00089942
C 0.50267278 2.94316581 0.42336542 0.00978758 0.00222568 0.00682229
C 5.86564298 3.03730439 0.08112684 -0.00199287 -0.00006215 -0.00421394
C -2.54202306 7.81319064 5.74654463 -0.00388181 -0.00522886 -0.00409011
C 4.09712213 6.76222369 6.07330258 -0.00848434 -0.00394287 -0.00110136
C 0.27424624 2.16961168 24.33817725 -0.00144979 -0.00697174 -0.00623216
C 1.92061477 5.16377123 3.53070602 -0.00164192 0.00847343 0.00571239
C 1.60009156 0.30476195 2.72337302 0.00255604 0.00122339 -0.00366424
C 7.81984769 4.58798498 2.47322744 0.00235659 -0.00840100 -0.00048668
C 8.60860729 9.41133552 3.61264814 -0.00024348 0.00587671 -0.00384890
C 0.61323962 5.96336823 3.42254962 -0.00071804 -0.00187039 0.00275823
C 2.86370739 1.08776339 2.76802525 0.00070888 -0.00186417 0.00735721
C 9.03799742 3.71171553 2.63686165 -0.00575826 -0.01000770 0.00378317
C 7.53768210 8.33896856 3.42653555 0.00528064 -0.00136917 -0.00636466
C 0.01461004 3.74337495 11.16206912 0.00630130 -0.00576312 0.00184481
C -2.78961552 8.61817208 6.86730876 0.00396649 0.00213028 0.00470270
C 3.92354061 5.97007959 7.22434507 0.00438388 -0.00221373 0.00366057
C 6.58845610 1.15733154 11.10530960 0.00120363 -0.00303654 -0.00923580
C 1.22002508 3.62588547 10.41337340 0.00861074 -0.00028076 0.00025710
C 9.27566832 8.43952611 7.85842852 -0.00357612 -0.00166084 -0.00228402
C 2.72597829 6.08659881 7.99223634 0.00348468 -0.00265948 0.00525813
C -5.13884809 1.28002190 10.55619434 -0.00108685 -0.00066385 0.00272821
C 2.29619347 2.71306719 10.75010092 -0.00325629 0.00284592 -0.00190059
C 8.28499237 7.52051991 7.44983467 -0.00409556 0.00249581 0.00181443
C 1.76774484 6.97612764 7.57851253 0.00986420 -0.00621992 0.00582498
C -4.14643927 2.05134627 11.03888018 -0.00568962 -0.00338868 -0.00059612
C 2.04575163 1.93024242 11.89010648 0.00644246 0.00332330 -0.00233638
C 8.41547982 6.73070958 6.25650225 0.00716315 -0.00021164 -0.00569042
C 1.91347714 7.70136690 6.31127662 0.00268617 -0.00184305 0.00219694
C -4.33400991 2.85597147 12.26924043 -0.00042078 -0.00258514 0.01086808
C 3.98864004 2.11713044 6.55842188 -0.00380788 0.00618945 0.00285877
C 6.81416375 6.77981225 11.67890263 -0.00506949 -0.00330091 -0.00550527
C 0.19807414 7.69275017 11.64755928 -0.00025721 0.00205298 0.00155489
C -2.50429294 2.85441507 6.75691644 0.00184577 -0.00157908 -0.00250174
C 3.07130013 3.06615207 6.25639435 -0.00027823 -0.00696574 0.00282583
C -5.49842974 7.75061770 11.95120359 -0.00134452 0.00589035 -0.00048170
C 1.13353333 6.78527949 12.08438810 0.00014443 -0.00243058 0.00158618
C 9.46347952 1.93485123 6.10020121 0.00144918 0.00063498 0.00224033
C -1.40563772 5.08121469 9.72009035 0.00061251 0.00252337 0.00387275
C -1.19240843 0.36078201 8.61159258 -0.00092895 0.00064886 -0.00068582
C 5.24583596 4.46943032 8.58286349 -0.00149682 -0.00293141 0.00369907
C 5.75481513 9.46796889 9.77913944 0.00026459 -0.00167135 -0.00044324
C -2.70229163 5.84127961 9.58870751 0.00693822 0.00687376 0.00524648
C -0.04580266 1.28495579 8.60268560 -0.00326011 -0.00310330 -0.00410372
C 6.33084405 3.44410786 8.64443504 0.00159633 -0.00318836 -0.00270349
C 4.50990245 8.72238264 9.69452779 -0.00423819 0.00025292 -0.00214786
C -2.94956462 3.74129569 17.21037801 0.00265737 0.00107337 0.00210202
C -5.59828555 8.60557504 13.08479310 -0.00415865 -0.00051673 -0.01020937
C 0.93448388 5.93559427 13.16465952 0.00360288 -0.00111612 0.00692713
C 3.51368648 0.97471005 17.17506339 -0.00223139 0.00566543 -0.00008081
C -1.71889921 3.65269166 16.53571168 0.00434001 -0.00195979 0.00700794
C 6.39779484 8.37347888 13.96094930 -0.01418215 0.00678580 -0.00263651
C -0.16430337 6.21049250 13.94974969 -0.00019499 0.00600078 -0.00578696
C 31.05553319 1.29541757 16.61891790 0.00624662 0.00511853 0.00002993
C -0.79029304 2.75150778 16.91955889 -0.00060896 -0.00356045 0.00327282
C 5.41519447 7.56581894 13.46134587 -0.00391057 0.00101359 0.00155622
C -1.18132885 7.05652600 13.54569810 0.00139795 0.00729922 -0.00155472
C -7.19313037 2.16295445 17.06557116 0.00209591 -0.00740922 0.00529650
C -0.97055901 1.92403283 18.04936382 -0.00075451 0.00068738 0.00392129
C 5.64422051 6.66498701 12.38852314 -0.00165509 0.01040582 0.00340940
C -1.02218689 7.89050071 12.37590909 -0.00055302 -0.00369715 -0.00191218
C -7.41235084 2.94708002 18.24292470 -0.00507796 0.00319815 -0.00240777
C 0.85163798 2.03905068 12.59387063 0.00322391 -0.00014565 -0.00229066
C 3.68246306 6.95682297 17.92271211 0.00237060 -0.00715739 -0.00127422
C -2.74422407 7.76829460 17.92840408 -0.00154895 0.00130242 -0.00347541
C -5.65633663 2.75946059 12.80252218 -0.00312744 -0.00738659 -0.00747141
C -0.16335426 2.86378395 12.24857336 -0.00510740 -0.00166963 -0.00192957
C -8.56651655 7.60967755 18.06921763 0.01051736 -0.00350160 -0.00477523
C -1.83364025 6.81101003 18.34651270 -0.00084312 -0.00105624 0.00041468
C 6.37603079 1.94492158 12.24338199 -0.00180676 0.00285399 -0.00564657
C -4.08837938 5.20715141 15.73813996 0.00497156 0.00085243 -0.00194095
C -4.37698634 0.32517678 14.75794703 0.00753065 -0.00378168 0.01257525
C 2.11347862 4.51631552 14.77948370 0.00012131 0.00202573 -0.00218797
C 2.45757784 9.54599075 15.74853830 0.00360434 -0.00121827 0.00364324
C -5.24114225 6.06310077 15.53931554 0.00777553 0.01023915 0.00093839
C -3.13175476 1.22094560 14.78238170 0.00242210 -0.00090510 0.00360972
C 3.31039045 3.61343845 14.93901915 0.00384642 0.00086894 -0.00242463
C 1.19950733 8.69352798 15.58834713 -0.00065569 -0.00304633 -0.00452591
C -5.86357108 3.85256598 23.32748936 0.00371666 -0.00147974 0.00131562
C -8.73224916 8.52947799 19.13868295 -0.00527161 0.00402266 0.00372905
C -2.14722536 5.88459081 19.31824853 0.00335317 0.00239730 0.00065721
C 0.67808511 1.28468615 23.29971550 0.00778472 -0.00053113 0.00489257
C -4.65163724 3.74749419 22.65095300 0.00175270 -0.00161048 -0.00142622
C 3.31476862 8.58660482 20.15631074 -0.00317177 -0.00007782 -0.00125840
C -3.34333571 6.07913570 20.07427761 -0.00451239 -0.00348643 0.00022788
C -11.00000908 1.00497300 22.98246561 0.00020929 0.00249076 0.00008147
C -3.73896606 2.80423863 23.06744384 0.00003390 0.00122956 0.00671524
C 2.27386472 7.79034778 19.65235258 -0.00492770 0.00096092 -0.01039275
C -4.30469510 6.99964855 19.61576170 0.00814569 0.00160361 -0.00116630
C -10.02488721 1.92473573 23.21511147 0.00789265 -0.00223204 -0.00320536
C -4.06724661 1.89216100 24.06823103 0.00227553 0.00161058 0.01062571
C 2.48451123 6.93128147 18.55187937 -0.01369762 -0.00438507 -0.00262466
C -4.03408554 7.83356628 18.47455333 0.00316741 0.00043823 0.00592133
C -10.23926995 2.92846578 24.25391056 0.00556307 -0.01296963 0.00710364
C -2.22683137 1.97715795 18.67515841 -0.00133591 -0.00311509 -0.00136960
C 0.37775458 6.67327282 24.02918531 0.00779153 -0.00434827 0.00054955
C -6.09167251 7.87097978 23.73360801 -0.00194183 -0.00301818 0.00206761
C -8.65887853 2.86097391 18.86415471 -0.00026824 -0.00208567 -0.00444195
C -3.17581797 2.86103887 18.26249206 -0.00235367 -0.00207423 0.00359814
C -11.49036293 7.75354982 24.20148782 0.00629762 -0.01105226 0.00747739
C -5.14030330 6.95954236 24.11546709 -0.00115787 0.00513423 -0.00407906
C 3.27782966 1.70736823 18.36410497 0.00160727 0.00523396 0.00746780
C -6.99543893 5.25120473 21.65417956 0.00140305 0.00248724 -0.00698767
C -7.50293352 0.36271635 20.89673861 0.00666334 0.00156686 0.00260936
C -0.80537310 4.57547436 20.77136284 0.00805769 0.00275681 0.00653130
C -0.54593137 9.48389327 21.68421390 0.00082068 -0.00444060 0.00519955
C -8.13044225 6.22494346 21.42725055 0.00285501 0.00052340 -0.00119811
C -6.42661864 1.28239118 21.15906391 -0.00762478 0.00486367 -0.01022847
C 0.55068544 3.84127492 20.76512768 0.01064926 0.00924912 -0.00297252
C -1.78592268 8.73832655 21.38827338 -0.00538683 -0.00136489 -0.00440564
C 3.23121732 13.42237150 5.16250543 0.00012637 0.00971512 0.00102831
C 0.37527939 18.11633372 0.76283378 -0.00188440 -0.00476573 -0.00265998
C 6.69667710 15.56684389 0.89393951 -0.00522951 -0.00412625 -0.00264140
C 9.64863220 10.83143238 5.24553863 -0.00341822 0.00036608 -0.00430298
C 4.40450123 13.26527296 4.41430928 -0.00327056 -0.00293393 0.00503875
C 12.30925379 18.06905230 1.67673012 -0.00420814 -0.00131107 -0.00964936
C 5.40430981 15.68679990 1.53279120 -0.00150293 -0.00359153 -0.00404935
C 37.10816345 10.89390027 4.20500295 0.00668931 0.00235004 0.00583439
C 5.39590115 12.44333936 4.95106032 0.00514978 0.00506194 0.00963301
C 11.32736580 17.17422550 1.24902257 -0.00118414 0.00099657 -0.00340332
C 4.50975809 16.65876540 1.17814677 -0.00882308 -0.00798150 0.00492799
C -1.21846615 11.75759808 4.69610303 0.00239125 -0.00280931 -0.00110471
C 5.15932965 11.58274479 6.01441887 -0.00015762 0.00138446 -0.00207629
C 11.41451213 16.58545238 0.00536691 -0.00335377 -0.00093411 0.00424806
C 4.84224172 17.49941892 0.13179428 0.00101823 0.00320004 0.00673464
C -1.50188712 12.64809201 5.73315287 0.00357791 -0.00182578 0.00485700
C 6.85470175 11.58940690 0.50002003 0.00181195 0.00119953 0.00265925
C 9.57556447 16.47809413 5.42628339 -0.00677597 0.00774313 0.00432693
C 2.98332780 17.28551656 5.35568020 0.00586481 -0.00098272 0.00630388
C 0.58472306 12.38461013 0.68630352 -0.00755144 0.00033739 0.00042020
C -6.06384853 12.45498525 24.33065561 -0.00380865 0.00556074 -0.00135605
C -2.54517815 17.49376400 6.01064980 -0.00363863 -0.00127748 -0.00046263
C 4.02524433 16.46712005 5.75506725 -0.00115677 0.01248617 0.00375863
C 12.45106735 11.50684623 0.21674525 -0.00096522 0.00098849 -0.00705802
C 1.96050169 14.74064163 3.53526012 0.00001299 0.00492154 -0.00289888
C 1.45627201 9.99946246 2.61640543 0.00562498 0.00166058 -0.00472011
C 7.87563362 14.16829291 2.44522103 0.00539058 -0.00601932 0.00376680
C 8.29586588 18.97026933 3.56114558 0.00579118 0.00342401 -0.00161161
C 0.69772368 15.46336770 3.31386169 -0.00185621 0.00314898 -0.00038900
C 2.58529249 10.94089428 2.69280196 0.00544702 0.00422977 0.00502486
C 9.00148850 13.27887822 2.69572838 -0.00225415 0.00420583 0.00820934
C 6.93706033 18.23221633 3.41557988 -0.00150309 0.00448581 0.00126681
C 0.25438313 13.37936538 11.17891011 -0.01357827 -0.00337085 -0.00467996
C -2.80867341 18.41375608 7.03959458 0.00505518 0.00216409 0.00576857
C 3.87480494 15.67572858 6.90714733 -0.00301470 0.00622059 -0.00059154
C 7.03027990 10.81696661 11.44018625 0.00541838 0.00050280 0.00582790
C 1.48285719 13.42678374 10.46938322 0.00108306 0.00678436 0.00049097
C 9.11068067 18.08496161 7.70086946 -0.00001561 0.00167153 -0.00340609
C 2.64663787 15.75184969 7.61215570 -0.00233192 -0.00268898 -0.00862750
C 33.99692683 10.79728262 10.36610877 -0.00188638 -0.00212212 -0.00175956
C 2.49635003 12.59867501 10.84880615 -0.00075684 -0.00107006 -0.00588398
C 8.12148554 17.13360273 7.30793731 -0.00027861 -0.00458486 -0.00514629
C 1.58705821 16.50752974 7.21215448 -0.00520700 0.00437838 -0.00102949
C -4.32363270 11.73749941 10.75470161 0.00247884 -0.00064929 0.00097982
C 2.38877964 11.75552586 11.99019362 -0.00568194 -0.00140650 0.00048728
C 8.37210945 16.31672115 6.17375930 0.00369658 0.00005699 0.00699841
C 1.70850674 17.29587659 6.03692265 0.00435650 0.00501827 0.00260475
C -4.46526163 12.51539708 11.94775128 0.00568157 -0.00900758 0.00239851
C 3.90366510 11.61887597 6.61330990 -0.00267265 -0.00512108 0.00041936
C 6.63428309 16.46201067 11.74377076 -0.00480572 0.00108397 -0.00280204
C 0.17005757 17.30111748 11.69162232 -0.00261433 -0.00292479 0.00183473
C -2.68735921 12.41066426 6.49340867 -0.00486007 -0.00701886 0.00813403
C 2.93560910 12.48328888 6.16086593 0.00408179 0.00147627 -0.00357736
C -5.39490394 17.25537987 12.07347435 -0.00057577 0.00481472 0.00623681
C 1.12578032 16.42009931 12.06966681 -0.00108111 0.00574353 -0.00375110
C 9.34372309 11.56000520 6.41009468 -0.00193738 -0.00339690 0.00340159
C -1.18962238 14.65422354 9.71668577 -0.00891111 -0.00642831 -0.00105538
C -1.44944824 9.96091910 8.51039770 0.00066453 -0.00499090 0.00018638
C 5.02797412 14.45046181 8.68662375 0.00253658 0.00581409 -0.00532184
C 5.44463514 19.00210700 9.55517878 0.00678560 0.00375294 0.00205790
C -2.41866663 15.55843705 9.73541153 -0.00032284 0.00305920 0.00047189
C -0.62886619 11.19330071 8.71936621 -0.00137832 -0.00121592 0.00056861
C 6.07425849 13.45326084 9.05201338 0.00403950 -0.00163941 -0.00254992
C 4.14494566 18.35253012 9.25278999 -0.00059596 0.00530910 -0.00082872
C -2.61165894 13.43815595 17.38278562 0.00574700 0.00337423 -0.00524093
C -5.73218783 18.11475187 13.13725724 -0.00328298 0.00327304 0.00120709
C 0.96576564 15.60118284 13.18997511 -0.00101301 0.00089387 -0.00075238
C 3.73055977 10.97802183 17.36324345 -0.00025772 -0.00489061 -0.00703427
C -1.39107244 13.32053909 16.67744040 -0.00436541 0.00152997 -0.00311581
C 6.26622091 17.99936333 13.98785965 0.00304895 -0.00042230 -0.00148381
C -0.20265752 15.66187285 13.94773848 0.00001177 0.00590713 -0.00372357
C -8.12435097 10.73955291 16.57354775 0.00002853 -0.00651443 -0.00041994
C -0.46475533 12.45578162 17.11956564 0.00370986 -0.00146431 -0.00766990
C 5.31632872 17.08448819 13.64308676 0.00174956 0.00297054 0.00087091
C -1.13980796 16.58089905 13.61293665 -0.00607401 -0.00035835 -0.00119416
C -7.15376191 11.69435329 16.92730359 0.00626634 -0.00187961 0.00374152
C -0.73513163 11.56533955 18.27542505 -0.00097750 -0.00008087 -0.00060828
C 5.45818461 16.28885416 12.44533473 0.01121514 0.00379530 -0.00433256
C -1.04702426 17.34612824 12.42639134 0.00967689 -0.00285646 0.00370858
C -7.33674077 12.56499384 17.99669741 -0.01218202 0.00230639 -0.00833868
C 1.13880445 11.68891003 12.61143627 -0.00191445 -0.00057558 -0.00199713
C 3.69902335 16.43927015 17.83943292 0.00154292 0.01004450 -0.00324197
C -2.72383208 17.31776551 17.71624984 -0.00031970 0.00230876 0.00548666
C -5.73483148 12.36006780 12.55431945 0.00068111 0.00227109 0.00276811
C 0.07002834 12.48697174 12.22493645 -0.00216777 0.00064695 0.00130275
C -8.31482131 17.35875507 18.12654147 -0.00121759 -0.00144910 0.00342492
C -1.71199852 16.53809203 18.27914030 0.00424298 0.00000398 -0.00357722
C 6.81946166 11.49619583 12.58689106 0.00275078 0.00508532 -0.00274654
C -3.89214140 14.74856725 15.77486711 -0.01011550 -0.00389759 -0.00359602
C -4.34733835 9.91299934 14.59489818 -0.00788080 0.00023909 -0.00696863
C 2.27680161 14.22780867 14.70681876 0.00479020 0.00212725 0.00021830
C 2.59839198 18.94977262 15.88497288 -0.00642738 0.00031465 0.00176413
C -5.18483362 15.48980200 15.74677878 -0.00152352 0.00303566 -0.00011857
C -3.06492416 10.66989905 14.75350308 -0.00452689 -0.00059862 0.00674075
C 3.42792238 13.32092840 14.80240025 -0.00501980 0.00540948 0.00895849
C 1.36220689 18.04945721 15.71540290 -0.00301120 0.00446607 0.00057028
C -5.90425115 13.23108093 23.20928098 -0.00134299 0.00404842 0.00074052
C -8.49073577 18.20675899 19.17784482 0.00642628 0.00047219 -0.00699780
C -1.99874929 15.66633011 19.32129141 0.00077840 -0.00122809 -0.00307067
C 0.63258688 10.74896869 23.41309611 -0.00532159 0.00209577 0.00229025
C -4.66028506 13.11625768 22.57360127 -0.00515843 0.00730902 0.00839735
C 3.29339810 18.09943160 20.05810291 -0.00457628 -0.00335472 0.00073047
C -3.22121076 15.82313665 19.98568730 -0.00466685 -0.00349989 -0.00026381
C -11.09719402 11.10211185 22.62365000 -0.00218845 -0.00501365 -0.00649735
C -3.64601128 12.30066581 23.08907488 0.00132250 0.00038719 0.00328128
C 2.23166687 17.26870999 19.64939663 0.00810322 -0.00088568 0.00510357
C -4.15683237 16.69479292 19.55576514 -0.00170041 0.00178013 0.00248279
C -10.08584899 11.87946660 23.11990409 -0.00661298 0.00852334 -0.00225600
C -3.87566290 11.57532083 24.30044314 0.00662715 0.01323552 -0.00135527
C 2.42536961 16.52286534 18.49488060 0.00129028 -0.00487097 0.00716716
C -3.93705931 17.44113078 18.38673328 0.00108518 0.00902197 0.00205572
C -10.21775671 12.47922704 24.31469327 -0.00197238 -0.00123133 0.00279927
C -2.05746397 11.62489574 18.87533113 -0.00117163 0.00114537 -0.00537316
C 0.66577537 16.72841289 23.75950118 0.00380079 -0.00146261 -0.00178288
C -5.95060013 17.33054815 23.78856857 0.00201108 -0.00363578 -0.00805685
C -8.54714251 12.47471566 18.67576283 -0.00786152 0.00030871 -0.00185346
C -2.97298412 12.54079240 18.36090976 -0.00360480 0.00705801 0.00530467
C -11.41664838 17.31616914 24.06576036 -0.00015052 -0.00414360 0.00086645
C -5.00585231 16.50728116 24.29326620 0.00200983 -0.00425643 -0.00371122
C 3.56337252 11.83030811 18.47232078 -0.00216090 0.00522923 -0.00031205
C -7.01484204 14.65198882 21.70166219 0.00018658 0.00354097 0.00360623
C -7.45493058 10.04377337 20.52543614 -0.00305242 0.00011368 0.00004495
C -0.96613066 14.12473604 20.87849817 0.00215825 0.00192214 -0.00028949
C -0.51626028 19.14351681 21.86337511 -0.00302666 0.00348868 0.00169348
C -8.10720529 15.66009623 21.47557817 0.00242782 -0.00170528 -0.00134355
C -6.24161378 10.95387120 20.56323726 -0.00588414 0.00361793 -0.00016678
C 0.38524060 13.54754968 21.11440953 0.00083182 -0.00514280 -0.00205325
C -1.85878347 18.34622827 21.78003669 -0.00142133 -0.00192875 -0.00266854
C 3.10786553 22.87524337 5.09339352 0.01015800 -0.00068666 0.00732589
C 0.51232729 27.73433298 1.19131397 -0.00386597 0.00129035 0.00372998
C 7.14711038 25.20418427 1.04981633 -0.01086562 -0.00435315 0.00516922
C 9.63652751 20.31015770 5.07367403 0.00653342 0.00074379 -0.00268718
C 4.33561602 22.81798042 4.38724443 -0.00111605 -0.00147824 0.00306650
C 12.38311365 27.82822916 1.88043114 0.00309061 0.00274099 -0.00014238
C 5.96286663 25.37346590 1.73801291 -0.00016467 -0.00359876 -0.00095387
C 36.97036459 20.54747864 4.36527808 0.00399056 -0.00562626 0.00100547
C 5.31598221 21.93484407 4.80956074 -0.00440950 -0.01208509 0.00015135
C 11.53452822 26.89107868 1.35888863 -0.00249566 -0.00137827 0.00166591
C 4.99905530 26.25803778 1.37636623 -0.00852563 -0.00015312 -0.00728261
C -1.25160309 21.41658803 4.75339411 0.00272479 0.00650200 0.00157429
C 5.19688179 21.23447046 5.99795164 0.00037022 0.00027553 0.00179886
C 11.85243130 26.11894408 0.21948774 -0.00633237 -0.00530606 0.00089431
C 5.16882986 26.94485945 0.18166330 0.00057583 0.00114168 -0.00394312
C -1.40377021 22.20577266 5.93249078 -0.00123140 0.00295600 0.00247686
C 7.05949641 21.34731011 0.65787637 -0.00452401 -0.00744242 0.00027493
C 9.64806066 26.00313261 5.47435594 0.00988553 -0.00108724 -0.00119751
C 3.11300649 26.83646249 5.48625691 0.01362710 -0.00185475 0.00199794
C 0.51352161 22.00981266 0.81831431 -0.00032050 0.00158986 0.00381409
C 6.11453898 22.25864384 0.26812132 0.00112196 -0.00518751 -0.00034731
C -2.27540539 27.02754398 6.01530358 -0.00229149 -0.00055659 -0.00052116
C 4.08571717 25.89818451 5.77789351 0.00083141 0.00182711 -0.00441721
C 12.59280048 21.43745974 0.06333153 0.00121234 0.00541498 0.00605519
C 2.04068861 24.43765916 3.57814955 0.00641511 0.00126591 0.00214427
C 1.39960371 19.49675412 2.39340426 0.00267301 0.00115140 0.00356457
C 8.52002315 23.87631285 2.59399217 -0.00333718 -0.00075961 -0.00830349
C 8.83886804 28.82837252 3.13912243 0.00155699 0.00883640 0.00187873
C 0.84140252 25.35065990 3.35901781 -0.00019379 -0.00053019 0.00531697
C 2.69562903 20.25235002 2.83601950 0.00267501 -0.00581709 -0.01174707
C 9.78512766 23.00051701 2.60959184 0.00450489 -0.00278863 -0.00715048
C 7.77590029 27.85262904 2.79810410 -0.00118553 -0.00745259 -0.00165597
C -0.03289404 22.96714995 11.08757083 -0.00260773 -0.00119316 -0.00520740
C -2.45070973 27.86604648 7.12428584 -0.00691160 -0.00655086 0.00193748
C 3.98175728 25.15723951 6.97553578 -0.00010025 -0.00250925 0.00855753
C 6.64280482 20.36980976 11.09974183 -0.00626585 -0.00019042 0.00025103
C 1.21587853 22.93123578 10.45080685 -0.00483156 -0.00158285 -0.00248003
C 9.22278919 27.74187554 7.56796361 0.00011499 0.00307612 -0.00458617
C 2.80646636 25.31007772 7.75000801 0.00567030 0.00608964 -0.00424356
C 33.89696526 20.46428856 10.47810742 0.00092241 -0.00474386 -0.00301327
C 2.12897666 21.99341895 10.81989659 -0.00018935 0.00032188 0.00060811
C 8.22465637 26.84801325 7.22738585 0.00024385 -0.00147598 0.00365566
C 1.85320492 26.17165436 7.40413121 -0.00272120 0.00436617 -0.00297876
C -4.41984119 21.37688888 10.81140450 -0.00587473 -0.00515323 0.00047160
C 2.00058279 21.25256558 12.06665279 -0.00484404 0.00634667 -0.00072747
C 8.47391978 25.83077241 6.25734534 -0.00931111 0.00354023 -0.00071552
C 1.96693555 27.02690262 6.27126347 -0.00222030 -0.00576838 0.00691773
C -4.65076299 22.22973690 11.89315217 0.00490940 0.00933767 -0.00646589
C 3.96560367 21.33363111 6.69504892 -0.00129125 0.00103265 -0.00099108
C 6.62732510 26.08021528 11.71304568 -0.00726138 -0.00314281 0.00093370
C -0.01067083 26.88539458 11.66665484 -0.01013381 0.00475891 -0.00090307
C -2.56939467 22.09351178 6.68966555 0.00339823 -0.00652514 -0.00264082
C 2.90521949 22.07782766 6.21120776 -0.00452442 0.00317561 -0.00090689
C -5.48744067 27.16839112 12.03031103 -0.00302109 -0.00408277 -0.00182640
C 0.97867059 26.04464744 12.02931108 0.00756077 -0.00743812 -0.00008761
C 9.50368224 21.18600479 6.14035231 -0.00343721 -0.00342080 -0.00390212
C -1.15816196 24.39578678 9.49285320 -0.00502175 0.00152984 0.00340833
C -1.52518661 19.36810822 8.79964864 -0.00651945 -0.00108748 0.00862169
C 5.27389687 23.89029201 8.59744025 -0.00328628 -0.00318955 -0.01140394
C 5.28864751 28.74649304 9.59071206 0.00822465 -0.00410168 0.00308480
C -2.25248721 25.30883158 9.25765959 0.00154179 0.00544363 -0.00361623
C -0.14200726 19.81351354 9.14390907 0.00093738 -0.00872437 0.00119342
C 6.52789311 23.21598778 8.85135577 -0.00778462 -0.00507233 0.00643933
C 3.91629184 28.15463128 9.43987206 0.00568442 0.00003776 -0.00244371
C -2.80400416 23.13262446 17.30688178 -0.00437940 -0.00286210 -0.00086805
C -5.68431635 27.90636651 13.18372388 -0.00198307 0.00727178 -0.00358761
C 0.75456386 25.16854195 13.07565377 -0.00721242 0.00210578 -0.00245788
C 3.76373549 20.35013198 17.38922081 0.00266742 -0.00288091 0.00425410
C -1.61880804 22.96569222 16.61779115 0.00471477 0.00176862 -0.00136898
C 6.09131389 27.60677577 13.94774579 -0.00154343 -0.00612176 -0.00073684
C -0.40806202 25.31619429 13.87495229 0.00014726 0.00406510 -0.00413090
C 30.96154840 20.41346166 16.42256166 0.00163859 -0.00148316 -0.00534768
C -0.73652578 22.01867148 16.95993842 -0.00176864 -0.00636330 -0.00423365
C 5.15670467 26.65664264 13.51641805 -0.00383198 -0.00196611 0.00456865
C -1.35717166 26.23828572 13.52084493 0.00473964 -0.00310830 0.00260834
C -7.32304844 21.30815376 16.80336384 -0.00544127 -0.00439719 -0.00516202
C -0.89070992 21.33215293 18.22255140 -0.00770566 -0.00502007 -0.00107454
C 5.41132433 25.86603894 12.42567145 -0.00465260 0.00858770 0.00129734
C -1.20418489 27.02165237 12.36037611 0.00269440 0.00698855 -0.00486759
C -7.51410280 22.18080242 17.93868669 -0.00003789 -0.00227485 0.00995919
C 0.73849436 21.30487832 12.70651444 -0.00031997 0.00024611 0.00349080
C 3.86862211 25.99680723 17.84359063 -0.00430473 -0.00169815 -0.00272248
C -2.65151856 27.11400279 17.95556197 -0.00677646 0.00440293 0.00315628
C -6.00181039 22.27048660 12.53518534 -0.00326158 -0.00293144 0.00369922
C -0.22440471 22.13150698 12.23549900 0.00012912 -0.00240019 -0.00009584
C -8.33686772 27.02397728 18.11843303 -0.00033786 -0.00024650 -0.00012607
C -1.74426286 26.12399366 18.23868818 -0.00605200 0.00817291 -0.00488563
C 6.39941204 21.22460684 12.18768932 -0.00637422 -0.00076214 0.00740409
C -4.09597315 24.37833911 15.76646617 -0.00423454 -0.00366138 0.00296540
C -4.59801748 19.54639451 14.72713371 -0.00727940 0.01052855 0.00478087
C 2.06054257 23.79400221 14.69038131 -0.00065970 -0.00365532 0.00509444
C 2.44860298 28.51104774 15.50961294 -0.00778489 -0.00218409 -0.00398083
C -5.28910474 25.26350779 15.46901514 0.00006174 0.00273543 0.00178602
C -3.27344429 20.28167132 14.93085144 -0.00064446 0.00884191 0.00670932
C 3.21001005 22.86965423 14.84741357 0.00504587 -0.00448102 -0.00320608
C 1.38768571 27.51658261 15.19862255 -0.00057187 0.00094583 -0.00112100
C -5.78941290 23.03763433 23.45585480 -0.00088352 -0.00482036 -0.00158437
C -8.56177802 27.89544523 19.25456595 -0.00529456 -0.00140604 0.00189755
C -2.03330915 25.30949868 19.37700624 -0.00440788 -0.00565460 0.01359076
C 0.69248924 20.51531542 23.45112151 -0.00103655 0.00176288 -0.00370620
C -4.65297200 22.87557822 22.69318905 0.00224408 0.00811113 0.00139443
C 3.27043704 27.74624103 19.97075593 0.00127424 -0.00012055 -0.00181167
C -3.26186726 25.39312917 20.09496963 -0.00372730 0.00215651 0.00511694
C -11.14097628 20.58629009 22.83896634 -0.00114611 -0.00785690 0.00289356
C -3.67495317 22.02745597 23.10015446 0.00873752 0.00463012 0.00259887
C 2.38281484 26.79351346 19.54520967 -0.00851656 -0.00444599 0.00680577
C -4.20732662 26.28486731 19.63213110 0.00137549 -0.00176190 0.00485687
C -10.14762714 21.33241363 23.29258687 0.00480354 0.00503686 -0.00349481
C -3.84178642 21.20765471 24.26206347 -0.00730232 -0.00298140 0.00057019
C 2.65772836 25.92968568 18.51471545 0.00079892 -0.01036981 0.00231410
C -3.96958869 27.12434179 18.50037066 0.00036749 -0.00321342 -0.00051255
C 1.75248020 22.01599440 0.18432438 0.00671386 -0.00128249 0.00363324
C -2.04699702 21.55083273 19.01916158 0.00870176 -0.00398992 0.00121431
C 1.06869839 26.36493756 23.96871552 -0.00145399 -0.00094349 0.00454980
C -5.70814933 26.86864875 23.84967822 -0.00256641 -0.00097125 0.00639164
C -8.66655254 22.02516143 18.68291009 0.00108088 -0.00140514 -0.00004174
C -3.01816399 22.31870977 18.44473744 -0.00380980 0.00535808 0.00406799
C 0.69712532 26.86298797 0.14243762 0.00120715 -0.00265304 0.00116711
C -4.70811940 26.02391279 24.32415555 0.00386781 0.00193944 0.00710017
C 3.56008070 21.21251424 18.45337550 -0.00230536 0.00034970 -0.00884547
C -7.23091413 24.17919852 21.79144030 0.00413019 -0.00372479 -0.00006881
C -7.04742964 19.54280365 20.81331027 0.00181926 -0.00236076 0.00116335
C -0.88389188 23.80466285 20.92637556 0.00034456 -0.00064484 0.00063007
C -0.30050102 28.73938897 21.61511241 0.00590396 -0.00263801 -0.00108428
C -8.49827760 25.00283077 21.56511454 0.00013570 0.00608354 -0.00243046
C -5.71870334 20.19673322 20.84305303 0.00205063 0.00038959 -0.00132730
C 0.40778882 23.00249804 21.21825027 0.00525088 -0.00781003 -0.00107429
C -1.47353893 27.86154796 21.36668918 -0.00054965 0.00616882 0.00253837
C 16.17259180 3.74847564 5.33747232 0.00486137 0.01147852 -0.00034533
C 13.25949026 8.41380078 1.11066019 0.00332403 0.01053724 -0.00605400
C 20.04081084 6.00255610 1.09327452 0.00049660 -0.00674018 0.00465301
C 22.63795288 1.00423159 5.14620143 0.00457687 -0.00002064 -0.00287733
C 17.36851467 3.62795851 4.57856367 -0.00042346 0.00398527 -0.00109453
C 25.40508880 8.35238131 1.79438290 0.00179687 -0.00755043 0.00144912
C 18.88028781 6.05302584 1.75295233 -0.00837598 -0.00192228 -0.00082537
C 11.15614547 1.27452698 4.42332290 -0.00068728 -0.00423836 -0.00186191
C 18.35423772 2.75036546 4.92379105 0.00004821 -0.00124356 0.00121067
C 24.39447963 7.49655162 1.39711962 -0.00519648 0.00035992 0.00800817
C 17.74988573 6.77020930 1.29636711 0.00141762 0.00311632 -0.00308855
C 12.08276760 2.03522437 5.07519144 0.00224371 -0.00388067 -0.00726017
C 18.11565095 1.90194065 6.04120005 0.00033030 0.00292721 -0.01008153
C 24.52927069 6.73333255 0.20849303 0.00514380 0.00831477 -0.00322391
C 17.88563877 7.55551537 0.16217464 0.00372225 0.00221961 0.00018697
C 11.69582585 2.84559917 6.15681808 0.00103716 0.00713880 0.00382188
C 20.01329018 1.89268896 0.64734866 -0.00400828 -0.00190209 -0.00203370
C 22.89971321 6.83550206 5.59146813 -0.00344738 0.00086663 0.00231434
C 16.34630563 7.61201512 5.68476977 0.00566909 -0.00161577 0.01095466
C 13.26952586 3.03584685 0.37740948 -0.00134760 -0.00279718 -0.00822876
C 19.06206226 2.80666976 0.36230708 0.00610623 0.00416784 0.00682005
C 10.61524517 7.76487432 6.03852681 -0.00107481 0.00692460 0.00853563
C 17.28608426 6.75053800 6.26088709 0.00213197 0.00299432 0.00174557
C 25.54488783 2.17911894 0.15195446 -0.00447188 0.00318150 0.00349218
C 14.98765903 5.17211887 3.78794460 -0.00178532 -0.00089664 -0.00241087
C 14.59745664 0.65920230 2.79538951 0.00369557 0.00147856 0.00093557
C 21.18498156 4.50135171 2.66218993 0.00157295 -0.00210084 -0.00814405
C 21.64195125 9.16422340 3.48727873 -0.00050183 -0.00167778 -0.00477287
C 13.78691848 6.15738407 3.52026077 -0.00151058 -0.00111842 0.00019925
C 15.61868129 1.66370423 3.08263191 -0.00083147 -0.00028213 0.00644784