2880
Time=32000.00000001 pbc="T T T" Lattice="39.17712775 0.00000000 0.00000000 0.00000000 28.73371769 0.00000000 -12.03929117 0.00000000 24.44754425" energy=-18397.56396812 virial="13.96817971 -9.88980109 -58.24653024 -9.88980109 23.98018769 -20.00625710 -58.24653024 -20.00625710 41.42381084" stress="0.00314542 -0.00019421 -0.00220324 -0.00019421 0.00331564 -0.00069891 -0.00220324 -0.00069891 0.00408912" Properties=species:S:1:pos:R:3:vel:R:3
C 3.06564478 3.90827100 5.12026477 -0.00205216 -0.00034980 0.00395290
C 0.16033181 8.50091684 0.82786470 -0.00181357 -0.00538500 0.00319929
C 6.83049687 6.05684825 0.97883219 -0.00209788 0.00037519 0.00154549
C 9.53910537 1.24864065 5.23917179 0.00586327 -0.00378954 0.00030944
C 4.22005706 3.77359606 4.42735519 0.00674949 0.00085308 -0.00245853
C 12.23550414 8.55215698 1.66605187 0.00111555 -0.00102589 0.00302532
C 5.64746574 6.11940407 1.77340285 -0.00056256 -0.00332169 -0.00518790
C -1.92643638 1.34561060 4.57167236 0.00218306 -0.00276639 -0.00522963
C 5.14076229 2.77591877 4.76536322 -0.00038314 0.00043712 -0.00525692
C 11.20272539 7.77066703 1.27325801 -0.00051030 0.00348470 -0.00177783
C 4.64361001 7.03369551 1.42061902 0.00769764 0.00341811 -0.00192760
C -0.89153878 2.11361657 5.13970481 0.00294917 0.00286127 0.00511372
C 5.00566367 2.10885351 6.02892205 -0.00072829 -0.00089267 0.00485230
C 11.37542549 6.87852679 0.14509134 0.00043287 0.00951496 0.00201373
C 4.72473517 7.77232716 0.24001395 0.00282894 0.00074500 0.00529467
C -1.11599329 2.96668927 6.20804097 0.00978761 0.00121572 0.00102124
C 6.88741395 2.14280928 0.59687308 -0.00521844 -0.00532824 -0.00535651
C 9.95752394 6.68330242 5.72548352 -0.00031977 -0.00049113 0.00580977
C 3.11423624 7.66662918 5.60092815 -0.00448617 -0.00129824 -0.00411195
C 0.25787205 2.91520153 0.57659795 -0.00420828 -0.00096244 0.00951400
C 5.87466433 2.97727523 0.10994876 -0.00033121 -0.00500139 0.00447980
C -2.30467216 7.80175013 6.10955948 -0.00065114 -0.00242382 -0.00012631
C 4.16698965 6.87554205 6.06318705 -0.00223511 -0.00449766 0.00422380
C 0.35174839 1.99298798 24.31057881 0.00583532 -0.00000526 -0.00070074
C 1.97226441 5.35385483 3.58901113 -0.00258322 0.00211289 -0.00107054
C 1.57990363 0.41542536 2.48507627 0.00058706 0.00082025 0.00913934
C 8.13860889 4.66991844 2.37244126 0.00282628 -0.00325750 0.00462993
C 8.39907901 9.06139836 3.54921439 0.00029136 0.00130459 0.00203115
C 0.84030102 6.38391508 3.50932597 -0.00251358 -0.00006944 0.00381106
C 2.68292088 1.45965432 2.70592291 0.00171817 0.00764715 0.00547834
C 9.46600626 4.04534411 2.42946834 -0.00161240 -0.00206005 0.00352505
C 7.13422622 8.12974102 3.40787762 -0.00105856 -0.00249180 -0.00149233
C -0.03400960 3.94330196 11.34272285 0.00148558 -0.00774154 0.00371296
C -2.52178684 8.71529696 7.09851726 0.00451586 0.00175235 0.00274822
C 3.96784766 6.01337849 7.11197619 -0.00374749 0.00799827 -0.00121622
C 6.63377647 0.88682401 11.24428137 -0.00588356 -0.00053171 0.00093171
C 1.24265807 3.87869845 10.73297665 -0.00137295 -0.00215469 0.00073504
C 9.39134666 8.45912693 7.74485527 -0.00345137 0.00500404 0.00210303
C 2.73252518 6.04699485 7.79711496 -0.01444380 -0.00252142 -0.00374685
C -5.10882232 1.47314325 10.63153830 -0.00626074 -0.00102733 0.00576483
C 2.17381365 2.92125671 11.19519213 -0.00770540 0.00248991 -0.00191182
C 8.42346946 7.55943963 7.35841007 -0.00460638 -0.00189121 -0.00573387
C 1.76267927 6.97552985 7.54686257 0.00856667 -0.00067815 0.00217884
C -4.18536525 2.30031031 11.23213711 0.00428264 -0.00852034 0.00078724
C 1.93982505 2.04772976 12.27961340 0.00097189 0.00637317 -0.00623894
C 8.61929671 6.73003965 6.21925621 -0.00510548 -0.00060231 0.00737958
C 1.97043226 7.71201623 6.33362841 0.00223959 0.00284285 -0.00238496
C -4.44796793 3.00516145 12.41838447 -0.00007830 0.00423512 0.00501971
C 3.84281668 2.24503582 6.72474048 -0.00147848 -0.00596196 -0.00172836
C 6.46483401 6.53297071 11.66468762 -0.00173243 -0.00000008 -0.00493638
C 0.27325163 7.60186003 11.83513848 -0.00413497 -0.00509301 -0.00308935
C -2.40156902 2.80289958 6.81863870 0.00415056 0.00497530 0.00182635
C 2.88180828 3.13391050 6.25873511 0.00859085 0.00092631 0.00689347
C -5.60351705 7.64066195 12.05873622 0.00403049 -0.00235990 -0.00895760
C 1.19003471 6.66870632 12.30189338 -0.00562989 0.00778725 0.00214222
C 9.27278232 1.88982844 6.42971300 0.00509367 0.00915813 -0.00394544
C -1.06421757 5.34251794 9.72040245 -0.00015824 0.00379487 0.00747974
C -1.26014049 0.46086131 8.64923229 -0.00242170 0.00272225 0.00161830
C 5.29648525 4.68268581 8.72003976 0.00138498 -0.00788826 0.00009988
C 5.64464016 9.12209966 9.77497976 -0.00160578 -0.00183812 -0.00388884
C -2.24552564 6.16708179 9.30737634 -0.00289669 -0.00288582 -0.00655304
C -0.03140939 1.24371951 9.00704719 0.00360260 -0.00023543 0.01101855
C 6.40916851 3.66591447 8.94034047 -0.00321537 -0.00356442 -0.00272385
C 4.55032794 8.03161540 9.63163033 -0.00417341 -0.00180720 -0.01133243
C -3.04339377 3.68438962 17.36887207 -0.00033479 0.00273104 -0.00220309
C -5.90640421 8.38385533 13.16445346 0.00494385 -0.01170116 0.00326921
C 0.90187260 5.90119364 13.39812604 0.00190313 -0.00105662 0.00146825
C 3.63274404 1.12971207 17.27051391 0.00247484 0.00185555 0.00162650
C -1.86110724 3.61420436 16.66429848 -0.00309653 -0.00443508 0.00157820
C 6.12029707 8.24200415 13.91196175 -0.00875600 -0.00871749 0.00138142
C -0.39256792 5.88186291 13.90832331 -0.00269329 0.00436020 -0.00149002
C -8.02924606 1.17794353 16.72622703 0.00571898 0.00225768 0.00652339
C -0.87885961 2.69998343 16.93323652 -0.00108156 0.00214426 -0.00466811
C 5.13489889 7.38635644 13.53539125 -0.00258101 -0.00625544 0.00810561
C -1.30352470 6.85584340 13.54030168 -0.00478835 0.00347093 0.00418610
C -7.06344926 1.91668664 17.21346371 0.00139893 0.00274346 -0.00318029
C -0.98357377 1.91498583 18.07863976 -0.00118415 -0.00188118 0.00289314
C 5.24406349 6.51472550 12.40675152 0.01043303 -0.00767661 0.00179976
C -0.99723038 7.78807383 12.56080562 -0.00093038 0.00935152 0.00150845
C -7.23726370 2.78345630 18.34591105 -0.00336273 -0.00359197 -0.00395216
C 0.66839342 2.11216629 12.87411223 0.00051145 -0.00289495 0.00508244
C 3.54955272 6.77916784 17.85584983 -0.00181375 0.00510333 -0.00082016
C -3.28715483 7.54050941 17.73917765 0.00454521 -0.00338973 0.00406528
C -5.59101415 2.66361371 13.10910736 0.00263918 0.00693581 0.00002412
C -0.22215857 3.12192851 12.44066992 -0.00647547 0.00923322 -0.00419691
C -8.51298591 7.87609757 18.47018900 -0.00014183 0.00645572 0.00287916
C -2.24356989 6.71247151 18.16088857 0.00553111 0.00435622 -0.00203482
C 6.41464849 1.71841905 12.35481268 0.00048862 -0.00116268 -0.00451833
C -4.37026998 5.17314388 15.96982747 -0.00392450 -0.00191976 -0.00579510
C -4.38121484 0.27202518 14.54865736 0.00333561 -0.00634234 -0.00936890
C 1.93085359 4.41151818 15.06761800 -0.00044573 -0.00764767 -0.00395252
C 2.32149662 9.00501619 16.06606678 -0.00965631 0.00478849 0.00282748
C -5.69908703 5.87402618 15.89072083 -0.00733237 -0.00822011 -0.00394186
C -3.18581422 1.00298494 14.74031997 -0.00034664 0.00348214 0.00729131
C 2.99784382 3.36367384 15.08395737 0.01082962 0.00296671 0.00213661
C 1.11701418 8.10400441 15.94563750 -0.00092079 0.00147198 0.00249449
C -6.08184174 3.72244328 23.37466911 -0.00141040 -0.00583071 -0.00611146
C -8.86886085 8.64098120 19.57902176 0.00068490 0.00000793 -0.00110802
C -2.34491912 5.91776925 19.29401626 0.00631095 0.00707217 0.00472223
C 0.60201621 1.16151949 23.23737920 0.00731460 0.00020501 0.00194246
C -4.89568875 3.58244586 22.62598670 0.00502172 -0.00049545 0.00775763
C 3.18193076 8.17173438 20.17490575 0.00884195 0.00215053 -0.00790514
C -3.51196421 6.05754661 20.10285474 0.00174575 0.00791223 0.00167929
C 27.84890473 1.35431726 22.80031296 -0.00293583 0.00319536 0.00239749
C -3.91766525 2.82418489 23.12610946 -0.00193669 -0.00552993 -0.00154608
C 2.18148883 7.32400466 19.79385095 0.00972657 0.00395988 0.00036913
C -4.49942310 6.85431550 19.68299950 -0.00008654 -0.00268835 -0.00224811
C -10.36523795 2.24284979 23.20761483 -0.00284909 -0.00544602 -0.00361360
C -3.94135459 2.02202645 24.29836764 0.00281068 -0.00112171 0.00473447
C 2.35817138 6.62459996 18.51782043 -0.00220604 0.00318815 -0.00812076
C -4.39087664 7.62151639 18.48428677 -0.01325819 0.00674531 0.00199089
C -10.59871069 3.02672710 24.28642993 0.00044096 -0.00475448 -0.00889415
C -2.14296097 1.98911210 18.88848599 -0.00015328 -0.00278857 0.00639855
C 0.54742759 6.92397918 23.92706274 -0.00724639 -0.00004987 -0.00134753
C -6.10667577 7.67021448 23.94147495 0.00392667 0.00086007 -0.00011745
C -8.49412096 2.83701660 18.92538720 0.00579415 0.00442616 -0.00906117
C -3.14701854 2.85241587 18.51757215 -0.00214056 0.00036406 -0.00303807
C -11.64041115 7.72976057 24.11487959 -0.00301033 -0.00178231 -0.00344072
C -5.08595058 6.90715630 24.32141590 -0.00096817 -0.00485669 0.00506611
C 3.34596917 1.99804035 18.32638424 0.00207144 -0.00457049 0.00170987
C -7.30050580 5.22527595 21.91649338 0.00517833 0.00297765 -0.00162485
C -7.38451385 0.29774449 20.79437501 0.01026415 0.00120876 0.00038785
C -0.99645455 4.60873991 20.88002853 -0.00155376 -0.00239910 -0.00175144
C -0.61531365 9.34926864 22.00997463 0.00026109 0.00003254 0.00414119
C -8.58615767 5.94044537 21.67453146 -0.00110043 0.00387003 0.00421691
C -6.39873855 1.37541781 20.92694198 -0.00250102 -0.00244722 0.00536423
C 0.06241301 3.66249941 21.02980118 -0.00201252 0.00069631 0.00455273
C -1.87521394 8.59963939 21.69329775 -0.00119538 0.00173414 0.00393286
C 3.01134632 13.15401407 5.40344390 0.00137842 0.00100240 -0.00262326
C 0.32779821 17.90989052 0.95975871 -0.00669401 0.00399574 -0.00033153
C 7.05400239 15.56118812 1.16827485 -0.00122644 0.00372734 0.00148629
C 9.50940802 10.50665075 5.08725407 0.00324359 0.00263538 0.00194652
C 4.21987808 12.97901848 4.64531728 -0.00676258 0.00843221 -0.00167380
C 12.27352479 18.15736837 1.40704863 -0.00542903 -0.00041634 0.00423130
C 5.86235710 15.72302038 1.90218252 0.00006809 -0.00265800 0.00071795
C -2.14657230 10.77206497 4.47703528 0.00519157 0.00380072 0.00178970
C 5.18699503 12.02712022 4.99383825 -0.00038083 0.00579184 -0.00024516
C 11.32608583 17.23370814 1.02001838 0.00023166 0.00204366 -0.00097116
C 4.88769362 16.56735473 1.36190081 0.01163418 0.00529255 -0.00300748
C -1.15132136 11.57072424 4.97369572 0.00708647 0.00030835 0.00200961
C 5.03374686 11.26946267 6.20200350 0.00229342 -0.00026301 -0.00947139
C -0.56278315 16.45836283 24.31560959 0.00195230 0.00627077 -0.00126437
C 4.99189694 17.22118258 0.18569780 -0.00695234 0.00194779 0.00330298
C -1.34503590 12.46022914 6.02633872 0.00811719 -0.00065076 -0.00613369
C 7.03420259 11.69131641 0.82104148 0.00259065 -0.00742461 -0.00503646
C 9.45670968 16.43570049 5.43155049 0.00381072 -0.00181255 0.00123268
C 3.03338077 16.95024380 5.57879758 0.00038673 0.00954087 0.00114685
C 0.26618099 12.36334086 0.62912399 0.00020565 -0.00242551 0.00042806
C 6.02937594 12.54305087 0.43096290 -0.00104026 0.00375055 0.00072328
C -2.35048059 17.38441892 5.91868948 0.00240167 -0.00554641 -0.00141263
C 4.07168140 16.12525816 6.03254415 -0.00322659 0.00729144 0.00557355
C 12.44275021 11.51959955 0.35184944 0.00282059 -0.00068873 -0.00527726
C 1.93501230 14.57004578 3.68912279 0.00883799 -0.00843609 -0.00361575
C 1.59271873 9.83462226 2.45911312 -0.00947069 -0.00116544 0.00104904
C 8.05211270 14.08967096 2.81736947 -0.00723449 -0.00169688 -0.00385319
C 8.49030519 19.02793218 3.73526676 -0.00111890 -0.00064496 -0.00292863
C 0.71006725 15.44422731 3.48951986 0.00235990 0.00147871 0.00791425
C 2.91467531 10.51916610 2.46857516 -0.01071298 -0.00766788 -0.00196919
C 9.19152679 13.23431490 3.25551103 0.00050241 0.00329217 -0.00092459
C 7.17554948 18.26564136 3.61146442 -0.00228905 0.00545359 -0.00245322
C 0.35438594 13.14634594 11.37509577 -0.00338826 0.00012155 0.00140675
C -2.53548383 18.07350762 7.09160024 -0.00130309 -0.00320614 -0.00137042
C 3.91722621 15.38368060 7.22854125 0.00130333 0.00708716 -0.00178383
C 6.70701033 10.69197591 11.28350635 0.00624582 -0.00023288 -0.00577235
C 1.60485503 12.99980748 10.82443965 0.00237688 0.00724358 -0.00157669
C 9.13408373 18.01119032 7.65084926 -0.00069130 -0.00500697 0.00297043
C 2.72225439 15.51240921 7.91795805 0.00166966 -0.00367864 -0.00245899
C 33.89564632 10.82347313 10.67059308 0.00265817 -0.00024393 -0.00386678
C 2.52708147 12.05518600 11.28598142 0.00116878 0.01037507 -0.00055773
C 8.15032007 17.13689368 7.27199145 0.00075844 0.00349698 0.00227215
C 1.75545487 16.39616705 7.51058540 -0.00403905 -0.00686657 -0.00542724
C -4.21305829 11.50325876 11.15543079 -0.00434594 -0.00097786 -0.00087659
C 2.13931543 11.22163123 12.31697333 -0.00101354 -0.00351422 -0.00038835
C 8.26854516 16.31247096 6.13928317 0.00091061 -0.00350279 -0.00372837
C 1.90984660 17.15366624 6.34414971 0.00462989 -0.00198566 0.00284873
C -4.27334580 12.24520701 12.33569869 0.00073046 0.00251577 -0.00077966
C 3.82096945 11.41063634 6.89461579 0.00026403 0.00337425 -0.00694593
C 6.65982009 16.19912744 11.72938230 -0.00120811 0.00347229 -0.00314484
C 0.24928818 17.01749376 11.84325174 -0.00079913 -0.00169496 -0.00504324
C -2.58312388 12.40538831 6.67070283 0.00039236 0.00365165 0.00010557
C 2.90560286 12.41652321 6.54210194 0.00339938 -0.00170973 0.00127206
C -5.29587613 16.96433627 12.16169634 -0.01074190 0.00204645 -0.00496082
C 1.24897605 16.18904126 12.25867221 0.00069565 -0.00217071 -0.00218657
C 9.32816119 11.39238112 6.20882053 -0.00485806 -0.00493148 -0.00617942
C -0.74473121 14.53792132 9.75413895 -0.00141454 0.00259397 -0.00112778
C -1.48010524 10.08010832 8.86021415 -0.00181576 0.00891468 0.00040699
C 5.02696639 13.91813852 8.76402141 -0.00171951 -0.00604596 -0.00465966
C 5.42255293 18.82766117 9.75906799 0.00377982 0.00145907 0.00605025
C -1.78216760 15.53892091 9.38655451 -0.00210365 -0.00110330 0.00563721
C -0.51120444 11.20478320 9.09873484 0.00656857 0.00394844 -0.00112637
C 6.21853601 13.03011619 9.01297802 -0.01243473 0.00340491 0.00390953
C 4.21576838 18.03737785 9.33668426 -0.00259803 0.00460539 0.00405336
C -2.84250559 13.16192819 17.55760452 0.00733216 0.00277659 -0.00132926
C -5.50946948 17.85070900 13.22370565 0.00090181 0.00987961 -0.00430490
C 1.03675792 15.40774389 13.36901531 0.00260424 0.00736292 0.00872206
C 3.64786267 10.49804085 17.40383112 -0.00384649 0.00325139 -0.00553313
C -1.58034275 12.97656727 16.88578444 -0.00405901 0.00474977 -0.00115572
C 6.18345424 17.82316217 13.97548634 0.00162727 -0.00278138 -0.00171601
C -0.24644232 15.39956384 14.00706325 -0.00398342 0.00076238 -0.00186696
C -8.14374497 10.84831196 16.60398682 0.00892437 0.00196125 0.00194097
C -0.74887126 12.05505415 17.32306294 -0.00007523 0.00351820 0.00808867
C 5.25109234 16.83829924 13.59964703 -0.00078236 -0.00130836 -0.00509464
C -1.19862166 16.33336931 13.60338717 0.00261089 -0.00360768 0.00447175
C -7.20080828 11.74663776 17.00810253 0.00404586 0.00499021 -0.00642614
C -0.95561250 11.28386481 18.48206009 0.00340548 0.00147314 -0.00158929
C 5.47202768 15.98434882 12.47686903 0.00953092 0.00633491 -0.00102723
C -0.96671621 17.17639596 12.51046637 -0.00158645 0.00425442 -0.00774527
C -7.32743881 12.56883459 18.17314527 0.00328405 -0.00145585 0.00322393
C 0.94137064 11.44305835 13.03345208 0.00122094 0.00128083 0.00056281
C 3.71722741 16.16322793 17.85871889 -0.00201922 -0.00264178 0.00003818
C -2.90497484 17.18468693 17.76737061 -0.00411014 -0.00077346 0.00060528
C -5.51747344 12.33441097 13.00616623 0.00036671 0.00237194 -0.00703320
C 0.12430341 12.44565212 12.61981631 0.00242555 -0.00295912 -0.00284195
C -8.32649809 17.05489432 18.25094656 -0.00864899 -0.00522537 0.00417695
C -1.89563392 16.49754972 18.36012871 0.00264134 -0.00428852 0.00815919
C 6.44887603 11.56224821 12.33018267 -0.00245706 0.00037792 -0.00061999
C -3.80474093 14.69702172 15.89345131 0.00221172 0.00426979 0.00373441
C -4.85815852 9.80344373 14.92003223 0.00188651 0.00240338 0.00302691
C 2.11437453 13.78636475 14.84858743 -0.00038651 -0.00411039 -0.00151248
C 2.51769323 18.84937048 15.72033302 0.00221337 -0.00155293 -0.00312329
C -4.92814597 15.58289226 15.52670437 -0.00089623 -0.00615280 -0.00378501
C -3.57077690 10.55183070 15.23918115 -0.00329778 0.00404721 0.00046620
C 3.29785766 12.86071629 15.10114822 -0.00434691 -0.00265319 -0.00630026
C 1.32486951 17.98627053 15.51904080 -0.00075658 -0.00038481 0.00217371
C -5.82187179 13.30202205 23.70918532 0.00514331 -0.00546057 -0.00140886
C -8.49301184 18.00107696 19.26205998 -0.00240177 -0.00260069 0.00432996
C -2.08314320 15.60655112 19.38509932 -0.00341732 -0.00809863 0.00329765
C 0.50704643 10.75549770 23.58229579 -0.00479974 0.00237793 0.00576493
C -4.66072740 13.22574394 22.95383271 -0.00132601 -0.00163030 0.00195098
C 3.15640885 17.84024563 20.01857760 0.00061380 -0.00294696 -0.00053272
C -3.37846942 15.65966909 20.03206628 0.00311271 0.00416752 -0.00755282
C 27.83550957 10.90619300 22.72186294 -0.00546417 -0.00225325 0.00115308
C -3.59835775 12.40688502 23.37250451 0.01031429 0.00409643 -0.00751019
C 2.24341420 16.92498757 19.66627916 -0.00317399 -0.00874566 0.00075073
C -4.42241765 16.40578830 19.49246235 0.00417150 -0.00321898 -0.00403726
C -10.34333471 11.73718278 23.21398218 -0.00313344 0.00275957 -0.00151297
C 8.26913057 11.68521482 0.13969246 -0.00206444 0.00084053 0.00000543
C 2.45066478 16.06635122 18.52157346 0.00179584 0.00141076 0.00375505
C -4.18033190 17.18245987 18.26560580 -0.00304936 -0.00072825 0.00396078
C -10.53884721 12.45795979 24.41364930 0.00326885 0.00104370 0.00156071
C -2.12928765 11.58389290 19.22384240 -0.00171122 0.00605859 -0.00011521
C 0.75192907 16.49046172 23.71722003 -0.00012765 -0.00611393 0.00262870
C -5.75576066 17.16323930 23.99755475 0.00072136 -0.00335261 -0.00161910
C -8.53244583 12.40205663 18.91934795 -0.00400468 -0.00184114 0.00081871
C -3.07015666 12.47973933 18.75041048 0.00881620 -0.00263760 -0.00027065
C -11.48712667 17.04671224 24.35953771 -0.00292479 -0.00256817 -0.00198244
C 7.28072174 16.32207748 0.00587116 0.00537458 0.00767243 0.00220186
C 3.48794103 11.39323703 18.44817145 -0.00518203 -0.00319549 0.00152379
C -7.02753082 14.41718939 22.01747563 0.00021192 0.00406924 0.00030414
C -7.71631274 10.06116361 21.22410379 -0.00653763 -0.01017985 -0.00136299
C -1.01071328 14.12068743 20.98873338 -0.00132007 0.00138279 0.00009320
C -0.49943337 18.84354005 21.83065895 -0.00404050 -0.00447585 -0.00526157
C -8.00576355 15.55746310 21.88265521 0.00123381 -0.00092792 0.00241267
C -6.62249858 11.05353190 21.39059598 0.00219682 0.00701810 -0.00374406
C 0.13940518 13.26783295 21.45425933 -0.00359746 0.00180880 0.00464676
C -1.57346380 17.83345537 21.76415045 0.00708432 -0.00296207 0.00166235
C 3.20160733 22.76166068 5.02022523 -0.00292962 -0.00038739 0.00220489
C 0.56552746 27.67096580 1.00188430 0.00479066 -0.00348163 -0.00191078
C 7.10303505 24.93953499 0.92540040 0.00835571 0.00330586 -0.00287626
C 9.88178146 20.26395380 5.26910211 0.00146886 0.00817856 0.00405870
C 4.42908260 22.63772847 4.34448552 -0.00193516 -0.00021706 0.00660527
C 11.96557231 27.60412843 1.53342745 -0.00181337 0.00064357 0.00176368
C 6.02121590 25.23593630 1.73018823 0.00849292 -0.00333835 0.00038035
C -2.15755799 20.39983032 4.58920523 -0.00351352 0.00033263 0.00079046
C 5.34027966 21.70181731 4.78060643 0.00727781 -0.00602695 -0.00538842
C 11.07199305 26.65682908 1.03625248 -0.00041346 0.01233371 -0.00232381
C 5.03713807 26.10580023 1.27755484 -0.00323032 -0.00102921 -0.00543615
C -1.12147501 21.20574435 5.03171465 0.00040539 -0.00263059 0.00579584
C 5.13413294 20.90022893 5.91705054 0.00240827 -0.00936072 0.00370891
C -0.62663679 25.93067515 24.29774263 0.00681497 -0.00025331 0.00095087
C 5.26258551 26.86751562 0.10297324 0.00499136 -0.00056642 -0.00000045
C -1.19512114 21.92548509 6.23399190 -0.00118857 -0.01199317 -0.00108368
C 6.96766791 21.17749068 0.48860715 -0.00017826 0.00208769 -0.00163997
C 9.68698399 26.08396335 5.49705242 -0.00133926 0.00035793 0.00706202
C 3.20885705 26.65138279 5.47850654 -0.00127268 -0.00064762 0.00116950
C 0.84988903 21.80963119 0.83729917 0.00092225 0.00301906 -0.00087256
C 5.98161176 22.01795150 0.03531776 -0.01008975 0.00119766 0.00735239
C -2.21923788 26.68875874 6.09469637 0.00313077 0.00518488 -0.00773354
C 4.22163623 25.80246482 5.82175483 -0.00853615 -0.00278565 -0.00179424
C 12.45954531 21.29487038 0.02869394 -0.00018903 -0.00283030 0.00181697
C 2.06689085 24.41076053 3.53844898 0.00127124 0.00403491 -0.00229920
C 1.54128712 19.17538758 2.61243532 -0.00220502 0.00147268 -0.00639401
C 8.32067702 23.54939918 2.48299524 -0.00222604 -0.00407697 0.00319204
C 8.57788420 28.52558952 3.50644020 0.00459622 -0.00241043 -0.00226325
C 0.73785205 25.03149292 3.47163252 0.00381979 -0.00042911 -0.00329264
C 2.73155754 20.06385923 2.91249889 0.00338755 -0.00496711 -0.00452597
C 9.56775537 22.70344025 2.61660564 -0.00142339 0.00300149 0.00628558
C 7.40526855 27.61669108 3.28052765 0.00383640 0.00842462 0.00256301
C -0.03833605 22.80145599 11.35095948 0.00197298 0.00995819 -0.00096262
C -2.40298977 27.52971685 7.19577734 0.00154148 0.00826640 -0.00185237
C 4.05538528 25.04457488 7.00822748 -0.00034192 -0.00545189 -0.00263342
C 6.70215042 20.20188571 11.39965742 0.00420771 -0.00083392 0.00698960
C 1.11783548 22.65358624 10.56415672 0.00372090 0.00256034 0.00153692
C 9.43480354 27.64560777 7.74815351 -0.00375583 -0.00231321 0.00164902
C 2.83016231 25.08354347 7.72814930 -0.00132732 0.01102268 0.00305880
C -5.14011297 20.10509988 10.50471252 0.00439686 0.00308122 0.00052919
C 2.13047747 21.72943674 10.83704083 0.00610383 0.00302493 -0.00211603
C 8.38280063 26.89606619 7.26107910 0.00088037 -0.00116523 0.00313906
C 1.81265193 25.86203455 7.22545263 -0.00310177 -0.00368318 -0.00543209
C -4.19623534 21.01980543 10.92977227 -0.00510535 0.00175893 0.00332930
C 2.02313589 21.00143898 12.01605002 -0.00098448 0.00167810 0.00102947
C 8.46471083 26.07324501 6.12896014 -0.00302677 0.00067073 0.00240957
C 1.97017369 26.67487426 6.16204435 0.00559754 -0.00162668 -0.00138792
C -4.50181917 21.95524695 11.94417909 -0.00244959 0.00302923 -0.00005503
C 3.94882746 21.07850880 6.57316212 0.00314941 0.00184561 -0.00619597
C 6.45812755 25.99252672 11.59234354 0.00440842 0.00494007 -0.00024936
C 0.28629313 26.72215508 11.50925749 0.00061123 0.00223243 0.00182110
C -2.42376190 21.89383771 6.92843805 0.00374279 -0.00626058 0.00613198
C 3.02419898 21.91620072 6.10181669 -0.00023365 -0.00537004 -0.00735687
C -5.38803337 26.62732148 12.01556856 -0.00568768 0.00183069 0.00401824
C 1.19152527 25.75480089 12.01096983 -0.00355966 0.00482068 -0.00027715
C 9.69594501 21.27453679 6.30999770 0.00080891 -0.00453508 -0.01123885
C -1.22701813 24.23013126 9.85657308 0.01391768 -0.00379273 0.00436116
C -1.25316078 19.22514749 8.77801406 -0.00085846 0.00158748 0.00653620
C 5.28669542 23.62153003 8.55420863 0.00362079 -0.00814998 -0.00554768
C 5.37886901 28.34324062 9.59479464 0.00139932 -0.00098718 -0.00005124
C -2.47073272 25.04483609 9.82602188 0.00579170 -0.00040949 -0.00191713
C 0.12975302 19.83222078 9.11319895 -0.00245201 -0.00068348 -0.00088369
C 6.50957650 22.84814374 8.83304022 -0.00045888 -0.00434475 0.00724851
C 4.12346940 27.49051074 9.37301456 -0.00869917 0.00012628 0.00244147
C -3.06727947 22.87334806 17.22795466 0.00209996 0.00069367 0.00615535
C -5.55306700 27.53444868 13.04958039 -0.00781059 -0.00208166 -0.00736744
C 0.95286193 25.03556789 13.14607121 -0.00506845 0.00249621 0.00394927
C 3.61126830 20.21131889 17.34844528 0.00085466 -0.00329182 0.00291639
C -1.90533547 22.65050800 16.47871947 -0.00927450 0.00225356 0.00260550
C 5.91784833 27.63631517 13.78938891 0.00369488 -0.00066156 0.00075436
C -0.28550690 25.17300233 13.82424083 0.00710424 -0.00885301 0.00576975
C 30.86067436 20.23036357 16.56188251 -0.00211804 0.00206990 -0.00815654
C -0.94852825 21.75262653 16.89630265 0.00217700 0.00078742 0.00350083
C 4.98867058 26.71610275 13.34929176 -0.00087155 0.00100586 0.00168182
C -1.16566209 26.16748108 13.45433309 -0.00990506 -0.00254002 0.00386697
C -7.35859244 21.21929456 16.88462686 -0.00067056 -0.00347552 -0.00159470
C -1.10744373 21.05387045 18.11622692 0.00547994 0.00242516 -0.00179267
C 5.20976519 25.84799160 12.24372657 0.00418207 -0.00365187 0.00252141
C -0.93219114 26.91076161 12.26227965 -0.00132667 0.00659640 0.00028179
C -7.62980988 22.02153627 18.03663150 0.00366991 0.00686862 -0.00388386
C 0.82704183 21.09646909 12.77500347 0.00209172 -0.00427534 0.01155278
C 3.40699787 25.88330286 17.50019082 0.00177450 0.00256357 0.00422230
C -2.98399052 26.77057347 17.67687748 0.00500758 -0.00066433 -0.00682474
C -5.74150974 21.98164423 12.46106311 0.00665271 0.00848025 -0.00284275
C -0.19385445 21.95396492 12.42488668 -0.00068596 -0.00584870 -0.00174712
C -8.34270813 26.80201814 18.02852205 -0.00318532 0.00455771 -0.00515713
C -1.98539465 25.89882075 18.08352273 0.00061487 0.00399958 -0.00282395
C 6.48280833 20.91941125 12.53970567 -0.00116128 -0.00057335 0.00346153
C -4.27213472 24.22277989 15.69526747 -0.00508639 -0.00243536 0.00021274
C -4.29714770 19.39941860 14.72885194 -0.00350388 0.00317633 -0.00190033
C 2.05880644 23.58024401 14.71749161 0.00348984 0.00855869 -0.00173791
C 2.46904286 28.48864028 15.60032149 -0.00065608 0.00359836 0.00105166
C -5.52929054 25.06507128 15.60861961 -0.00027519 -0.00056677 -0.00114339
C -2.92132889 20.04903461 14.82744750 -0.00924785 -0.00754525 0.00336035
C 3.19943058 22.58501678 14.85453560 -0.00324132 -0.00114693 0.00528326
C 1.28814811 27.68167853 15.12039124 -0.00021761 -0.00229548 -0.00566090
C -5.83573269 22.82854912 23.39827852 -0.00739412 -0.00759776 -0.00432627
C -8.49965793 27.70061425 19.14274635 -0.00323657 -0.00155172 -0.00334491
C -2.20219693 25.12381239 19.22552219 -0.00224795 0.00189745 0.00310948
C 0.53994194 20.41041340 23.35121565 0.00835157 -0.00320534 -0.00428966
C -4.57191323 22.86494865 22.76532887 0.00300509 0.00294501 0.00673697
C 3.04250855 27.46593018 19.78295655 0.00237217 -0.00486981 -0.00230192
C -3.37407960 25.22204994 19.90403503 0.00043560 0.00016557 0.00054784
C -10.97536617 20.39571660 22.84911724 0.00234873 -0.00700169 -0.00042097
C -3.62914053 21.91907551 23.07896285 -0.00845323 -0.00210025 0.00348895
C 2.07862218 26.58182795 19.36816878 -0.00501920 0.00415219 0.00450310
C -4.30269387 26.14835091 19.52133479 0.00666230 -0.00289200 0.00111119
C -9.94481486 21.19923669 23.27825396 -0.00144613 0.00207443 -0.00253868
C -3.83428901 21.16635898 24.26598199 -0.00037893 -0.00658062 0.00246180
C 2.24201760 25.73301000 18.26314830 0.00050317 -0.00420305 -0.00071580
C -4.19356266 26.93023605 18.32060609 0.00361686 -0.00185234 0.00244031
C 1.99468871 21.94016423 0.03215632 0.00301227 -0.00173994 0.00061464
C -2.34902766 21.18454494 18.76296045 -0.00332117 -0.00756864 0.00039925
C 0.73458655 25.96046747 23.82131695 -0.00735428 -0.00137513 -0.00639529
C -5.55557208 26.81061193 23.91327204 0.00287561 0.00335105 -0.00081786
C -8.72883391 21.76734282 18.83699457 0.00375984 -0.00295391 -0.00006177
C -3.35342558 22.06029087 18.34678129 0.00217366 0.00335768 0.00427200
C -11.18915443 26.83908039 24.33521080 0.00253480 -0.00835279 0.00377169
C -4.72115349 25.74595871 24.22854581 -0.00526284 0.00227947 0.00955146
C 3.38872183 21.02262714 18.45150805 0.00150309 -0.00681876 0.00241500
C -6.99597892 24.19554331 21.75643290 -0.00502530 0.00711432 0.00216384
C -7.04940569 19.28514407 20.73975078 -0.00165485 0.00303493 -0.00149067
C -1.19112538 23.56417522 20.76616428 0.00294503 -0.00351692 -0.00151689
C -0.44596730 28.44040382 21.63856395 0.00739004 -0.00190357 0.00865603
C -8.16127706 25.23665313 21.48260572 0.01033951 -0.00474778 0.00169119
C -5.88532629 20.20695913 20.84314004 0.00253683 0.00139730 0.00096641
C 0.02766576 22.74349098 21.14391559 0.00217616 -0.00220595 0.00331365
C -1.58294962 27.42774295 21.49186442 -0.00051795 0.00267282 -0.00886838
C 16.01871388 3.83190991 5.42144094 0.00182306 0.00131285 0.00410405
C 13.47374789 8.55662484 1.03564996 -0.00653959 0.00084258 -0.00095290
C 19.90421460 5.93861692 0.97294705 0.00322297 -0.00209188 -0.00001887
C 22.85311065 1.03625266 4.95414725 -0.00500504 0.00872702 -0.00973012
C 17.26721422 3.79963313 4.73666754 0.00119095 0.00163400 -0.00000211
C 25.28028275 8.42021090 1.68012973 -0.00125892 -0.00481858 0.00238868
C 18.68464851 5.96993285 1.67238172 -0.00119873 0.00149035 -0.00230478
C 10.73347909 1.54620162 4.49112077 -0.00281365 -0.00341831 -0.00310151
C 18.26141750 2.83255315 5.02655050 -0.00026959 -0.00356849 0.01217963
C 24.23888296 7.51733648 1.35213081 0.00666770 0.00323746 0.00312638
C 17.65466797 6.78707903 1.28447305 -0.00039359 -0.00818574 0.00078423
C 11.70403359 2.36955750 5.02608594 0.00056368 0.00195376 -0.01040852
C 18.04913630 2.04961066 6.15770247 0.01855897 0.00219472 -0.00159920
C 24.38117458 6.67904421 0.30149983 -0.00112523 -0.00643914 -0.00095883
C 17.74430475 7.53910919 0.10131258 0.00447054 -0.00225101 -0.00102913
C 11.50237508 3.00355460 6.24561334 0.00286016 -0.00073865 -0.00191126
C 20.36406014 1.81934439 0.52241952 0.00781425 -0.00302012 0.00118388
C 23.04454221 6.75302047 5.72426805 0.00043956 0.00084413 0.00388852
C 16.14646803 7.57610638 5.42903849 0.00947489 0.00234429 0.00115263
C 13.32376689 2.84901762 0.47161430 -0.01176820 0.00023168 -0.00137999
C 19.27568945 2.62334536 0.24524462 0.00272483 -0.00460915 0.00611390
C 10.89127598 7.62186235 5.99312992 -0.00630446 0.00263929 -0.00121381
C 17.20976282 6.85701857 5.91033826 0.00009299 -0.00292280 0.00114232
C 25.63105921 1.75373436 0.05447705 0.00068860 -0.00138103 0.00017692
C 14.68592700 5.12317277 3.72485596 -0.00001197 0.00070440 -0.00541921
C 14.25595303 0.47725477 2.56753997 -0.00146568 0.00131407 -0.00080820
C 21.18716954 4.67431733 2.49999037 -0.00463049 -0.00171708 0.00156610
C 21.46408399 9.32646241 3.69444066 -0.00166582 -0.00514293 0.00086998
C 13.60516660 6.17337674 3.58779510 0.00397102 0.00777008 -0.00507517
C 15.61778003 1.15085355 2.80839137 -0.00358281 0.00904225 0.00267172