2880
Time=5000.00000000 pbc="T T T" Lattice="39.48324533 0.00000000 0.00000000 0.00000000 28.76755700 0.00000000 -12.01657881 0.00000000 24.35538971" energy=-18395.88730770 virial="-30.86912154 1.57234814 -45.02399684 1.57234814 19.74796295 13.18340805 -45.02399684 13.18340805 33.44941862" stress="0.00132228 0.00011569 -0.00178744 0.00011569 0.00325676 0.00045856 -0.00178744 0.00045856 0.00391537" Properties=species:S:1:pos:R:3:vel:R:3
C 3.24926803 3.87702850 5.33441237 -0.00535602 0.00141431 -0.00297533
C 0.48991871 8.41399674 1.05281859 0.00540736 -0.00518597 0.00013125
C 7.03007730 5.97938545 1.05409460 0.00073493 -0.00328218 0.00303087
C 9.50086140 1.15331815 5.17146288 0.00217690 -0.00989943 -0.00078989
C 4.42574865 3.71368399 4.59578846 -0.00772431 0.00141753 -0.01213464
C 12.43250962 8.35152577 1.88058562 0.00172603 -0.00795597 -0.00207453
C 5.81556918 6.10104542 1.71940923 0.00141854 -0.00392418 -0.00340546
C 37.25515225 1.39511620 4.40263897 0.00364352 0.00434318 -0.00352362
C 5.28838968 2.73821543 4.99259557 -0.00157368 -0.00190872 0.00333695
C 11.49281435 7.55579273 1.24583804 -0.00469810 0.00455275 -0.00038819
C 4.83946910 6.97913325 1.30047015 0.00755257 0.00436500 -0.00665391
C -1.27595727 2.30087399 4.86330997 0.00259697 0.00439713 -0.00228895
C 5.19481405 2.02464140 6.16645685 -0.00341342 -0.00513764 0.00277408
C 11.76747481 6.71102497 0.11199027 0.00348368 -0.00430053 -0.00193860
C 5.02825653 7.83292951 0.23624424 0.00529505 -0.00066394 -0.00094802
C -1.45789687 3.02104938 6.02901348 0.00165865 -0.00076509 -0.00705698
C 7.04570671 2.19649921 0.96589118 0.00810742 0.00101745 -0.00794077
C 9.81412028 6.90612088 5.51229782 -0.00377632 0.00037913 -0.00015159
C 3.24096101 7.74729240 5.67231679 -0.00111488 -0.01124555 0.00183384
C 0.22238004 3.19139367 0.53814538 -0.00791934 -0.00467771 0.00301723
C 6.02525327 2.94509156 0.47833885 0.00157661 0.00437960 0.00157209
C -2.25466439 7.82610420 6.03907931 0.00743114 0.00490042 -0.00228618
C 4.27947335 6.91754841 6.09723539 0.00017496 -0.00685687 0.00330220
C 12.57836072 1.67855419 0.25489517 -0.00080097 -0.00048979 0.00358030
C 2.02310026 5.22162505 3.74664353 0.00884863 -0.00057178 -0.00029542
C 1.58785059 0.59022587 2.50355593 -0.00751997 -0.00446779 -0.00172612
C 8.16120680 4.53451585 2.63014274 0.00531216 -0.00105828 0.00263089
C 8.33123684 9.31019701 3.72977380 -0.00259991 -0.00677682 -0.00414016
C 0.93057371 6.30123267 3.53071236 -0.00043378 0.00256562 -0.00373739
C 2.91254002 1.27562243 2.57024565 0.00346181 0.00090685 -0.00093677
C 9.41038262 3.73506339 2.90205186 0.00934007 -0.00143222 0.00599513
C 7.13567376 8.42978889 3.55648569 -0.00680387 -0.00217113 -0.00217153
C -0.03488948 3.50927708 11.15644820 -0.00815467 -0.00417388 -0.00248836
C -2.65681705 8.56276304 7.16537830 0.00252317 0.00467317 0.00945588
C 4.16728480 6.09696848 7.24806512 -0.00428257 0.00487776 0.00119686
C 6.58588837 0.91814054 11.32139096 -0.00162838 -0.00125310 -0.00106926
C 1.24437229 3.40319876 10.50639471 -0.00560548 0.00301573 0.00417025
C 9.22440476 8.37196781 7.78953502 -0.00141616 -0.00032950 0.00467526
C 3.00927590 6.33634203 7.99237519 0.00195448 -0.00378555 0.00612099
C 34.22093809 1.39668418 10.45108099 -0.00963738 -0.00190443 -0.00099458
C 2.22779113 2.55147413 10.99428931 0.00520672 -0.00123140 0.00485220
C 8.33675854 7.43273034 7.31142440 -0.00003925 0.00399942 -0.00318533
C 2.00249825 7.14910815 7.59361695 0.00422372 0.00608020 -0.00130951
C -4.27641927 2.21842307 10.91123292 0.00550308 -0.00107858 0.00274870
C 1.96486300 1.66290509 12.13720054 -0.00012591 0.00545393 0.00106638
C 8.57821850 6.76134201 6.07538333 0.00010485 0.00009808 -0.00361211
C 2.09420525 7.93411328 6.43981470 -0.00409257 -0.00184887 0.00118216
C -4.42620114 3.13461031 11.99153473 0.00865042 0.00329843 0.00019835
C 3.92887114 2.12446475 6.87955487 0.00051964 0.00462289 0.00169139
C 6.79105565 6.97778774 11.54719024 -0.00434622 -0.00285826 -0.00019672
C -0.11258667 7.33421518 11.69396803 -0.00794615 0.00653273 0.00788409
C -2.68571551 2.91591553 6.69661241 -0.00329108 0.00903834 -0.00120411
C 3.01102145 3.06890637 6.44618565 -0.00453325 0.00288617 0.00290017
C -5.44795108 7.59342140 11.97769756 0.00501550 -0.00354811 -0.00164481
C 0.96391869 6.60825749 12.09036707 -0.00315310 0.00642949 -0.00198945
C 9.28923788 2.00805944 6.25474522 0.00316383 -0.00506486 0.00392135
C -1.02927470 5.14320091 9.63528813 0.00140547 -0.00633515 0.00015734
C -1.56540829 0.29847618 8.69547179 -0.00690751 -0.00375747 -0.00105615
C 5.28088359 4.40009133 8.72434710 -0.00373003 -0.00034728 0.00702518
C 5.39976349 9.31919931 9.80328266 0.00025962 0.00159559 -0.00033099
C -2.18044846 6.03589037 9.41058515 -0.00303984 0.00859037 0.00282134
C -0.34254703 1.05160641 8.83398481 0.00171762 -0.00117846 -0.00250034
C 6.49078873 3.57682947 8.93959299 0.00710062 -0.00192063 0.00803564
C 4.15286895 8.49706932 9.81763065 -0.00304759 0.00338944 -0.00946033
C -2.91925097 3.64112608 17.27464203 -0.00055396 -0.00416955 0.00427263
C -5.66792173 8.41105243 13.12775852 0.00138547 0.00748434 0.00106518
C 0.86900518 5.72278074 13.14908524 0.00172491 0.00922520 -0.00114140
C 3.66842056 0.97293026 17.25731992 -0.00514425 0.00705473 -0.00322200
C -1.65692865 3.49365255 16.67156893 -0.00272567 0.00519612 0.00021207
C 6.37907959 8.52678641 13.79199303 -0.00265235 0.00597460 -0.00068796
C -0.35536713 5.61958147 13.76572289 0.00401219 -0.00479152 0.00436304
C 31.16701457 1.42906880 16.54420666 0.00232526 0.00126548 -0.00500542
C -0.81416897 2.38502025 16.91994884 0.00100354 -0.00158046 -0.00149595
C 5.30403767 7.71725416 13.38904736 -0.00213919 0.00277260 0.00081938
C -1.39429634 6.49184823 13.50386155 -0.00306575 0.00482082 -0.00179276
C -7.47205366 2.49723452 16.90313714 0.00064954 -0.00228537 0.00249573
C -1.08384436 1.55238857 17.98706108 0.00742926 0.00140621 -0.00773276
C 5.55911903 6.81911561 12.24095348 -0.00276520 0.00096160 -0.00179247
C -1.29137866 7.38862812 12.43616726 0.00157429 0.00208974 0.00033206
C -7.74781092 3.32354146 18.00093821 -0.00273761 -0.00300720 0.00490854
C 0.69615514 1.75605963 12.78668683 0.00055208 -0.00166713 -0.00153806
C 3.73817688 6.70417547 17.57813345 0.00773690 0.00415467 0.00127632
C -2.58529524 7.53085603 17.88443750 0.00058685 0.00080730 0.00550293
C -5.72347138 3.24914827 12.49169987 0.00366766 -0.00239604 0.00178713
C -0.23175115 2.73147699 12.30353629 0.00571447 -0.00131773 0.00144856
C -8.45545608 7.56868171 18.09681328 -0.00035103 -0.00278339 -0.00841642
C -1.70333057 6.53509918 18.23336917 -0.00529651 -0.00319321 0.00050332
C 6.42169626 1.88435180 12.32989094 0.00194313 -0.00060673 -0.00418466
C -3.93639428 5.01861617 15.60911611 -0.00187727 -0.00784125 -0.00393016
C -4.57411790 0.59830427 14.74108367 0.00441519 -0.00734938 -0.00347128
C 2.15364975 4.12329277 14.60812470 -0.00055069 -0.00916892 -0.00428455
C 2.62810638 9.29421564 15.79279239 -0.00330855 -0.01125995 -0.00373079
C -5.15095025 5.92262883 15.28045052 0.00477203 -0.00474068 -0.00099833
C -3.25778578 1.14312274 15.14690129 0.00311643 0.00170558 -0.00291359
C 3.39835435 3.23460030 14.53644479 0.00066163 -0.00572750 0.00670921
C 1.41296175 8.48782655 15.67996105 0.00122479 -0.00055384 0.00288508
C -5.82287438 3.70286396 23.72834748 0.00359113 -0.00606789 -0.00039176
C -8.52983129 8.32132411 19.27868570 0.00539044 0.00067427 -0.00163394
C -1.99642835 5.70444977 19.33427289 0.00352212 -0.00548419 -0.00413103
C 0.76590345 0.94284435 23.40714354 0.00330303 0.00659101 0.00693199
C -4.66969179 3.53416270 22.89980109 0.00099589 0.00310747 0.00166041
C 3.20339152 8.29936922 19.76192605 0.00355859 0.00285475 -0.00232034
C -3.21851149 5.80263711 20.03395506 -0.00096486 -0.00536501 -0.00164907
C 28.27646278 1.52118629 22.65832249 0.00166309 0.00360442 -0.00175061
C -3.66494386 2.76126317 23.34218581 -0.00211990 0.00015584 0.00228116
C 2.25875672 7.38592317 19.33878595 -0.00199517 0.00893594 -0.00553154
C -4.13868645 6.74997741 19.65221819 -0.00039486 0.00111795 0.00375875
C -10.28458818 2.42815457 23.18211600 0.00298892 0.00071796 -0.00088061
C 8.22415076 2.09122540 0.21850299 -0.00334331 -0.00207374 0.00496042
C 2.52002754 6.60860013 18.22832070 -0.00429755 0.00797701 -0.00259950
C -3.83951218 7.55996408 18.51460358 0.00105272 0.00924914 0.00245559
C -10.58962398 3.30820237 24.26129554 0.00004238 0.00287839 0.00624230
C -2.28058700 1.79246744 18.67967448 -0.00629659 0.00294978 0.00559321
C 1.10087690 6.81574678 23.97131681 -0.00478941 -0.00702966 0.00592244
C -5.78954249 7.66899932 23.78657767 0.00562383 0.00344317 -0.00967496
C -8.98871274 3.16867530 18.63062528 0.00286884 0.00113451 0.00057094
C -3.14917119 2.91109727 18.42418498 -0.00494973 0.00372614 -0.00186006
C -11.34881958 7.69271248 24.21268687 -0.00198089 -0.00353480 -0.00341832
C -4.84190772 6.82399200 24.23088463 0.00073311 0.00977249 -0.00420632
C 3.32012347 1.86130293 18.35131080 0.01138807 -0.00182642 -0.00153782
C -7.09273636 4.94908067 21.95585400 0.00719039 0.00142261 -0.00046870
C -7.41123065 0.62756461 20.78651052 -0.00115420 0.00456440 -0.00011433
C -0.79869279 4.22680396 20.90442068 0.00005517 -0.00022054 0.00409483
C -0.46221409 9.19161426 21.84540081 -0.00983358 0.00146920 -0.00165646
C -8.24809760 5.86422188 21.68464817 0.00290472 -0.00035245 0.00550004
C -6.01939760 1.14060965 20.84181760 0.00305116 0.00164692 -0.00106155
C 0.28104897 3.24632353 21.00416448 -0.00112704 -0.00615933 -0.00029461
C -1.61381712 8.24709349 21.64376921 0.00246035 -0.00501388 -0.00139597
C 3.07984484 13.32713984 5.01424802 0.00918659 0.00717853 0.00136744
C 0.68017006 18.10904073 0.93418229 -0.00125401 -0.00343334 0.00051796
C 7.14743470 15.33346135 1.03849433 0.00641136 0.00860168 0.00180403
C 9.67436689 10.74183777 5.17988512 -0.00010950 -0.00583062 0.00100641
C 4.35950577 13.30517841 4.43991041 0.00177645 0.00117397 0.00590967
C 12.37914592 17.81335188 1.71308055 -0.00214160 -0.00079352 -0.00207187
C 5.89997534 15.40597088 1.72976669 -0.00564090 -0.01038375 0.00472571
C 37.07912688 10.82107879 4.39652470 0.00095646 -0.00256773 0.00490239
C 5.30917610 12.40155319 4.89016135 0.00566210 -0.00686943 -0.00262721
C 11.42956199 16.84742663 1.31247332 -0.00002890 -0.00057461 0.00643310
C 4.96412450 16.36071709 1.38567237 -0.00439077 0.00217088 -0.00734352
C -1.47867206 11.73025011 4.81393516 -0.00207272 0.00438723 -0.00799555
C 5.05485180 11.53862476 5.96226773 0.00312834 0.00758757 -0.00908291
C 11.58777887 16.10180311 0.12791041 0.00472886 0.00442496 -0.00177552
C 5.04023302 17.13208123 0.19483649 0.00404380 0.00550619 -0.00463989
C -1.63826309 12.45149563 5.99525566 0.00280968 -0.00398937 0.00923825
C 6.96752350 11.61339021 0.78295330 -0.00128416 0.00011939 -0.00151827
C 9.60172261 16.54777132 5.45231631 -0.00239368 -0.00177270 0.00382192
C 3.01841096 17.02100997 5.42086952 -0.00004708 -0.00156319 0.00258435
C 0.28182418 12.21249193 0.71750914 0.00318761 -0.00284857 0.00304143
C 5.92265797 12.38695387 0.38063789 -0.00366791 -0.00345947 0.00152683
C -2.36719718 17.45315049 5.99844508 0.00189309 0.00343092 0.00456224
C 4.08733757 16.23273951 5.91966200 0.00019793 0.00351869 -0.00334131
C 12.39874510 11.47448540 0.08522580 -0.00500563 -0.00318190 0.00178835
C 1.96172401 14.72237802 3.37531384 -0.00256853 0.00754454 0.00040482
C 1.58144628 9.86303079 2.64583036 0.00270879 -0.00916108 -0.00074186
C 8.30946059 13.90341953 2.59854981 -0.00270576 -0.00384644 0.00299430
C 8.35377299 18.93050210 3.65916617 0.00268574 -0.00689290 0.00005057
C 0.70286114 15.48199982 3.01469235 0.00638613 0.00004792 -0.00691673
C 2.75216500 10.81667725 2.84089402 -0.00003652 -0.00437875 -0.00414468
C 9.41589502 12.92882524 2.72720057 0.00642549 0.00724865 0.00239257
C 7.06787409 18.17768382 3.58302114 0.00156391 0.00066240 0.00208238
C 0.31256181 13.19879996 11.27761967 0.00164775 -0.00074002 0.00231482
C -2.60384371 18.09008210 7.20298478 -0.00047901 -0.00139343 0.00272309
C 3.91634775 15.40374227 6.99952674 0.00544517 0.00117732 -0.00094937
C 6.61799705 10.79464423 11.35520064 -0.00121732 0.00419396 0.00438782
C 1.50952089 13.08478354 10.64873543 -0.00100273 0.00062818 0.00372087
C 9.33738443 18.04517627 7.80291417 -0.00101182 -0.00012682 -0.00775722
C 2.64798028 15.37131079 7.66638704 -0.00221144 -0.00514409 -0.00109739
C -5.14052978 10.65259248 10.73148353 0.00223807 -0.00157780 -0.00416333
C 2.43309547 12.13153103 11.03648774 0.00143820 0.01152012 0.00153839
C 8.40131153 17.13148397 7.47148303 0.00238457 -0.00798449 0.00001494
C 1.69417984 16.30331072 7.33115893 -0.00264106 0.00357055 -0.00165286
C -4.20666917 11.62280180 11.09948553 -0.00495454 0.00545268 0.00392525
C 2.20736977 11.16703833 12.02572767 0.00240070 0.00053697 0.00161548
C 8.53814189 16.32466910 6.31228117 0.00341760 0.00871875 -0.01050502
C 1.85694846 17.14466425 6.15304190 -0.00279529 0.00274649 0.00607508
C -4.48699371 12.43269522 12.18024131 0.00883822 0.00355062 0.00240413
C 3.74112802 11.53031366 6.51332955 -0.00460511 -0.00313720 -0.00243396
C 6.79876646 16.47263925 11.54127139 -0.00062130 0.00276812 -0.00136954
C 0.21864172 17.12768384 11.54045005 -0.00062846 0.00371428 0.00507970
C -2.87416210 12.35162964 6.67330209 0.00532454 -0.00122412 0.00175357
C 2.82973791 12.44225894 6.08052704 0.00176882 0.00249081 0.00688310
C -5.21215110 17.25696061 12.06014464 0.00582383 -0.00294333 -0.00708028
C 1.13151459 16.21197678 11.94916780 -0.00077504 -0.00120158 0.00134287
C 9.49608079 11.55130415 6.26679963 0.00235115 -0.00080263 0.00171213
C -0.81885018 14.70525531 9.80939651 -0.00227810 0.00170550 0.00280778
C -1.42039107 9.76011072 8.87172640 -0.00356148 0.00072737 0.00118640
C 5.06800894 13.90207458 8.51042199 0.00649160 0.00205640 -0.00471337
C 5.49690727 18.88092938 9.56319290 -0.00701304 0.00183501 -0.00942775
C -2.05935632 15.55558040 9.75212999 -0.00026708 -0.00217243 -0.00325997
C -0.40256799 10.83448815 9.05634600 -0.00828378 0.00421386 0.00143064
C 6.29887349 13.09766156 8.73250339 0.01010390 0.00484726 -0.00756876
C 4.34516039 17.93614241 9.23892445 -0.00326375 -0.00779054 -0.00408290
C -2.81185610 13.17398005 17.40082645 0.00376437 -0.00083305 0.00589867
C -5.48120525 18.07591569 13.15799136 0.00488982 0.00458883 -0.00280111
C 0.90464012 15.47952967 13.14937558 -0.01279949 -0.00557780 0.00040290
C 3.82332934 10.84385564 17.28848207 0.00209201 -0.00757820 -0.00614540
C -1.55115606 13.14060518 16.62823229 -0.00164527 -0.00173688 -0.00071005
C 6.30803777 17.98875580 13.79227244 0.00435773 0.00648611 -0.00512056
C -0.29987671 15.63562491 13.85772587 0.00078377 0.01447001 -0.01328166
C 31.16522257 10.62647409 16.55166141 -0.00112752 -0.00555951 0.00292293
C -0.62751585 12.27744192 16.96151287 0.00079310 -0.00378666 0.00465465
C 5.34427073 17.13041471 13.35387664 0.00183980 -0.00195162 -0.00515444
C -1.14598104 16.63526079 13.50293731 -0.00104700 -0.00386175 0.00426138
C -7.30597719 11.45627634 16.95221228 0.00378229 -0.00046041 -0.00305569
C -0.82398322 11.32509400 18.04439101 -0.00037717 -0.00541414 -0.00468851
C 5.57417346 16.31061059 12.21023940 0.00646741 0.00051015 -0.00094910
C -0.86421093 17.49130285 12.34433642 -0.00050396 -0.00745042 -0.00126820
C -7.44030459 12.34712876 18.08159454 0.00044707 0.00168927 -0.00001257
C 0.92396412 11.26892005 12.62119495 0.00665809 -0.00342951 0.00104233
C 3.78361721 16.34786451 17.68426562 -0.00735660 0.00027387 -0.00546249
C -2.58612232 16.91999471 17.61856823 0.00352843 -0.00345545 0.00380467
C -5.69026031 12.38954375 12.86586826 -0.00032174 -0.00749167 0.00198971
C 0.02882395 12.22350403 12.29499216 -0.00510046 0.00251609 0.00306745
C -8.23942391 17.10944356 18.28696044 -0.00646362 -0.00719211 0.00182502
C -1.59387555 16.08843475 18.14196130 -0.00024497 -0.00279181 -0.00281939
C 6.44559361 11.72303896 12.41956388 -0.00251893 -0.00213863 -0.00289575
C -3.97660535 14.75505490 15.96524249 -0.00260581 -0.00153155 0.00774402
C -4.60435475 9.65310625 14.89625971 -0.00394507 -0.00654916 0.00177216
C 2.02575207 14.11221372 14.80682912 -0.00411923 -0.00236654 0.00213864
C 2.37946083 19.04597420 15.73838959 0.00029732 0.00218326 0.00439951
C -5.15007503 15.74293701 15.87145824 -0.00654329 -0.00749070 -0.00656995
C -3.52473874 10.70260288 15.07026815 0.00706072 0.00399652 0.00106844
C 3.04660441 13.10415443 15.19624724 -0.00161665 0.00629327 -0.00392467
C 1.17855984 18.23159008 15.59123725 0.00390890 -0.00245305 0.00145631
C -6.00576611 13.07780325 23.50921856 0.00148516 -0.00652823 -0.00061572
C -8.41828702 17.97748588 19.34264494 0.00277645 0.00419020 0.01605004
C -1.82259356 15.27396166 19.30109410 0.00092314 -0.00387416 -0.00498029
C 0.71639202 10.58795994 23.37192919 0.00314831 -0.00298577 0.00902292
C -4.83326222 12.99462396 22.69040405 -0.00591902 0.00168293 -0.00152213
C 3.29060473 17.97810755 19.86214491 0.00478493 -0.00347235 0.00066418
C -3.04268555 15.40921059 19.98091159 -0.00313942 -0.00352322 0.00130623
C -11.13359374 10.58957953 22.93843931 -0.00020390 0.00151438 0.00000579
C -3.79794462 12.27619515 23.20341548 0.00329248 -0.00392840 0.00214584
C 2.31646194 17.03267981 19.47511443 -0.00289968 -0.00133775 -0.00585519
C -4.01259269 16.26990270 19.49173461 -0.00096310 0.00146673 0.00281230
C -10.25969600 11.58460427 23.29465223 -0.00100891 0.00635902 0.00435294
C 8.17469855 11.49186977 0.02751812 -0.00090513 0.00241913 -0.00164234
C 2.61986969 16.16181796 18.44008352 -0.00163852 0.01092649 0.00665874
C -3.82304623 17.02649234 18.33937622 -0.00460363 -0.00298459 0.00394033
C 1.52643580 12.31242668 0.10099573 -0.00202445 0.00123240 -0.00495253
C -2.06680268 11.34193236 18.74434436 0.00756522 0.00335137 0.00465499
C 0.80458326 16.27127468 23.78364440 0.00147520 -0.00630007 -0.00058988
C -5.69953754 16.97850724 23.81845442 -0.00026155 -0.00207102 0.00190915
C -8.64005902 12.20977218 18.82393205 0.00025250 -0.00066503 -0.00167104
C -3.03156747 12.19963036 18.36340649 -0.00304258 -0.00061302 0.00428582
C -11.23811205 17.29056142 24.17713573 0.00637331 -0.00053807 -0.00139226
C -4.66932917 16.22913667 24.29263229 -0.01124301 0.00016621 -0.00393958
C 3.58460941 11.78608662 18.37105065 -0.00478397 -0.00095166 0.00380890
C -7.33847866 14.29062128 21.88818400 0.00114790 -0.00492405 -0.00050070
C -7.24151119 9.62688688 20.80692943 -0.00024149 -0.00311097 -0.00501325
C -0.74644781 13.82213130 20.87370200 -0.00641331 0.00229964 -0.00909673
C -0.40875252 18.85962487 21.72430771 -0.00169662 0.00608071 0.00255436
C -8.27653064 15.41641137 21.69813286 0.00013962 -0.00020830 -0.00487167
C -6.11611931 10.53107308 21.10186300 0.00709552 0.00432680 -0.00038732
C 0.52756576 13.19444188 21.24981057 -0.00407578 -0.00361390 -0.00439688
C -1.35668752 17.77580572 21.56045425 -0.00077133 -0.00233061 0.00305437
C 3.21799724 22.87611903 5.03117186 0.00283488 0.00043980 -0.00297875
C 0.37896704 27.83353969 0.99229588 -0.00531133 0.00204804 -0.00371958
C 7.05950455 25.10942915 0.92839066 0.00710121 0.00415122 -0.00008515
C 9.80700672 20.26003080 5.06280696 0.00302806 -0.00088662 0.00192838
C 4.41072527 22.76569880 4.33634999 0.00251377 -0.00104322 0.00473309
C 12.36348632 27.50319542 1.73502357 -0.00467977 0.00229341 -0.00107804
C 5.85548359 25.20531704 1.64659755 0.00907826 -0.00431706 0.00525637
C 37.18900019 20.40936726 4.46349512 -0.00663757 -0.00432850 -0.00417162
C 5.42385391 21.97266778 4.85777687 0.00280624 -0.00349764 -0.00132517
C 11.35646393 26.61758757 1.34212948 0.00108419 0.00223915 0.00398495
C 4.92899046 26.15305679 1.27329605 0.00377778 0.00045019 0.00134748
C -1.30054431 21.20004416 4.89474950 -0.00252084 0.00086969 0.00093197
C 5.28903436 21.36715996 6.11290325 0.00985530 0.00145902 0.00654555
C 11.52583466 25.83582950 0.18693363 -0.00408050 0.00073032 0.00210949
C 5.30787923 27.05718638 0.24020020 -0.00222541 0.00560627 -0.00535458
C -1.42339666 22.01681444 5.97965924 0.00272310 0.00421696 -0.00039698
C 6.71634373 21.00649573 0.34017819 -0.00157067 -0.00538195 0.00488586
C 9.66973167 25.84559219 5.53679761 -0.00064025 -0.00104738 0.00119929
C 3.07890128 26.80079137 5.49234222 0.00029847 0.00014633 -0.00029910
C 0.32405259 21.82734381 0.78990708 0.00633990 -0.00056549 0.00442801
C -6.14881368 21.99616779 24.31860882 -0.00680151 -0.00428096 0.00319879
C -2.52319619 26.94280422 5.85334926 -0.00296106 -0.00665773 0.00123856
C 4.06367297 26.03951476 6.02845068 0.00114931 0.00708405 0.00198467
C 12.41387815 21.11056116 0.03011666 -0.00299427 0.00413697 -0.00402131
C 2.14720913 24.29419856 3.50378720 0.00374263 0.00786008 -0.00559138
C 1.82377183 19.54483461 2.48617546 0.00126559 0.00066893 -0.00445182
C 8.15951493 23.59562107 2.54076192 0.00643303 0.00792280 0.00502995
C 8.25876167 28.65327090 3.56007007 0.00018411 0.00418892 0.00351611
C 1.00397081 25.21017130 3.23976366 0.00225852 0.01127046 -0.00320177
C 3.02621256 20.40368992 2.72249661 -0.00064864 0.00361310 0.00277392
C 9.22062317 22.63449581 2.69664624 0.00454147 -0.00023050 0.00455306
C 6.88482889 28.01205545 3.35150587 -0.00361509 -0.00359971 0.00126426
C 0.10026907 22.98188566 11.10426357 0.00185328 0.00138524 0.00695661
C -2.71387983 27.74478586 7.00810987 0.00826443 -0.00242292 -0.00180434
C 3.82288897 25.20650155 7.11294380 0.00058471 -0.00201389 0.00013055
C 6.66649620 20.15071924 11.22954374 -0.00593992 -0.00001913 -0.00830451
C 1.37333402 22.88849242 10.47328886 -0.00146663 -0.00497315 0.00018471
C 9.25515447 27.56121660 7.73067893 -0.00264406 -0.00235601 0.00934008
C 2.52848422 25.13196128 7.64029276 -0.00194393 -0.00323163 -0.00211991
C -5.14891562 20.24461114 10.65216752 0.00244482 -0.00492629 0.00491863
C 2.30043959 21.92709668 10.86155860 0.00494450 0.00472037 -0.00309511
C 8.27153177 26.78792435 7.28916902 0.00460245 0.00124065 0.00246453
C 1.51042061 25.89319699 7.05064792 -0.00167628 -0.00129756 0.00749261
C -4.15169364 21.19521592 10.98114997 -0.00453588 0.00315498 0.00087882
C 2.06427386 21.04751096 11.92205918 -0.00373504 -0.00047680 0.00127738
C 8.46410384 25.87026087 6.17677401 0.00311910 -0.00560171 -0.00246373
C 1.79628220 26.77544140 6.02192997 -0.00638444 0.00378482 -0.00178267
C -4.36886750 22.02953361 12.06704110 -0.00158753 -0.00002464 0.00355860
C 4.02772337 21.28365921 6.67237531 0.00471724 -0.00429578 0.00531067
C 7.04781885 25.78976977 11.73911017 -0.00122355 -0.00119997 -0.00147497
C 0.15246975 26.83150798 11.62494020 0.00925121 0.00232372 0.00423509
C -2.68100242 22.07558562 6.63456953 0.00051539 0.00040967 0.00332307
C 3.00684094 22.02145410 6.10304331 0.00015545 -0.00180700 0.00097331
C -5.47831795 27.19218851 11.85102196 0.00350936 -0.00699704 -0.00058581
C 1.16626217 25.96798122 11.97625575 0.00346428 0.00944503 -0.00426187
C 9.72228471 21.23090831 6.14053018 0.00220438 -0.00021354 -0.00089040
C -1.12201879 24.42280957 9.45917683 0.00321723 -0.00926255 -0.00734019
C -1.31315457 19.45037793 8.73724213 0.00175591 0.00212160 0.00070756
C 5.13465503 23.87434256 8.69199695 -0.00284974 0.00326172 -0.00413139
C 5.35085172 28.38361064 9.79034383 0.00660622 0.00225322 -0.00105355
C -2.24345622 25.33961565 9.33363598 0.00472274 -0.00739345 -0.00730738
C -0.06781957 20.23298912 8.89383079 -0.00120857 0.00050782 -0.00442310
C 6.41901279 23.16448061 9.02220088 -0.00668583 -0.00402603 0.00207440
C 4.13449216 27.44135600 9.59482756 -0.00145414 -0.00340547 0.00140309
C -3.10058307 22.96638459 17.21313632 -0.00449046 -0.00352357 0.00544729
C -5.66732171 27.92758342 13.05184031 0.00041263 -0.00191955 -0.00038599
C 0.97833931 25.04919219 13.00901447 0.00007875 0.00238243 -0.00052348
C 3.62096885 20.34678214 17.28138931 0.00468208 0.00140239 -0.00375152
C -1.82126650 22.94557836 16.60946968 -0.00519017 0.00083323 0.00722410
C 6.47674551 27.60316456 13.78814068 0.00237074 0.00111735 -0.00067786
C -0.16450913 25.06927608 13.79109428 0.00350280 0.00192976 0.00228515
C -8.09282811 20.43887138 16.74554611 -0.00062377 0.00864458 0.00595083
C -0.89990386 22.02868556 17.03770033 0.00036123 0.00387188 -0.00032284
C 5.56360161 26.61219185 13.41929712 0.00631283 0.00407943 -0.00437722
C -1.14783641 25.93901225 13.50942113 0.00182130 0.00549399 0.00392594
C -7.16553011 21.42450561 17.11714959 -0.00384264 -0.01043759 0.00361628
C -1.02922832 21.22842423 18.18576965 -0.00107676 -0.00120347 -0.00205737
C 5.74980264 25.81411603 12.30495414 0.00553775 0.00143421 0.00174452
C -1.01286251 26.77795137 12.36469774 0.00062240 -0.00105141 0.00502019
C -7.45079809 22.25586387 18.20710633 0.00019274 -0.00023129 -0.00021807
C 0.83907551 21.21969505 12.66043971 -0.00364690 -0.00212708 0.00203910
C 3.77906054 25.90430393 17.65914661 0.00040761 0.00231442 0.00073444
C -3.00647560 27.19702814 17.62908999 -0.00765756 -0.00386522 -0.00030427
C -5.55812643 21.95540015 12.82483424 -0.00274322 0.00233771 -0.00051760
C -0.13153520 22.11615976 12.11024977 0.00601756 0.00136565 -0.00391703
C -8.47224547 27.02073679 18.25655996 -0.00125068 0.00019112 -0.01375521
C -2.12939842 26.24587518 17.97533606 -0.00449508 0.00744344 0.00294056
C 6.51701824 21.02776409 12.31340758 0.00478712 0.00181761 0.00163880
C -4.22675474 24.41659587 15.67671311 -0.00080965 0.00214318 -0.00322094
C -4.38808826 19.52856303 14.77222354 -0.00278371 -0.00320223 0.00371011
C 2.38261866 23.68892589 14.50167064 -0.00293628 -0.00243819 -0.00448167
C 2.61861493 28.27932987 15.57319452 0.01230865 0.00212245 0.00028719
C -5.30229762 25.42370988 15.50436178 -0.00337128 0.00532856 0.00119379
C -3.18655323 20.41001180 14.91408409 -0.00395949 -0.00410538 -0.00334322
C 3.68743339 22.89407089 14.52428186 0.00511160 -0.00284420 -0.00345224
C 1.48496590 27.34638451 15.34648885 0.00415621 0.00445844 0.00482080
C -5.86156415 22.88291587 23.30754213 0.00209109 0.00723598 -0.00120335
C -8.73660786 27.99061664 19.26150044 -0.00050635 0.00612196 0.00708850
C -2.28319728 25.38581336 19.11374251 -0.00585599 -0.00443291 -0.00317790
C 0.63412114 20.32683364 23.27897301 0.00341661 0.00244052 -0.00532767
C -4.62720670 22.77009266 22.62905448 -0.00359065 0.00303788 0.00484868
C 3.31870406 27.51682917 19.84094445 -0.00629560 0.00154401 0.00261504
C -3.39476164 25.55414025 19.86893639 0.00742210 0.00472253 0.00203371
C -11.09967233 20.37883513 22.83080613 0.00344342 -0.00264670 -0.00267471
C -3.70144158 21.85067171 23.08799821 0.00635810 -0.00504037 0.00319096
C 2.37438759 26.59286202 19.46937084 -0.00062970 0.00608257 0.00414395
C -4.36323461 26.48644649 19.52011724 0.00218366 -0.00025998 0.00099288
C -10.13309144 21.16005829 23.38639799 -0.00513289 -0.00051073 0.00096447
C -3.99960402 20.91690336 24.13865770 -0.00284193 0.00250306 0.00139212
C 2.55515032 25.83441492 18.33553968 -0.00171952 -0.01063780 -0.00276745
C -4.25262552 27.21352245 18.31929282 0.00150975 0.00210818 -0.00144656
C 1.63733083 21.98254565 0.14556031 -0.00530575 -0.00678994 0.00216496
C -2.23680401 21.38715751 18.90437206 -0.00114618 -0.00436807 -0.00135132
C 0.78856914 25.90818684 23.85150547 -0.00585044 -0.00644453 -0.00201806
C -5.48071174 27.02046144 23.97398575 -0.00598496 0.00032324 0.00797844
C -8.64944156 22.00298335 18.95242492 -0.00359280 0.00406211 -0.00875428
C -3.21502376 22.21103198 18.36553823 -0.00113235 -0.00479579 0.00467192
C 0.69256431 26.87154920 0.01466897 0.00143103 -0.00053802 -0.00335176
C -4.64578340 25.98818753 24.26723392 0.00065617 0.00364813 -0.00546099
C 3.43603674 21.19862815 18.34198019 -0.00487358 0.00316320 -0.00505813
C -6.98881749 24.53442209 21.81284487 -0.00508715 0.00689334 0.00057215
C -7.09498922 19.29304090 20.97089993 0.00208929 -0.00280534 -0.00437773
C -1.02181919 23.85345081 20.67142997 0.00147785 -0.00490987 -0.00681737
C -0.38443106 28.41731571 21.68881069 -0.00888390 -0.00678610 0.00337502
C -8.28664065 25.22727092 21.62411700 -0.00354369 -0.01134379 0.00524346
C -5.90762313 20.20696619 21.18014344 0.01266771 0.00088107 -0.00005937
C 0.26004352 23.02519268 20.75138937 0.00436084 0.00808801 -0.00391282
C -1.63531579 27.68760707 21.34203727 0.00014550 0.00580329 -0.00014113
C 16.29176167 3.80472644 5.15787466 0.00183481 -0.00410001 0.00114130
C 13.70416539 8.55251932 1.21253097 0.00388786 0.00063418 -0.00003037
C 19.98502473 5.92875639 0.96684579 0.00169305 -0.00171471 -0.00002118
C 22.90438396 0.99732415 5.18844105 -0.00558535 0.00226655 0.00204939
C 17.54209163 3.75505467 4.53466718 0.00250232 -0.00239447 -0.00916262
C 25.42355555 8.32577517 1.69110221 -0.00380475 -0.00250355 -0.00752224
C 18.79235863 6.06086128 1.63777502 0.00342770 -0.00173195 0.00894008
C 10.83081519 1.24436747 4.54907703 0.00383285 0.00646050 -0.00637375
C 18.55726054 2.89623494 5.02198716 -0.00372089 -0.00477617 -0.00529733
C 24.40942819 7.56370262 1.15079862 -0.00438251 0.00464519 0.00260228
C 17.86586057 6.95689406 1.20802204 -0.00097601 0.00739495 -0.00222325
C 11.76016341 2.20518770 4.89674658 0.00044460 0.00168438 0.00350612
C 18.30966898 2.06984522 6.12789580 0.00471704 0.00497777 -0.00494468
C 24.62197141 6.64533797 0.15271427 -0.00097281 -0.00068012 0.00106594
C 18.11365992 7.85851928 0.08730286 0.00413313 0.00103800 -0.00207511
C 11.43729217 3.08726435 5.97126305 -0.00500729 0.00577390 0.00440153
C 20.03676425 2.07566069 0.38934285 0.00436180 -0.00029958 -0.00325687
C 22.89205034 6.73646406 5.71229563 -0.00123551 -0.01112857 -0.00387707
C 16.40181710 7.69011099 5.68390264 0.00250807 -0.00114509 0.00324326
C 13.42170781 2.75916574 0.52054756 -0.00323926 -0.00070301 -0.00519144
C 19.00588812 2.92631484 0.03566873 -0.00005913 0.00006586 -0.00335538
C 10.74226642 7.77323253 6.07766200 -0.01039488 0.00266465 0.00192302
C 17.36361634 6.77783269 6.10485516 0.00621150 0.00446372 0.00494636
C 25.77776134 1.88639280 0.18157153 0.00283214 0.00106576 0.00265174
C 15.23017609 5.23707112 3.58296634 -0.00082451 -0.00463890 0.00085120
C 14.87805009 0.24245431 2.52479724 0.00256978 -0.00028762 -0.00660588
C 21.23149530 4.55423297 2.60424467 -0.00303618 -0.00490770 -0.00438825
C 21.64823237 9.40901874 3.50399880 0.00282364 0.00243969 -0.00551598
C 14.03183237 6.14578713 3.35604155 0.00052040 -0.00368989 -0.00585862
C 16.12345589 0.95385942 2.80616347 0.00198131 -0.00571125 0.00530481
C 22.45663544 3.62673299 2.77937742 0.00495297 -0.00399877 0.00205445