2880
Time=67000.00000006 pbc="T T T" Lattice="39.15492883 0.00000000 0.00000000 0.00000000 28.92296346 0.00000000 -12.01052236 0.00000000 24.33084529" energy=-18401.14669919 virial="49.77025434 12.42645769 -61.07200254 12.42645769 12.78102036 4.41286729 -61.07200254 4.41286729 59.75948755" stress="0.00439833 0.00037458 -0.00227860 0.00037458 0.00301333 0.00014336 -0.00227860 0.00014336 0.00483288" Properties=species:S:1:pos:R:3:vel:R:3
C 2.97664175 3.78902967 5.14221024 0.00224884 -0.00114382 0.00493803
C 0.30553414 8.35096116 1.04360580 -0.00205706 -0.00342897 0.00274665
C 6.71673471 5.95555987 1.04761103 0.00390194 0.00258663 0.00135288
C 9.59348023 1.25389816 5.36429549 -0.00189604 -0.00458947 -0.00191356
C 4.12782755 3.77475349 4.41334392 0.00170401 -0.00129681 -0.00271156
C 12.15546927 8.35392809 1.84723096 -0.00016592 -0.00580837 -0.00590300
C 5.55526446 6.11204409 1.79245299 -0.00220165 0.00424974 -0.00408761
C -1.96508305 0.99418228 4.55647245 -0.00671401 -0.00143130 -0.00270427
C 5.11933908 2.94045848 4.81614245 0.00551095 -0.00320189 -0.00443343
C 11.21714531 7.42576411 1.43390538 0.00716123 0.00684945 -0.00441323
C 4.65032550 7.04024383 1.32528286 -0.00151998 -0.00090275 -0.00064627
C -1.08688202 1.97021671 4.92827124 -0.00293014 0.00257034 0.00384564
C 5.02380371 2.08462836 5.95188088 0.00203673 0.00291148 -0.00244041
C 11.33923316 6.77606447 0.15829684 -0.00414173 0.00533597 -0.00079117
C 4.78243083 7.75933809 0.14241644 0.00825673 0.00035140 0.00066073
C -1.38048404 2.77017818 6.07473418 -0.00445605 0.00938437 0.00751595
C 6.80396619 2.02314730 0.62300597 -0.00139565 0.00059639 0.00425665
C 9.38014421 7.09238557 5.51752314 0.00287676 -0.00136454 -0.00313525
C 3.00022215 7.63656069 5.64768156 -0.00351155 -0.00520228 -0.00436409
C 0.26453139 2.82166974 0.52646686 0.00117708 -0.00128813 0.00277565
C 5.73239026 2.73396320 0.14820627 0.00425670 0.00219069 0.00471040
C -2.35350135 7.39410538 5.89184145 0.00432097 -0.00785122 -0.00369070
C 3.93777940 6.74532011 6.05646204 -0.01100541 0.00346215 -0.00490626
C 12.26029576 1.94755471 0.20129245 -0.00293337 0.00639684 -0.00449895
C 1.69464321 5.17279107 3.63316739 0.00347847 -0.00026090 0.00020786
C 1.61283345 0.14403045 2.44752742 0.00638170 0.00158562 -0.00211451
C 7.95017016 4.54212431 2.65240060 0.00712981 0.00434128 -0.00617718
C 8.39675223 9.40947669 3.53613021 -0.00196431 0.00214987 -0.00244779
C 0.34096538 5.85969293 3.63785521 0.00013075 -0.00033203 0.00995801
C 2.62568518 1.30567960 2.49207079 0.00452926 -0.00493827 -0.01126053
C 9.05951773 3.55374362 2.84618905 -0.00082924 -0.00168605 0.00663649
C 7.24469611 8.44598020 3.41326879 -0.00160678 -0.00166375 -0.00084302
C 0.24289541 3.63695548 11.40077723 0.00448470 -0.00297686 -0.00269993
C -2.47010585 8.13014447 7.06768873 0.00227000 -0.00441914 0.00471436
C 3.74735640 5.94187631 7.17536512 0.00086429 0.00124892 -0.00330784
C 6.52978631 1.14459828 11.21757926 0.00724396 0.00174228 0.00135279
C 1.34044269 3.42173243 10.53070120 -0.00058977 -0.00162246 -0.00857791
C 9.09549496 8.70972732 7.78382638 0.00021748 -0.00163696 -0.00299253
C 2.61281844 6.22436703 7.96874212 -0.00003265 -0.00393295 -0.00118911
C -5.14604257 0.97629400 10.50495229 -0.00207795 0.00287005 0.00604666
C 2.29137005 2.45084515 10.91224414 -0.00505510 -0.00315259 -0.00240980
C 8.11240195 7.80759765 7.46347286 0.00190358 -0.00260917 0.00213703
C 1.57037515 6.99210183 7.45244697 0.00354463 -0.00331987 -0.00296855
C -4.12054406 1.69339403 11.03181605 0.00492470 0.00542124 -0.00004230
C 2.15027168 1.69035710 12.12612600 -0.00622884 -0.00329764 -0.00517038
C 8.22118734 7.00213385 6.31977467 -0.00118951 0.00430299 0.00052673
C 1.75955372 7.77035612 6.30643082 0.00184728 -0.00513786 -0.00553415
C -4.34541287 2.53578994 12.13142431 -0.00208721 0.00413534 0.00293278
C 3.76727555 1.99017838 6.55525740 0.00096398 0.00077901 -0.00478244
C 6.61469656 6.82744625 11.63909999 -0.00095285 -0.00130644 0.01036034
C 0.49610924 7.82166768 11.83312395 0.00036567 0.00549184 0.00668875
C -2.68080909 2.60498494 6.60580870 -0.00160306 0.00235967 0.00013888
C 2.75842140 2.78437299 6.15072298 -0.00325404 0.00642183 -0.00148093
C -5.32095856 7.58655722 11.93749740 0.00437952 -0.00060208 -0.00694004
C 1.35887417 6.81634305 12.17209936 -0.00471841 -0.00213214 -0.00295919
C 9.33749606 1.91670818 6.55964738 -0.00172721 0.00767413 -0.00638758
C -1.00600227 5.02180662 9.84775054 -0.00168864 -0.00257473 -0.00251781
C -1.44837732 0.16000661 8.85814668 0.00352313 0.00126293 0.00384269
C 4.82154199 4.48213896 8.72577447 0.00816819 -0.00360171 -0.00715807
C 5.41183178 9.40811362 9.61976653 -0.00037584 0.00028774 0.00247636
C -2.28688963 5.72088038 9.66480696 -0.00053180 -0.00300626 0.00258599
C -0.33641816 1.18272540 9.07330655 -0.00322927 -0.00283387 -0.00112270
C 6.01841835 3.59018581 8.93775196 0.00710373 0.00310857 0.00737065
C 4.32615441 8.47255017 9.43238339 0.00527424 -0.00082368 0.01076142
C -2.97502667 3.85130726 17.33874749 -0.01403442 0.00130040 -0.00266499
C -5.41093110 8.41917303 13.11706616 0.00252139 -0.00044880 -0.00319036
C 1.10633799 5.97604869 13.31445240 -0.00403138 0.00319289 0.01006996
C 3.57977727 1.08977170 17.34924331 -0.00893746 -0.00047820 0.00019204
C -1.81917700 3.71913566 16.59518578 0.00265587 0.00066900 0.00515213
C 6.10597863 8.45978876 13.82988369 -0.00002188 -0.00400722 0.00020068
C -0.11628902 6.00398101 13.94290556 0.00186452 0.00522046 0.00697820
C 30.86356677 1.31833491 16.66275176 -0.00000172 0.00756185 -0.00192034
C -0.79703689 2.87886597 17.03458649 0.00244183 -0.00245445 0.00136236
C 5.09958682 7.70207885 13.28236258 -0.00190143 -0.00005987 0.00005958
C -1.06620593 6.89930539 13.45990142 -0.00563379 0.00447204 0.00949420
C -7.36243780 2.12741710 17.13530837 -0.00102449 -0.00249791 -0.00718981
C -0.88799145 2.21911067 18.24988013 -0.00772720 0.00068378 0.00292073
C 5.30772021 6.83615117 12.16344367 -0.00866962 0.00453620 0.00159783
C -0.80499572 7.71689755 12.35270379 -0.00570482 -0.00662361 -0.00214813
C -7.56409785 2.87716665 18.36336756 -0.00075881 -0.00324118 0.00138653
C 1.13671143 1.96529641 13.06461538 -0.00114524 -0.00201571 -0.00528501
C 3.77710235 6.66820048 17.76647318 0.00611081 0.00189885 0.00011793
C -2.85259867 7.52635360 17.70895585 0.00199649 -0.00552555 0.00286751
C -5.64417611 2.48418879 12.76629770 0.00107503 -0.00188493 -0.00710595
C 0.21499867 2.97262721 12.65963410 -0.00334081 -0.00180452 -0.00863019
C -8.30168234 7.55842172 18.07608164 -0.00249998 0.00444885 0.00169943
C -1.78659127 6.75443671 18.19137724 0.00528616 0.00162192 0.00072262
C 6.22536683 1.82647227 12.42934636 -0.00429230 -0.00129507 -0.00252175
C -4.12098247 5.27460959 15.74887277 -0.00088711 -0.00051792 -0.00208866
C -4.42563646 0.29401024 14.73457464 -0.00058460 0.00446215 -0.01067350
C 2.40771453 4.49561692 14.74312854 -0.00194395 0.00076992 -0.00033133
C 2.54681845 9.24979886 15.70960089 -0.00313964 0.00264565 -0.00224138
C -5.50822946 5.90458060 15.62815391 0.00371289 -0.00015758 -0.00514494
C -3.10575419 1.01619595 14.88945993 0.00103991 0.00257755 0.00317804
C 3.73168467 3.90049464 14.90336157 0.00748339 -0.00778383 -0.00105827
C 1.29699819 8.45069897 15.39457946 0.00388846 -0.00147789 -0.00077937
C -6.00116497 3.66969042 23.38137517 -0.00271834 0.00554160 0.00416378
C -8.52132019 8.39775548 19.15824058 0.00280977 0.00783344 0.00321549
C -2.00579537 6.01673608 19.29053635 0.00389129 -0.00518303 0.00486900
C 0.55853402 1.00174614 23.52096038 -0.00008745 -0.00620350 0.00738772
C -4.75299762 3.58341639 22.70473665 0.00114398 0.00250783 -0.00478757
C 3.37428172 8.32342271 19.94514100 0.00550482 -0.00852846 -0.00307319
C -3.20482371 5.98696841 19.99111023 0.00670157 0.00600568 -0.00285430
C -11.08207405 1.17006554 22.74049872 -0.00567088 0.00123003 -0.00292539
C -3.79583332 2.66706076 23.15837278 -0.00372133 0.00122700 -0.00027501
C 2.42056088 7.43067395 19.58620319 -0.01020067 0.00205886 0.00029812
C -4.19207668 6.87503339 19.60928347 0.00059995 0.00623609 -0.00209352
C -10.14410063 2.09123457 23.21594946 -0.00300634 -0.00268341 -0.00870538
C -3.98699841 1.80844570 24.25371265 -0.00407686 0.00486711 -0.00383671
C 2.54289054 6.66690268 18.39491090 -0.00578742 0.00372935 -0.00019119
C -3.98391053 7.71722404 18.48214234 0.00547420 0.00281644 -0.00649721
C -10.45236531 2.95489820 24.32048010 -0.00453213 0.00077162 -0.00551345
C -2.06802550 2.26802734 19.03207506 0.00237934 0.00176709 -0.00576156
C 0.62481799 6.91742291 23.78377728 0.00000404 0.00391050 0.00070579
C -6.08750812 7.58106106 23.67313541 0.00874656 -0.00217995 0.00302543
C -8.79230324 2.79850580 18.99760078 0.00094510 -0.00242656 0.00040025
C -3.08856890 3.08422613 18.55625194 0.00407775 -0.00531237 0.00031555
C 0.61919022 7.52393110 0.00483696 0.00512450 -0.00696354 -0.00129799
C -5.12231117 6.72378239 24.22929657 -0.00348440 0.00951485 -0.00744212
C 3.40381894 1.78328620 18.48877551 -0.00441898 -0.00561224 -0.00250128
C -7.13619123 5.08805696 21.93729330 -0.00505962 -0.00176271 0.00297312
C -7.54903340 0.40877973 20.78924376 0.00455253 -0.00091715 -0.00794005
C -0.82266930 4.56612489 20.84544982 -0.00736051 0.00191953 0.00263445
C -0.48193405 9.29102775 21.86556206 0.00000247 0.00462488 0.01100331
C -8.40870044 5.85290898 21.65033247 0.00062554 0.00443847 0.01009324
C -6.18991946 1.06428806 21.11923686 -0.00162096 0.00186794 0.00692638
C 0.25173067 3.54178185 21.11645517 0.00056509 -0.00080136 0.00711441
C -1.82455809 8.70109540 21.55794425 0.00086231 -0.00232841 -0.00086762
C 2.95901447 13.27995929 5.18551260 0.00220119 0.00104642 0.00699159
C 0.50222043 18.09180935 0.93819971 -0.00103641 -0.00409485 -0.00024667
C 6.93859892 15.57474497 0.76600787 -0.00436365 -0.00384999 -0.00230778
C 9.52568978 10.88689585 5.09015089 0.00097644 -0.00425621 0.00186330
C 4.08793087 13.19997898 4.37142090 0.00433147 0.00448223 -0.00279984
C 12.01507494 18.14799218 1.65219586 -0.00770499 0.00069844 -0.00552335
C 5.71408842 15.67734444 1.44001034 0.00632052 0.00200789 0.00151247
C -2.03890772 10.58335353 4.47405790 -0.00506184 -0.00531785 0.00063168
C 5.09843632 12.35916948 4.79907467 -0.00221110 0.00191516 -0.00060764
C 11.16043402 17.15371399 1.17842659 -0.00353507 -0.00931287 0.00214346
C 4.65110472 16.40596846 1.04428366 -0.00295611 -0.00555290 0.00092020
C -1.11652712 11.53937126 4.86525900 0.00264660 0.00259697 -0.00115657
C 5.00510742 11.54071243 5.98059497 -0.00158492 0.00798934 0.00186781
C -0.63164034 16.56833835 24.22701178 -0.00947353 -0.00810764 -0.00323352
C -7.17442966 17.21187715 24.20712739 -0.00283169 0.00296067 -0.00013516
C -1.43829838 12.37101872 5.95564088 -0.00082243 -0.00512875 -0.00481541
C 6.67189384 11.74715268 0.56209722 0.00475356 -0.00817894 0.00498434
C 9.62665760 16.50884206 5.52930314 0.00308477 0.00430359 0.00285898
C 3.13004517 17.14927163 5.31732346 -0.00139260 -0.00748788 0.00048506
C 0.28691354 12.37395633 0.55842666 0.01081731 0.00650767 0.00022928
C 5.66387664 12.60939870 0.14263635 0.00456784 0.00245050 0.00282978
C -2.51524352 17.52363319 5.80460256 -0.00781690 0.00639287 0.00985761
C 4.12447104 16.27015662 5.73823636 -0.00142608 -0.00475167 0.00573144
C 12.28969203 11.47522154 0.33080716 -0.00737451 -0.00504544 0.01326015
C 1.60897192 14.76579083 3.72075222 0.00177137 0.00261263 0.00589292
C 1.50071559 9.82572230 2.53452752 0.00467477 -0.00423416 -0.00747074
C 8.11854937 14.18865711 2.37905953 0.00319894 -0.00651445 -0.00175082
C 8.47170214 19.05042427 3.25751031 -0.00028719 -0.00767246 -0.00445320
C 0.31484853 15.63049163 3.82898862 0.00525174 0.00340278 -0.00131710
C 2.75428760 10.71969823 2.67389233 0.00637704 0.00116227 0.00064456
C 9.19071110 13.17812634 2.72740755 -0.00417107 0.00606284 0.00218124
C 7.32869796 18.13732052 3.00501322 0.00096019 -0.00031605 -0.00126136
C 0.28542651 13.61629530 11.12409942 -0.00253392 -0.00034396 0.00533856
C -2.60334649 18.34226077 6.95973985 0.00011597 -0.00901951 0.00345122
C 3.97612572 15.54958139 6.92779951 0.00105358 -0.00381231 -0.00060925
C 6.54680527 10.79855111 11.20157051 0.00732018 -0.00543269 0.00383506
C 1.59756921 13.53261151 10.56087475 -0.00069679 0.00541006 0.00206883
C 9.05194796 18.26858830 7.59669301 0.00736914 0.00010400 -0.00082000
C 2.76205930 15.59963865 7.57122740 0.00216542 0.00235401 0.00970548
C -4.88266067 10.90804819 10.65115205 0.01212533 0.00035557 -0.00678236
C 2.55303407 12.62204815 11.04190575 -0.00293290 0.00196912 -0.00451440
C 8.04857390 17.39933804 7.18358047 0.00259734 0.00643362 -0.00652084
C 1.82504018 16.55824214 7.29719968 0.00826263 -0.00297039 0.00155780
C -3.87777215 11.75004451 11.09811475 0.00090317 0.00075130 -0.00464976
C 2.28021879 11.73033803 12.10500334 -0.00188974 0.00181478 0.00113292
C 8.29402935 16.56036645 6.12253544 -0.00133579 0.00461654 -0.00711601
C 2.06078801 17.42513425 6.17326092 0.01061927 -0.01213922 -0.00004237
C -4.18181762 12.77192518 12.10938536 0.00394578 -0.00628131 -0.00688701
C 3.81041674 11.58752973 6.65512653 -0.00661903 -0.00025119 0.00133741
C 6.80548831 16.47005886 11.71093580 -0.00230120 0.00036771 -0.00170663
C 0.15539290 17.37416668 11.68783836 0.00021915 0.00395777 0.00217884
C -2.61749217 12.14063733 6.66798161 -0.00068795 -0.00576927 -0.00230179
C 2.81894164 12.49438357 6.30348522 0.00065160 -0.00310866 0.00333692
C -5.30700105 17.56563658 12.03447280 -0.00203534 -0.00011147 0.00673459
C 1.19392359 16.58379914 12.09398867 -0.00782805 0.00036455 0.00265798
C 9.29543030 11.79718153 6.12024496 0.00012434 0.00247242 -0.00311828
C -0.94585083 14.89824464 9.50335391 -0.00347410 0.00258671 0.00010513
C -1.30211179 9.72389811 8.51699783 -0.00273503 -0.00317196 0.00372619
C 5.23905620 14.16501755 8.50322685 -0.00541532 -0.00007503 -0.00365756
C 5.78773592 19.09997546 9.61268761 0.00337049 -0.00199374 0.00555760
C -2.05444766 15.84843295 9.39058470 -0.00178810 -0.00412568 -0.00066258
C -0.09997429 10.58417630 8.62244270 0.00064939 -0.00452038 0.01060949
C 6.26019045 13.07507763 8.60750963 -0.00096744 -0.00125883 -0.00313565
C 4.72822562 18.15667704 9.34123429 -0.00498732 0.00112382 0.00177040
C -2.95728814 13.26873666 17.26501991 0.00472520 -0.00791527 -0.00173648
C -5.48099568 18.49480576 13.13091417 0.00790214 -0.00069959 -0.00023092
C 0.89301025 15.71343378 13.19041393 0.00695872 0.00308917 0.00021105
C 3.68956016 10.70314864 17.36343284 -0.00142495 -0.00130446 -0.01037072
C -1.66993827 13.25364983 16.62625880 -0.00258516 -0.00296140 -0.00638177
C 6.41681759 18.07870409 13.94066697 0.00061197 -0.00435919 -0.00439941
C -0.32504390 15.69005796 13.81393313 0.00701155 0.00623282 -0.00493196
C -8.03021764 10.84068496 16.52374147 -0.00175874 -0.00573066 -0.00243385
C -0.65859297 12.43402449 17.12074007 0.00395239 -0.00453602 -0.00365513
C 5.48286242 17.21712223 13.57062743 0.00143317 0.00073664 0.00526157
C -1.29969403 16.55036728 13.45256293 0.00167110 -0.00090727 -0.00867022
C -7.10179206 11.76750735 16.93835181 -0.00459135 0.00217191 0.00322555
C -0.84180214 11.59063897 18.13658183 -0.00035088 0.00746666 0.00604865
C 5.63604924 16.40719476 12.41503996 -0.00324703 -0.00902960 -0.00311560
C -1.13752124 17.41317308 12.32654735 -0.00122467 -0.00133438 -0.00171934
C -7.36846636 12.60383495 18.06391774 0.00392699 -0.00226276 0.01001107
C 0.99179349 11.80275120 12.68141264 0.00130790 -0.00270005 -0.00518117
C 3.85798258 16.49141085 17.81263837 -0.00907751 0.00098280 0.00318679
C -2.74423256 17.42823577 17.94347202 0.00174830 -0.00349366 -0.00058054
C -5.47778593 12.72560961 12.66007913 0.00717797 0.00191590 0.00524901
C 0.07643529 12.70119000 12.19327529 0.00083900 0.00472533 -0.00250529
C -8.38256706 17.43588696 17.96139915 0.00830979 0.00095949 0.00987857
C -1.83509962 16.40079278 18.13889048 -0.00368840 -0.00005662 -0.00157097
C 6.34700324 11.57394726 12.34278538 -0.00299394 0.00470013 0.00045316
C -4.04437430 14.86000234 15.80972998 0.00469388 0.00381639 0.00353259
C -4.20113562 9.89889925 14.69842781 0.00240125 -0.00291850 0.00077831
C 2.23677874 14.34297644 14.70682640 -0.00054551 0.00346523 -0.00434447
C 2.54586288 18.96644973 15.72210703 -0.00149909 0.00003419 -0.00604213
C -4.96976578 16.03532665 15.69413393 0.00120098 -0.00294041 -0.00333798
C -3.13254276 10.90873539 14.95190352 0.00286370 -0.00053860 -0.00290394
C 3.48381836 13.55005703 14.89843350 0.00228511 0.00457770 0.00032500
C 1.34071665 18.16141380 15.49203485 0.00031457 -0.00195761 0.00844176
C -6.14483857 13.35877472 23.33137320 0.00195135 0.00268299 -0.00673877
C -8.54700447 18.27286819 19.08924687 0.00196346 0.00011477 -0.00255631
C -2.09222370 15.41312615 19.10241865 -0.00556705 0.00590185 -0.00354908
C 0.63705783 10.63248562 23.58488346 0.00525726 0.00886296 0.00661047
C -4.87941067 13.25890270 22.68547028 -0.00352943 0.00236103 0.00092103
C 3.33263089 18.15877740 19.94383931 -0.00353885 0.00755913 0.00982263
C -3.26888899 15.47318962 19.86025595 0.00048200 0.00120087 0.00289522
C -11.07241377 10.70977778 22.78343994 -0.00080566 -0.00024658 0.00333704
C -4.03662932 12.21559684 22.99731783 0.00550393 -0.00354262 0.00388766
C 2.38441775 17.24985769 19.56053564 -0.00621434 0.00487619 0.00186591
C -4.23279712 16.46794473 19.54351068 0.00335809 0.00632767 -0.00125153
C -10.14493999 11.57121622 23.26365881 0.00749930 0.00032496 -0.00561636
C -4.20405721 11.43876066 24.12363199 0.00433849 0.00303386 -0.00324358
C 2.57503049 16.45966806 18.39288870 -0.00067821 0.00074156 -0.00368758
C -4.04134219 17.37045979 18.55187422 -0.00633655 0.00090942 -0.00914322
C 1.59857306 12.52262655 0.02160213 0.00295982 -0.00074270 -0.00533089
C -2.15442232 11.54854875 18.71679870 -0.00277761 -0.00167452 -0.00375677
C 0.44617045 16.87831527 23.44402299 -0.00082420 0.00008014 0.00162007
C -6.00638531 17.05162548 23.47888070 0.00606538 0.00476803 0.00013327
C -8.56167777 12.45729845 18.76355704 0.00564303 -0.00287764 -0.01243752
C -3.14380550 12.39027991 18.32185735 -0.00281495 0.00455787 -0.00583413
C -11.18552609 17.11043010 24.25297691 0.00348517 -0.01266964 0.00340098
C -5.00035667 16.19994868 23.83981868 0.00332921 0.00629007 -0.00099067
C 3.47115892 11.40714313 18.53958926 -0.00202943 -0.00209570 0.00335520
C -7.27684850 14.72531238 21.76492303 -0.00644538 0.00757587 0.00113439
C -7.45987893 9.84031425 20.78473151 -0.00360113 -0.00020982 -0.00397821
C -0.71417257 14.02957407 20.69557962 -0.00368234 0.00004746 -0.00848537
C -0.57603135 19.32836719 21.58756175 -0.00157356 -0.00258579 0.00731045
C -8.52999196 15.46047492 21.49111725 -0.00485786 0.00493335 0.00346731
C -6.30021920 10.74445431 21.00248587 -0.00419548 -0.00290835 0.00678344
C 0.72439616 13.68204237 21.00897467 0.00174662 -0.00028473 0.00339288
C -1.75245890 18.32909076 21.47812288 -0.00470016 0.00055810 -0.00399290
C 3.28360211 23.02292230 4.84127927 -0.00583788 0.00081166 -0.00265301
C 0.32460576 27.75679167 0.83657599 -0.00390813 0.01102987 -0.00083618
C 6.76208648 25.39627227 0.87641221 0.00191162 0.00281021 -0.00038321
C 9.58150479 20.46701675 4.88272907 0.00230324 -0.00027514 0.00329822
C 4.58314678 22.97790409 4.35844433 -0.00487864 -0.00431000 0.00555980
C 12.25270256 27.78252056 1.70821387 -0.00368203 -0.00584832 0.00672626
C 5.55652807 25.42954118 1.52019924 -0.00142542 0.00437052 0.00236678
C -2.19649133 20.48536578 4.49530474 -0.00599130 0.00334300 -0.00157387
C 5.51170391 21.96169881 4.66107567 0.00483743 0.00288236 -0.00392681
C 11.26368815 26.97243034 1.23257015 -0.00449068 0.00629087 0.00152549
C 4.64188253 26.35754305 1.11400839 0.00232134 -0.00660806 -0.00540403
C -1.11622996 21.17542734 4.89330018 0.00395969 0.00724880 0.00371405
C 5.19251123 21.05070624 5.72968473 0.00558653 -0.00415183 0.00158966
C 11.59971650 26.03511730 0.24940612 -0.00632498 -0.01015912 -0.00464999
C -7.13700049 27.24622694 24.31493058 0.00229156 -0.00289986 -0.00658830
C -1.18188768 22.13682228 5.96356461 0.00120351 -0.00025347 0.00231730
C 6.60650618 21.39819956 0.15303629 -0.00464034 -0.00612264 0.00120511
C 10.13948546 26.12579496 5.54877736 0.00150476 -0.00370168 -0.00109545
C 3.29985161 26.79408632 5.51632102 -0.00652938 0.00085567 -0.00339578
C 0.25867978 22.17812271 0.33734036 0.00525749 0.00337057 -0.00114889
C -6.36970502 22.36157761 24.20753296 0.00207179 0.01294544 -0.00082578
C -2.10606135 26.83499201 6.10100227 0.00221866 -0.00296198 0.00581878
C 4.26498484 25.85387383 5.87439788 -0.00165911 -0.00360226 -0.00718509
C 0.31440325 21.68964142 24.25900657 -0.00326328 -0.00146267 -0.00394670
C 2.17720095 24.48632786 3.25656476 0.00243137 0.00026833 -0.00520537
C 1.72361557 19.52331302 2.39440775 -0.00105817 0.00393782 -0.00307774
C 8.04360306 23.97196840 2.38599956 -0.00173327 -0.00163509 -0.00217043
C 8.41815489 28.85995707 3.67531543 0.00759938 -0.00119394 0.00496372
C 0.96514223 25.34324952 2.87448926 -0.00915910 -0.00068232 -0.00050055
C 2.99463373 20.39047538 2.37346338 -0.00355204 -0.00192888 -0.00329337
C 9.26854745 23.06700981 2.49024857 0.00795532 -0.00295881 0.00677198
C 7.08419466 28.21736521 3.54414752 0.00489371 0.00248133 -0.00431941
C 0.24888471 22.92866574 10.96489508 0.00066080 -0.00258350 -0.00341264
C -2.40619995 27.65582029 7.19898501 -0.01085728 0.00740582 -0.00299686
C 4.12236510 25.09974580 6.99014908 0.00451457 -0.00114972 0.00081381
C 6.87257660 20.39665957 11.28454809 0.00115782 0.00809225 0.00101619
C 1.47432690 22.81663356 10.32839251 0.00494940 0.00432137 -0.00083697
C 9.49261034 27.72306571 7.81296296 -0.00590134 0.00315845 -0.00367483
C 2.89921921 25.16983359 7.73709173 0.00478853 -0.00398252 -0.00266824
C -4.93727589 20.56266877 10.58450432 -0.00362860 -0.00341180 0.00236346
C 2.44046842 21.88991322 10.77227085 -0.00529794 0.00309060 -0.00400496
C 8.71352189 26.66288457 7.37441774 -0.00694843 0.00418248 0.00193043
C 1.91669806 25.98381620 7.25282877 -0.00780463 -0.00155908 -0.00241351
C -4.00455466 21.51189326 10.97407398 -0.00857410 -0.00626334 0.00117773
C 2.27348602 21.10242067 11.90562388 0.00252493 -0.00038954 -0.00398952
C 8.98729138 25.86710003 6.23969197 -0.00039950 0.00248092 -0.00230601
C 2.02308233 26.83213100 6.15464543 0.00031901 0.00533236 0.00136407
C -4.25181500 22.33417864 12.04144041 -0.00155216 -0.00116842 0.00302005
C 3.91478482 21.10607004 6.32781275 -0.00127237 -0.00155479 -0.00182557
C 6.59549722 26.22364749 11.60748879 -0.00208431 0.00157905 0.00759057
C 0.00924539 26.70426118 11.59024722 -0.00762388 0.00132845 -0.00124928
C -2.44161491 22.17891088 6.63744723 -0.00489525 -0.00054338 -0.00041598
C 3.09368445 22.14297659 5.94813176 0.00337792 0.00413337 -0.00582640
C -5.48833815 26.90875573 12.11959320 0.00697965 -0.00539799 0.00413065
C 1.04622147 25.98079831 12.11257736 0.00088351 -0.00221646 -0.00203201
C 9.24966976 21.32552214 5.91503557 0.00789499 0.01042879 0.00361996
C -0.90838656 24.14006609 9.36952666 -0.00348536 -0.00028440 -0.00433673
C -1.29503515 19.63016706 8.57146234 0.00229578 -0.00634239 0.00067245
C 5.17073772 23.64417397 8.63908106 0.00235626 -0.00575059 0.00523625
C 5.80134526 28.70647909 9.39991520 0.00288076 -0.00426475 0.00024610
C -2.07042782 25.04846739 9.05864752 0.00107801 0.00141331 0.00285004
C -0.03135848 20.43986050 8.68655390 -0.00393765 -0.00774871 0.00633045
C 6.34601504 22.84969251 8.92589945 -0.00052223 -0.00311678 -0.00321732
C 4.79688538 27.72168231 8.92264068 0.00486632 -0.00019732 0.00144057
C -3.00981592 23.16427141 17.33736889 -0.00649501 0.00362704 0.00026385
C -5.67057302 27.83946906 13.20276641 0.00280302 -0.00112999 -0.00105825
C 0.85894586 25.16788140 13.22393069 0.00479130 0.00341170 0.00414185
C 3.70209636 20.39749778 17.34471711 -0.00733069 0.00984182 0.00730121
C -1.76150260 23.19519938 16.63936364 -0.00963422 0.00116625 -0.01144707
C 6.21244072 27.84313336 13.82244284 0.00075890 0.00492773 -0.00722289
C -0.37700270 25.14004242 13.80983566 0.00377649 -0.00434531 0.00176118
C 31.01607724 20.48137682 16.46400282 0.00012549 0.00369766 0.00064849
C -0.74530782 22.35942374 17.02414661 -0.00345996 -0.00270157 0.00703593
C 5.26258034 26.91219370 13.48314593 -0.00186883 0.00559294 -0.00162724
C -1.33505280 26.07774747 13.43183064 0.00339723 -0.00301711 0.01181620
C -7.17931996 21.36155155 16.97904934 -0.00436512 0.00059372 -0.00371288
C -0.86618058 21.48750825 18.11925579 0.00036813 0.00766603 0.00868206
C 5.36231598 26.11871891 12.31120225 0.00703826 -0.00086258 0.00306658
C -1.15298057 26.87446953 12.28578823 -0.00044717 -0.00585694 -0.00495004
C -7.35527932 22.06009701 18.21968086 -0.00108115 0.00375468 -0.00523496
C 1.09679496 21.33476654 12.72144484 -0.00366335 -0.00787579 0.00175515
C 3.72385624 25.97200944 17.87875850 -0.00293606 -0.00090818 0.00478870
C -2.97114713 27.21995461 17.67088414 0.00573590 -0.00314870 -0.00047354
C -5.55204186 22.37697098 12.59324968 0.00143744 0.00436202 -0.00116218
C 0.16744917 22.24932175 12.25905651 -0.00568320 0.01080602 0.00326598
C -8.54057866 27.00738269 18.04985923 -0.00016868 0.00267617 -0.00478441
C -2.02236004 26.26386414 17.98181598 0.00110656 -0.00250031 0.00016351
C 6.61716983 21.16926667 12.43833008 0.00314446 -0.00607615 0.00210812
C -4.32037927 24.41798098 15.72003808 -0.00561014 0.00341961 0.00870979
C -4.15504578 19.79256186 14.76846610 0.00674386 0.00692172 -0.00020497
C 2.01370241 23.88594794 14.89629007 0.00189108 -0.00217852 0.00560644
C 2.63679402 28.55284619 15.77665264 -0.00521986 0.00337268 -0.00539256
C -5.48625165 25.29526995 15.52352918 -0.00227507 0.00226221 0.00556622
C -3.00084033 20.65601091 15.02696812 -0.00377633 0.00688229 0.00490337
C 3.11208959 22.89554891 15.10400805 -0.00269775 -0.00259005 0.01043358
C 1.34090706 27.65826542 15.50773429 0.00467773 -0.00364214 -0.00517882
C -6.15042059 23.25134311 23.12921911 -0.00621518 0.00408902 0.00044085
C -8.72230181 27.91139059 19.16826988 -0.00049933 -0.00463585 0.00187369
C -2.14684002 25.42363727 19.11611990 0.00641489 -0.00019672 -0.00197038
C 0.48157225 20.79643730 23.19924491 -0.00237669 0.00093706 -0.00513400
C -4.88619032 23.18136151 22.40823144 -0.00431124 0.00283562 -0.00268052
C 3.25768441 27.67532361 19.98484513 -0.00507022 0.00218475 0.00086101
C -3.36254608 25.50478321 19.82510704 0.00133364 -0.00149221 0.00558939
C 27.86493163 20.35656615 22.56523154 0.00475497 0.00507026 0.00794367
C -3.93582013 22.32449988 22.82881119 0.00353996 0.00155817 0.00291421
C 2.26068156 26.79270971 19.55681711 -0.00261703 -0.00359815 -0.00299542
C -4.39619999 26.30744566 19.34625315 0.00513507 0.00482219 -0.00766843
C -10.36380150 21.38297907 22.89146464 0.00612578 -0.00373539 -0.00488604
C -4.14251004 21.41194866 23.84632620 0.00053964 0.00511163 -0.00128360
C 2.52062163 25.82495264 18.63069032 -0.00627567 -0.00011653 0.00444190
C -4.23011272 27.21119330 18.27373299 0.00025283 -0.00395143 -0.00107864
C -10.55829320 22.29273443 23.94817143 0.00394672 -0.00083372 -0.00469972
C -2.06090646 21.56225078 18.89753355 0.00299585 -0.00399249 0.00818201
C 0.93771536 26.05561615 24.01827164 0.00222713 -0.00552754 -0.00136094
C -5.96965864 27.03800769 23.57663172 0.00289551 0.00119389 0.00326949
C -8.57333767 21.90240636 18.89649352 0.00654510 -0.00485080 -0.00460912
C -3.04758807 22.38976658 18.46347596 0.00076873 -0.00064893 0.00291338
C -11.37718751 26.76598159 24.17709228 0.00533127 0.00062754 -0.00209284
C -5.01693332 26.23756575 24.11307779 0.00226039 -0.00637052 -0.01048998
C 3.40107148 21.23971258 18.38692270 0.00366465 0.00062427 0.00082770
C -7.28019825 24.69357127 21.60327343 -0.00780064 -0.00862088 -0.00475295
C -7.44010147 19.66733874 20.78702969 -0.00051202 -0.00129701 0.00155135
C -0.91477994 24.04177851 20.70739585 -0.00320530 0.00686548 -0.00094626
C -0.47500231 28.66042933 21.74301298 -0.00400725 0.00017099 -0.00567319
C -8.65413144 25.38532426 21.30786386 0.00177562 -0.00055150 0.00058239
C -6.13917251 20.42579594 21.03017002 -0.00420712 0.00613250 0.00492760
C 0.33219419 23.11677159 20.89982684 0.00081345 -0.00797776 0.00457977
C -1.41868573 27.57210608 21.36554999 -0.00298024 -0.00042924 0.00439136
C 16.10525778 3.78299429 5.33674431 -0.00189666 0.00186700 0.00134522
C 13.34401388 8.48316460 1.16459348 -0.00034631 -0.00113598 0.00500430
C 20.09704602 5.87966792 1.05704933 -0.00509627 -0.00157908 0.00437220
C 22.83320999 1.20937095 5.21359796 -0.00664162 0.00555052 0.00128380
C 17.33682998 3.68763008 4.67688990 -0.00122237 -0.00326917 0.00067222
C 25.37903822 8.28643692 1.61292008 0.00549501 0.00604644 -0.00751141
C 18.82359531 5.85006167 1.69997496 0.00603909 -0.00205655 -0.00150154
C 10.82233724 1.46699929 4.71723240 -0.00147943 0.00601573 -0.00279766
C 18.27667881 2.83229148 5.12251562 -0.00559195 -0.00679871 0.00654593
C 24.39492329 7.45706693 1.16883710 -0.00503870 0.01506524 -0.00467673
C 17.81114036 6.65673828 1.27697235 0.01242054 -0.00049585 0.00561296
C 11.75881850 2.42477095 5.18017821 0.00612574 0.00576000 0.00401130
C 18.11250262 1.97064534 6.24617359 -0.00720681 -0.00677816 -0.00084734
C 24.55310536 6.64262761 0.06513705 -0.00390224 0.00090684 0.00737466
C 17.97347810 7.49512849 0.09506037 -0.00561500 0.00081350 0.00503065
C 11.51156137 3.17575442 6.34118817 -0.00272082 -0.00331796 0.00421011
C 19.95229122 2.22424679 0.71859675 0.00177090 -0.00288503 -0.00088287
C 22.79790397 6.85116075 5.61845305 -0.00753526 0.00522997 -0.00482849
C 16.14738465 7.57927689 5.46662602 0.00006485 -0.00175148 -0.00212214
C 13.18722204 2.79116034 0.74647101 -0.00517018 0.00127896 -0.00296496
C 18.91460641 2.98251774 0.26966844 -0.00020198 -0.00546302 0.00646843
C 10.41157691 7.86026736 5.89766037 0.00487012 -0.00240519 -0.00177354
C 17.13028425 6.78216345 5.96496019 -0.00417470 -0.00536949 0.00239599
C 25.45847409 1.90658422 0.12467431 -0.00180192 -0.00093017 0.00415795
C 14.98747478 5.04397382 3.67091124 0.00357117 -0.00024221 -0.00731866
C 14.46088246 0.35099623 2.88219318 0.00067428 0.00589274 -0.00520542
C 21.29387130 4.47824667 2.59418833 -0.00226857 -0.00153765 -0.00154991
C 21.31184214 9.15739957 3.52440182 -0.00245795 -0.00294119 -0.00055024
C 14.03664506 6.11689760 3.25139717 -0.00312284 0.00477521 -0.00561270
C 15.60679464 1.31624727 3.21869471 0.00540533 0.00559266 -0.00123374