2880
Time=70000.00000007 pbc="T T T" Lattice="39.33037006 0.00000000 0.00000000 0.00000000 28.92179523 0.00000000 -12.01794128 0.00000000 24.36091299" energy=-18398.18157601 virial="40.15469876 -0.46637023 -60.71912861 -0.46637023 8.45995333 5.11496011 -60.71912861 5.11496011 52.04178325" stress="0.00394842 -0.00000744 -0.00215193 -0.00000744 0.00279953 0.00022322 -0.00215193 0.00022322 0.00432865" Properties=species:S:1:pos:R:3:vel:R:3
C 3.09268020 3.42271481 5.18911907 -0.00394460 -0.00397531 -0.00299985
C 0.41871737 8.35864944 0.90185456 0.00281007 0.01112397 0.00680293
C 7.06410390 5.87884445 0.79625938 0.00269030 -0.00409222 -0.00040808
C 9.78866443 1.28558217 4.90170401 -0.00185321 -0.00187261 -0.00448922
C 4.22991157 3.33170932 4.32717898 0.00290664 0.00052062 -0.00226148
C 12.32911908 8.59501747 1.38027276 -0.00482010 -0.00677814 -0.00505006
C 5.84579262 5.85738417 1.53270370 0.00347913 0.00450761 -0.00226893
C -2.23948805 1.07146815 4.56030388 0.00580813 -0.00146616 0.00590133
C 5.30398628 2.60138513 4.72916623 0.00863991 0.00271460 0.00554963
C 11.35252735 7.72280298 0.88923540 -0.00426312 -0.00231455 0.00043192
C 4.84786308 6.70752045 1.19807071 0.00357357 0.00043438 0.00278204
C -1.29024067 1.97522194 4.96262148 0.00466996 0.00131233 -0.00043211
C 5.29786618 1.86530365 5.90693293 0.00567871 -0.00240522 -0.00301680
C -0.43190494 6.90585186 24.12698265 -0.00771980 0.00253115 -0.00247742
C 5.01566303 7.65258686 0.19271948 0.00304796 0.00170653 0.00171417
C -1.49316644 2.72098969 6.12103216 0.00256498 -0.00093344 0.00415724
C 6.76402798 2.21666396 0.57958290 0.00235589 0.00256107 -0.00926193
C 9.53374675 6.96033785 5.33988507 -0.00571116 0.00191435 0.00151614
C 3.27059899 7.33061226 5.47265325 0.00071838 0.00444804 0.00189961
C 0.26989557 2.83549153 0.53636155 -0.00425789 -0.00497643 -0.00119797
C 5.81052962 3.08666897 0.10584902 0.00170687 -0.00004483 -0.00122776
C -2.39253936 7.40728822 5.73218739 0.00583102 -0.00513888 -0.00581355
C 4.21979363 6.38248574 5.85307157 0.00278889 0.00617767 -0.00304474
C 0.28199553 1.83766074 24.29256851 0.00583335 -0.00068730 0.00394559
C 1.72313067 4.69701851 3.67505213 0.00180757 0.00011470 0.00337116
C 1.63215224 0.04870031 2.83110057 0.00178686 0.00602805 0.00608240
C 8.26828743 4.43109006 2.38826140 0.00064591 -0.00252881 0.00669242
C 8.62287645 9.47271858 3.63321378 -0.00037288 0.00424937 0.00336340
C 0.45100717 5.46683478 3.52273839 -0.00077876 0.00128958 -0.00297743
C 2.83702649 0.96719608 3.06455389 -0.00466972 0.00022270 -0.00529946
C 9.45556918 3.60586498 2.54216131 -0.00012006 -0.00347811 -0.00003835
C 7.39146584 8.70706210 3.38578340 -0.00690955 -0.00112552 -0.00004972
C 0.27766590 3.85963936 11.49956949 -0.00502133 -0.00123675 0.00177600
C -2.45422004 8.19042209 6.86174039 0.00371963 -0.00183954 0.00023831
C 4.14789275 5.72909764 7.04936841 -0.00864518 -0.00046365 -0.00433633
C 6.79214216 1.04876977 11.24423526 0.00599764 -0.00312413 0.00688204
C 1.42994890 3.83784772 10.73000367 -0.00539048 -0.00300485 -0.00376465
C 9.22353400 8.39500012 7.71915184 -0.00369216 0.00046222 0.00344164
C 2.97663422 5.82419112 7.80403470 0.00139026 -0.00182056 0.00260927
C 33.98627146 1.21576682 10.58292606 -0.00165169 -0.00018669 -0.00183597
C 2.46857270 3.00388921 11.10050282 0.00207080 0.00605028 0.00847551
C 8.19279239 7.61675087 7.24537074 -0.00530364 -0.00082948 0.00422881
C 2.01712147 6.79054906 7.43180088 -0.00386758 -0.00232591 -0.00356266
C -4.32260092 2.06967001 10.93446569 0.00036948 -0.00453951 -0.00235513
C 2.34594304 2.17507063 12.17986101 0.00318359 0.00186710 -0.00538544
C 8.30069891 6.85745159 5.97777844 0.00357049 -0.00122148 -0.00309365
C 2.08158892 7.47241767 6.20517201 -0.00260236 -0.00053020 0.00208208
C -4.49787824 2.94004442 12.02960446 -0.00577597 -0.00035535 0.00054717
C 4.11840420 1.99332879 6.70586168 0.00205437 0.00323070 0.00192127
C 6.77544781 6.69868379 11.72705825 0.00391309 -0.00010488 0.00366451
C 0.24094780 7.65064283 11.61161836 -0.00141206 0.00348146 -0.01015148
C -2.83660302 2.75074682 6.64345684 -0.00892356 -0.00066317 -0.00056737
C 3.08907340 2.79364530 6.42556255 -0.00082289 -0.00382511 0.00081099
C -5.20226889 7.82028811 11.98906735 0.00179882 -0.00402748 -0.00219692
C 1.14401315 6.72125299 12.05654292 0.00174671 -0.00468131 -0.00287036
C 9.55860747 2.05073995 6.10039185 -0.00420124 0.00032903 0.00691966
C -1.00132036 5.19436355 9.93297979 -0.00205099 -0.00207526 0.00312218
C -1.11703322 0.32511511 8.50969154 0.00957068 0.00321663 0.00315283
C 5.35744514 4.26166363 8.54739289 -0.00381596 0.00067222 -0.00277167
C 5.17954859 9.21497893 9.51950048 -0.00184490 0.00457484 0.00128862
C -2.23984825 5.95691607 9.52806191 -0.00307711 -0.00091059 -0.00495399
C 0.18987047 0.91619771 8.52960760 -0.00444913 -0.00327118 -0.00259047
C 6.46407496 3.31195059 8.69322121 0.00535028 0.00233518 -0.00075593
C 3.98183725 8.37998075 9.40258304 -0.00041639 -0.00742140 -0.00272205
C -2.86965233 3.93347637 17.36114661 0.00147774 -0.00075089 0.00022910
C -5.41976818 8.69901307 12.99556304 0.00018161 0.00013460 -0.00430657
C 1.04416087 6.08079373 13.29671830 0.00105779 -0.00611853 -0.00295985
C 3.78037340 0.91912059 17.30555340 0.00328928 -0.00691666 0.00346595
C -1.69866008 3.77475173 16.62153751 -0.00492893 0.00012205 0.00588587
C 6.14609597 8.51607919 13.76848597 -0.00126411 -0.00494357 0.00576495
C -0.24538487 6.21874396 13.96483122 -0.00030697 -0.00133745 0.00398522
C 30.78128502 1.24605430 16.75930384 -0.00530675 -0.00557470 -0.00202141
C -0.70803454 2.79745617 16.94406501 -0.00392673 0.00591258 -0.01014900
C 5.25786130 7.44547146 13.44881444 -0.00064131 -0.00376074 -0.01235710
C -1.14977819 7.20931204 13.62942234 0.00417565 0.00242206 -0.01271517
C -7.53991631 2.12623272 17.11729451 0.00198607 -0.00608044 0.00612647
C -0.88497051 2.01684798 18.12329391 0.00397068 0.00871120 0.00060286
C 5.50376890 6.56160897 12.36467658 0.00176983 0.00110008 0.00387090
C -0.95201077 7.86370246 12.42514351 0.00258470 0.00750213 -0.00244960
C -7.54409871 2.81640167 18.35284155 0.00390098 0.00153259 0.00317691
C 1.13206656 2.17405182 12.97603970 0.00461770 -0.00495667 -0.00353235
C 3.59880794 6.91209214 17.56836119 0.00514234 -0.00028660 -0.00201381
C -2.79224171 7.89643657 17.88180519 -0.00247993 0.00494514 0.00642365
C -5.75238775 2.98882007 12.65752074 -0.00022432 0.00068995 -0.00317389
C 0.09908789 2.96632698 12.55040940 0.00177801 -0.00456845 -0.00281737
C -8.38769789 7.83045168 18.00748492 -0.00106914 -0.00148313 0.00010667
C -1.82016069 6.99002355 18.31098639 -0.00455518 -0.00011810 0.00605938
C 6.56994172 1.83837452 12.37716816 0.00505025 0.00139711 0.00727374
C -4.01026527 5.37564783 15.83826825 0.00023091 0.00472909 -0.00611564
C -4.47576550 0.40925449 14.71447084 0.00201148 0.00398847 0.00621216
C 2.09822296 4.59719623 14.85425919 -0.00742202 -0.00320897 0.00682399
C 2.34581883 9.50213569 16.00676427 -0.00204085 0.00009334 0.00348953
C -5.13911737 6.41465999 15.57258599 -0.00162356 0.00491085 0.00086075
C -3.56385814 1.56995546 14.97513958 0.00129951 0.00156081 -0.00482083
C 3.32386641 3.73062482 15.15166906 0.00637100 0.00216609 -0.00234709
C 1.06951681 8.65831813 16.10334002 0.00142255 -0.00132943 0.00298064
C -6.07795231 3.87440704 23.32244608 -0.00291822 0.00197655 0.00119622
C -8.62512395 8.57264579 19.16016586 0.00099879 0.00201935 -0.00898132
C -2.06313286 6.00008626 19.32440022 -0.00151995 -0.00117940 0.00202758
C 0.62042845 0.99630278 23.21702322 0.00169730 0.00520744 0.00103081
C -4.84117804 3.81677938 22.67792195 0.00177505 0.00121020 -0.00048933
C 3.21006430 8.32729470 19.89251167 0.00288008 -0.00122946 0.00821776
C -3.26605361 6.18123984 20.02551237 0.00360634 -0.00055176 0.00240195
C 27.95230288 1.13197977 22.74241284 -0.00550832 -0.00390053 0.00291867
C -3.89290149 2.84764795 23.01299676 -0.01041678 0.00319649 0.00655960
C 2.17467450 7.57174117 19.32623100 0.00543311 -0.00456086 -0.00036117
C -4.24968474 7.03588583 19.56627666 -0.00901989 0.00399961 -0.00352215
C -10.33110752 1.94934655 23.11624193 -0.00400446 -0.00178887 0.00116236
C -4.03760523 2.06151568 24.18723089 0.00075880 -0.00016004 0.00233789
C 2.40266102 6.69910967 18.25164215 0.00172933 -0.00718657 0.00259362
C -4.05525391 7.85364899 18.48699565 -0.00644998 -0.00508113 0.00258981
C -10.45733474 2.76826645 24.27661274 0.00303927 -0.01230605 -0.00551180
C -2.17445658 2.13806599 18.77873505 0.00091400 0.00406407 -0.00465324
C 0.80740302 6.98346986 23.45639938 -0.00392795 0.00313516 -0.00118305
C -5.84791768 7.59052207 23.79038228 0.00058325 -0.00658853 -0.00421009
C -8.77056455 2.76583261 19.09958261 0.00287113 0.00223831 -0.00266746
C -3.12661605 3.02930732 18.46604622 0.00308130 -0.00249880 0.00392866
C -11.35436957 7.52185265 24.17591662 -0.00659096 0.00504760 -0.00445154
C -4.81422198 6.74050998 24.09036113 -0.00490945 0.00025550 -0.00417104
C 3.49119250 1.79933799 18.33990987 -0.00128171 0.00518329 -0.00039694
C -7.26900419 5.15098904 21.67858952 -0.00005183 0.00116343 -0.00436851
C -7.35586283 0.39520657 20.90515938 0.00334960 -0.01110892 -0.00322651
C -0.83443254 4.36461328 20.70230750 -0.00331165 -0.00441987 0.00209189
C -0.35268568 9.43084078 21.77155454 -0.00354819 -0.00663123 -0.00204712
C -8.56378099 5.86749807 21.50541946 0.00034405 -0.00104560 -0.00163153
C -6.11638637 1.24479286 20.88103062 0.00010137 0.00512971 0.00254807
C 0.39351717 3.47772413 20.76408519 0.00014232 0.00311061 0.00101748
C -1.60565199 8.61509739 21.52828648 0.01035493 -0.00490948 -0.00842051
C 2.92721546 13.17060202 5.14342229 -0.00137980 -0.00332157 0.00347908
C 0.57624012 18.22138542 1.07750757 -0.00460551 0.00282057 -0.00949426
C 7.03554728 15.54846198 1.03100720 0.00154721 -0.00089291 -0.00421877
C 9.77455767 10.90180938 5.16336835 0.00497386 -0.00424074 -0.00299689
C 4.12187141 13.09775684 4.45971283 -0.00233171 0.00031182 -0.00102036
C 12.30693222 17.90738057 1.63521159 0.00004130 -0.00679769 -0.00753881
C 5.83456375 15.47170271 1.76838649 -0.00524873 0.00372632 -0.00125705
C 37.05693622 10.67665696 4.41691869 -0.00232200 0.00586402 -0.00917515
C 5.10865695 12.24527175 4.92253300 0.00701357 0.00580133 -0.00152695
C 11.34582527 16.97802696 1.36509199 -0.00849770 0.00838986 -0.00266179
C 4.81529095 16.35781411 1.40261721 -0.00539877 -0.00645822 0.00573849
C -1.40909452 11.68880779 4.73148029 -0.00539885 -0.00091838 -0.00178080
C 5.00746323 11.49653613 6.13185952 0.00147969 0.00443250 -0.00835770
C 11.49389419 16.24914946 0.22076176 -0.00432517 -0.00112547 0.00343599
C 4.95291784 17.26763454 0.33218026 -0.00302911 0.00136032 0.00539722
C -1.53092127 12.43169303 5.91457747 -0.00071454 -0.00992478 -0.00035455
C 7.10513716 11.70171199 0.52234666 0.00338430 -0.00406973 0.00614992
C 9.91329614 16.14283894 5.78152426 0.00041495 0.00296924 0.00455194
C 3.26325592 17.10218656 5.43696082 -0.00213892 0.00021671 0.00144295
C 0.55648209 12.41391735 0.43014796 -0.00258194 0.00472912 -0.00351475
C 6.18702195 12.60579231 0.12814371 -0.00458802 -0.00150687 -0.00386171
C -2.37878734 17.44816255 5.86651900 -0.00426944 -0.00344727 0.00565600
C 4.23177589 16.19423992 5.84677170 -0.00205411 -0.00084973 0.00366700
C 12.66652041 11.64053725 0.04254123 0.00060500 -0.00049994 -0.00321304
C 1.94866696 14.69334904 3.53504846 0.00090047 -0.00540539 -0.00422604
C 1.64052531 9.67037567 2.44884404 0.00163519 -0.00048124 0.00231157
C 8.43108774 14.15697225 2.54999278 -0.00140281 0.00255479 -0.00149914
C 8.65752837 18.79614871 3.37821515 0.00203147 0.00485837 0.00636213
C 0.93381553 15.79875238 3.43074715 -0.00773125 0.00108106 -0.00672402
C 2.85592841 10.57294960 2.46945221 0.00023555 -0.00041876 0.00846367
C 9.70936253 13.40808620 2.55652482 -0.00298824 0.00077512 -0.00385266
C 7.45420129 17.92905249 3.24720530 0.00756752 0.01039317 0.00051062
C -0.06163802 13.30842829 11.08278824 0.00585365 0.00094561 -0.00815754
C -2.61410035 18.19713277 6.97768883 -0.00137878 0.01062737 0.00314067
C 4.06300061 15.38714094 6.97448847 -0.00437174 0.00062877 0.00170148
C 6.49941288 10.54513630 10.98642867 -0.00654751 0.00212082 -0.00108260
C 1.13528017 12.99593328 10.38975193 -0.00188325 -0.00037069 -0.00167323
C 9.48583447 18.06009548 7.77171424 -0.00255439 -0.00317919 0.00281917
C 2.82857205 15.63164333 7.68582314 0.00108541 -0.00924504 0.00449042
C 33.86954633 10.88020537 10.55374035 0.00112063 0.00388068 -0.00010312
C 2.12714564 12.17308654 11.00990692 -0.00001758 -0.00353351 -0.00515702
C 8.44115501 17.19378961 7.50412377 0.00006176 0.00435716 -0.00683559
C 1.90795830 16.58766238 7.31052604 -0.00629124 -0.00018113 0.00531657
C -4.56358402 11.82273565 11.01491631 0.00675576 0.00272286 -0.00067689
C 1.86526782 11.54664953 12.24005675 0.00131411 0.00052099 -0.00228900
C 8.70776607 16.20300867 6.49977642 0.00182942 0.00410325 -0.01304005
C 2.09291876 17.31348098 6.13751199 -0.00901331 0.00370213 0.00326199
C -4.81184920 12.65938930 12.09135329 -0.00515113 -0.00037504 0.00088976
C 3.74276766 11.59323326 6.81982440 0.00633817 -0.00060561 0.00083821
C 6.90019845 16.49400465 11.41854385 0.00085606 0.00315248 -0.00196238
C 0.14698697 17.42455236 11.62154531 -0.00613063 0.00148454 -0.00709969
C -2.66624727 12.17208777 6.70898648 0.00051487 -0.00312144 0.00525668
C 2.76183910 12.38669334 6.29486851 0.00083643 0.00411731 -0.00155175
C -5.27216783 17.43712588 12.11001984 0.00346734 0.00024174 -0.00679571
C 1.03775270 16.39517746 11.89761514 -0.00606969 0.00263942 -0.00036674
C 9.61052374 11.63880637 6.36989090 -0.00581371 0.00587365 0.00058087
C -1.13170911 14.85116098 9.49477965 -0.00155462 0.00930505 0.00737799
C -1.23485412 9.55929930 8.53886082 0.00359155 0.00179459 -0.00691544
C 5.15413024 14.13158669 8.70613444 0.00488960 0.00114241 -0.00083147
C 5.51177061 18.94701734 9.49971254 0.00137936 0.00757894 -0.01034198
C -2.27665717 15.72672119 9.33663253 0.00356775 0.00286453 0.00517550
C -0.06611642 10.41056605 8.78068463 0.00125277 0.00630429 0.00205681
C 6.35222418 13.29086595 9.03232388 0.00294910 -0.00050134 0.00147155
C 4.39871028 18.02974853 9.43367756 0.00029166 0.00050252 0.00266030
C -2.84788748 13.34863494 17.46700403 -0.00370362 0.00539350 0.00286917
C -5.55146999 18.33131890 13.14450580 0.00063914 0.00530606 0.00569055
C 0.91103934 15.49107022 12.99749575 0.00205147 -0.00814576 -0.00161040
C 3.76395883 10.90122601 17.35793144 -0.00391793 0.00209919 0.00710457
C -1.61654565 13.34985477 16.80189032 0.01036070 0.00245316 0.00703625
C 6.43179892 18.17660249 13.68728866 0.00062393 0.00053290 -0.00858724
C -0.28975468 15.52343720 13.73814354 -0.00286735 -0.00265823 0.00217664
C 30.98031568 10.94794856 16.53636324 0.00780047 -0.00652371 0.00757432
C -0.63864196 12.39576520 17.18083993 0.00797245 0.00482368 0.00382842
C 5.48445916 17.26635691 13.26745134 -0.00457038 -0.00874312 -0.00196216
C -1.26071451 16.40027911 13.38294543 0.00288794 -0.00058365 -0.00826735
C -7.34503220 11.82035393 16.98708455 -0.00674040 0.00261691 0.00204078
C -0.83565402 11.57406836 18.28142783 0.00186140 0.00210485 0.00447515
C 5.66672943 16.39211770 12.17387258 -0.00221691 -0.00010763 0.00288092
C -1.05540596 17.33977610 12.30289889 -0.00363797 -0.00598056 -0.00728587
C -7.47218865 12.67304750 18.17502098 0.00468688 0.00103883 0.00451361
C 0.68773508 11.83034242 12.87057383 0.00328770 0.00310814 0.00087736
C 3.73280047 16.59277964 17.77386859 0.00078557 -0.00208970 0.01032918
C -2.71505172 17.33897421 17.91229124 0.00501958 0.00101681 0.00226489
C -6.02296738 12.42682046 12.79888918 -0.00265324 0.00690190 -0.00826151
C -0.32868093 12.60092195 12.23093643 -0.00033590 0.00053382 -0.00037883
C -8.32157546 17.47224296 18.15600716 -0.00397367 0.00396075 -0.00530617
C -1.82014822 16.37811882 18.28267088 0.00053185 0.00211087 0.00176954
C 6.31956411 11.40013246 12.10790766 0.00364237 -0.00566831 0.00708979
C -3.94799722 14.83254963 15.87731732 -0.00022980 0.00023656 0.00572137
C -4.32904485 10.07125506 14.66500974 -0.00553427 0.00106764 -0.00262520
C 2.29467413 14.19097714 14.48245377 0.00329806 -0.00409312 0.00214315
C 2.47239674 18.82569994 15.68861091 0.00417990 0.00201237 0.00241167
C -5.08906523 15.85042607 15.79809913 0.00524843 -0.00459244 -0.00151757
C -3.05503424 10.88811065 14.85592457 0.00131177 -0.00190598 0.00061651
C 3.72186660 13.62855174 14.62333831 0.00346716 -0.00073426 0.00217531
C 1.35176950 17.73751102 15.62832029 0.00245863 -0.00178338 0.00254206
C -5.65394398 13.30609014 23.26582061 -0.00555982 0.00033904 -0.00382814
C -8.54004920 18.26829876 19.27230804 -0.00824209 0.00055831 0.00134029
C -1.99447679 15.60602468 19.37873877 0.00746588 -0.00018090 -0.00012876
C 0.89705338 10.84979231 23.31898916 -0.00540749 0.00808454 -0.00401065
C -4.41983540 13.17295194 22.60226158 -0.00207972 0.00020016 0.00519991
C 3.19554607 18.26230481 19.88058378 0.00494008 -0.00318210 -0.00062765
C -3.13022085 15.87397161 20.17938654 0.00343972 0.00301251 0.00070928
C -11.06435871 10.81560444 22.59327206 0.00474093 -0.00107514 -0.00198983
C -3.39099237 12.41280895 23.14737283 -0.00185160 -0.00060891 -0.00263216
C 2.24039558 17.29073377 19.45682039 0.00837979 -0.00370347 -0.00086488
C -4.06536201 16.72158925 19.71565668 -0.00547915 0.00888392 -0.00139211
C -10.05997511 11.66222043 22.94952526 0.00656433 -0.00018464 0.00780445
C -3.62352977 11.54197260 24.25246196 -0.00199779 -0.00113976 0.00094566
C 2.52259531 16.41897617 18.40774067 -0.00415277 0.00929993 0.00120741
C -3.88132368 17.55554299 18.57207079 0.00046119 0.00544552 -0.00095354
C -10.23543984 12.47397878 24.13060029 0.00202595 0.00626794 -0.00610932
C -2.00761969 11.65001012 19.03692926 0.00451369 -0.00105476 0.00262461
C 0.70200638 16.25682990 23.88276993 0.00265991 0.00255402 0.00089549
C -5.84462919 17.31529408 24.00133029 0.00972758 -0.00704381 0.00291325
C -8.74400666 12.65157298 18.78992199 0.00144657 0.00098741 0.00774014
C -3.03012211 12.45777525 18.56494521 -0.00346629 0.00836353 -0.00322692
C -11.27225497 17.48098530 24.23304732 -0.00309583 0.00017032 -0.00796345
C -4.85145322 16.42435320 24.30785543 0.00371059 0.00181208 -0.00070541
C 3.62823986 11.86545163 18.41815502 -0.00141804 0.00518577 0.00513923
C -6.78500691 14.69850138 21.66266647 -0.00360440 -0.00456471 -0.00358288
C -7.46175171 9.81862981 20.81293641 0.00183424 0.00129261 0.00166970
C -0.76959914 14.17614101 20.93250001 0.00361588 0.00564774 0.00425983
C -0.27656438 19.24410450 21.79176190 0.00047120 -0.01090901 -0.00045755
C -7.93588986 15.56485612 21.48768223 -0.00470803 0.00481728 0.00165067
C -6.25788809 10.64637234 21.18025849 -0.00856949 -0.00239682 0.00268019
C 0.38651339 13.27714854 21.12700316 0.00160139 -0.00228635 -0.00247269
C -1.58449815 18.51225280 21.68195688 0.00084887 0.00408149 0.00375333
C 3.42790594 23.00519239 5.12788171 0.00472015 0.00109640 -0.00522497
C 0.42287111 27.68508251 1.03590361 0.00880416 0.00100384 -0.00088636
C 7.28575615 25.21639111 1.11069070 -0.00151399 0.00141215 -0.00223235
C 9.74001283 20.27336857 4.87056296 0.00252053 0.00085327 0.00385010
C 4.68416410 22.99505768 4.48591930 0.00498698 -0.00100123 -0.00329731
C 12.26358941 27.84418746 1.66875353 -0.00456865 -0.00118061 -0.00675498
C 6.11765762 25.42120411 1.88299335 -0.00022320 0.01196290 -0.00296840
C -2.13087729 20.43844724 4.48431590 0.00285473 -0.00043549 -0.00067805
C 5.62113281 22.01130671 4.72857711 0.00510821 0.01056683 0.00643108
C 11.36838389 26.85127873 1.38258786 -0.00156062 0.00927962 0.00492274
C 5.10536143 26.26475098 1.41719816 -0.00353042 0.00505203 -0.00861859
C -1.24062128 21.36844934 4.95371583 -0.00108852 -0.00224878 0.00138090
C 5.28128621 21.07221111 5.84605826 -0.00499574 -0.00338083 0.00289831
C 11.61923320 25.96992149 0.28305060 -0.00305038 0.00401126 -0.00534436
C 5.18145899 27.06267748 0.25409961 0.00508698 -0.00420557 0.00504435
C -1.56101961 22.23663412 5.95003631 0.00078600 0.00686844 -0.00153689
C 7.24519955 21.09281691 0.46173103 0.00039715 -0.00458228 -0.00646059
C 10.06344786 26.35522729 5.54780746 -0.00177007 0.00254824 0.00378231
C 3.28877403 26.77754369 5.64963077 0.00931390 0.00128523 -0.00750651
C 0.57594165 22.04717315 0.52315827 -0.00943091 0.00337828 -0.00551583
C 6.23562645 21.85657530 0.05611361 0.00178361 -0.00791808 -0.00476724
C -2.36468927 26.92771006 6.01366846 -0.00389870 -0.00372373 0.00079905
C 4.34014925 25.93921025 6.04983178 -0.00055141 -0.00297174 -0.00033720
C 12.83028046 21.31108301 0.10730922 0.00236808 0.00393238 -0.00448234
C 2.13685665 24.46732273 3.57612428 -0.00012513 0.00511725 -0.00707123
C 1.76500849 19.77162885 2.47249274 0.00208087 -0.00135711 -0.00125750
C 8.38259022 23.74905581 2.66561689 0.00169441 0.00722195 0.00066103
C 8.76752582 28.71655313 3.30072289 -0.00054405 0.00715974 0.00429605
C 0.85649673 25.22379207 3.39920239 -0.00220640 -0.00140618 -0.01287708
C 2.90587701 20.64494606 2.57473469 0.00169990 0.00008703 -0.00222601
C 9.44225764 22.69625100 2.98836055 -0.00354476 -0.00509384 -0.00035309
C 7.58570605 27.81706361 3.12495993 -0.00316991 -0.00278660 -0.00654632
C 0.22721687 23.08634081 11.13476118 -0.00746453 0.00218402 0.00428388
C -2.50322824 27.87931040 7.07222310 -0.00284360 0.00261465 -0.00999437
C 4.17749546 25.08112356 7.17547893 -0.01145056 -0.00509113 0.00066970
C 6.69955106 20.53174015 10.90661438 -0.00587710 -0.00253276 -0.00810761
C 1.45916888 22.96394880 10.42325173 0.00220903 -0.00404250 0.00400799
C 9.44509231 27.96854326 7.69623002 -0.00218961 -0.00592426 0.00025082
C 2.91726479 25.02960322 7.78593970 0.00184822 -0.00209973 0.00280042
C -5.02810116 20.57555960 10.39860028 0.00001335 -0.00089419 -0.00329757
C 2.34606920 21.96707904 10.79989234 0.00011013 0.00134867 -0.00254376
C 8.58144214 26.95773037 7.37222289 -0.00464135 -0.00738722 0.00404338
C 1.96613893 25.98001146 7.55955482 -0.00568985 0.00517822 0.00334494
C -3.99555370 21.41125426 10.82820954 0.00333578 0.00301702 0.00272463
C 2.22436310 21.14277626 11.96987629 -0.00319616 0.00019474 -0.00245450
C 8.89385151 26.19137706 6.28634381 -0.00524101 0.00163605 -0.00234624
C 2.11663422 26.82124044 6.37043310 0.00168559 -0.00463468 0.00083249
C -4.21832711 22.33421328 11.95241261 0.00173607 0.00128306 -0.00495661
C 4.00664757 21.05770574 6.39146154 -0.00382281 0.00260795 0.00439624
C 6.65154708 25.91333028 11.73705951 -0.00511001 -0.00487119 -0.00038789
C 0.23576522 26.97155028 11.71376181 -0.00373534 -0.00131735 0.00129951
C -2.80067412 22.03586407 6.58989132 -0.00097859 -0.00072449 -0.00126140
C 3.16523700 22.12041681 6.13226404 -0.00173788 0.00411333 -0.00435211
C -5.30766360 27.09863926 11.97974775 0.00863530 0.00093396 0.00219939
C 1.16280023 25.97845341 12.00811552 0.00191048 0.00105802 -0.00570381
C 9.56333127 21.15192543 5.99750744 -0.00300821 0.00075985 -0.00304595
C -0.96514009 24.45483576 9.51338244 -0.00265475 -0.00387617 0.00117606
C -1.22041268 19.56463489 8.60164846 0.00577590 -0.00787466 -0.00147451
C 5.40337305 23.84331281 8.77836836 0.01018378 -0.00839092 0.00416884
C 5.61471530 28.59939444 9.72283336 0.00058225 0.00113701 0.00926927
C -2.22101189 25.19747750 9.28580558 -0.00198158 -0.00423787 -0.00697009
C -0.16930829 20.56776389 8.70422392 0.00104706 -0.00596978 -0.00613419
C 6.64750252 23.02881463 8.95226341 0.00396938 -0.00220982 0.00474712
C 4.30808292 27.87766003 9.36545552 0.00737742 -0.00057768 0.00542697
C -2.86164660 23.21111219 17.25937522 0.00124222 0.00483279 -0.00044588
C -5.52220170 27.83482298 13.14762634 -0.00217290 -0.00470689 0.00156496
C 0.94464419 25.17591331 13.15012961 0.00548221 0.00131247 -0.00113689
C 3.68715077 20.34675538 17.24210579 0.00225066 -0.00748774 0.00059916
C -1.73012922 23.12726395 16.51721589 0.00662383 -0.00287376 -0.00386245
C 6.38781120 27.57371704 13.97123432 0.01031479 -0.00377353 0.00806590
C -0.22804025 25.42853691 13.88748688 0.00326526 0.00945539 0.00239274
C -8.11361421 20.63618905 16.60114743 0.00654979 -0.00067199 -0.00079972
C -0.73643164 22.21582930 16.93455199 0.00270872 -0.00523393 0.01215352
C 5.38974609 26.68176139 13.61921807 -0.00476618 -0.00983192 -0.00066939
C -1.18081888 26.30292596 13.42987786 -0.00298246 0.00268226 -0.00375135
C -7.10634471 21.44115093 17.14829936 -0.00256900 0.00121360 -0.00068130
C -0.86027396 21.43504321 18.09818986 0.00225711 0.00108345 -0.00191398
C 5.42590633 25.97797252 12.44235953 -0.00471678 -0.00257458 0.00624048
C -1.02076103 27.12656151 12.28426137 -0.00007124 -0.00972571 -0.00381417
C -7.29830258 22.28452227 18.30249751 0.00276226 -0.00156584 0.00940541
C 1.05101588 21.38642850 12.75228589 -0.00849700 -0.00658870 -0.00861792
C 3.93223070 25.98007233 17.88465252 0.00864975 0.00561532 0.00015932
C -2.65088477 26.99802875 17.88894121 -0.00031140 0.00633792 -0.00259067
C -5.49612111 22.32845481 12.51426828 0.00738100 0.00152399 -0.00359581
C 0.07080856 22.25990634 12.23829146 -0.00632170 -0.00325697 0.00016903
C -8.37503596 26.99934149 18.29812642 0.00181683 0.00113670 0.00581032
C -1.73482517 26.10489619 18.26922784 -0.00264033 0.00092820 -0.00078170
C 6.57467046 21.32973683 12.03793851 -0.00115159 -0.00247281 0.00613938
C -4.20675176 24.40685604 15.66364637 -0.00429973 -0.00844947 0.00213196
C -4.37734033 19.68142570 14.68620150 -0.00416488 0.00068997 -0.00129191
C 2.07984593 23.70923421 14.75424691 0.00106052 -0.00387860 -0.00452071
C 2.69218802 28.62445931 15.61531292 0.00301078 0.00048161 0.01081374
C -5.56169951 24.99680062 15.57243912 0.00067227 -0.00158561 -0.00216489
C -3.07635733 20.44228946 14.88826463 -0.00061689 0.00676854 0.00609370
C 3.22402359 22.70042256 14.83364854 -0.00531436 0.00159971 0.00374732
C 1.53710652 27.63734003 15.37509515 -0.00674694 -0.00080240 -0.00221447
C -5.58602191 22.87360458 23.43303092 0.00036719 0.00382214 0.00450817
C -8.59112078 27.80300941 19.44247720 -0.00583762 -0.00181664 -0.00127361
C -2.02861350 25.19793724 19.32912473 0.00377736 -0.00102939 0.00307280
C 1.00455767 20.45800898 23.40253232 0.00157874 -0.00411395 0.00567991
C -4.31775422 23.03850767 22.88164757 0.00480856 -0.00495658 -0.00430773
C 3.47149323 27.77105131 19.99653393 -0.00219419 0.00093444 0.00513177
C -3.24910665 25.29859605 19.94126065 0.00363649 0.00384354 -0.01158868
C 28.12236740 20.39494926 22.70546973 -0.00679849 -0.00798165 -0.00627097
C -3.27150707 22.17734902 23.29530185 0.00095030 -0.00594317 -0.00388609
C 2.45072587 26.93674492 19.58340039 -0.00343921 0.00588417 0.00314743
C -4.28318153 26.12173850 19.49405899 0.01270008 0.00562746 0.00395392
C -10.10033147 21.17793458 23.07480017 -0.00189712 0.00012667 0.00121316
C -3.43792323 21.22370568 24.30764899 -0.00268646 0.00255567 0.00131795
C 2.67804485 25.97142343 18.58631413 -0.00160496 -0.00086858 0.00150742
C -3.98108423 27.01381399 18.40078592 0.00974731 0.00674567 0.00090986
C -10.23899726 22.09345058 24.11140390 -0.00627088 -0.00454585 -0.00799488
C -2.04388500 21.56169850 18.79590066 0.00371857 0.00632071 0.00700678
C 0.76066744 26.02526752 23.87249811 -0.00542981 -0.00151315 -0.00286920
C -5.61201509 26.84729135 23.88060630 -0.00010295 0.00489775 -0.00020753
C -8.55989186 22.31018141 18.77169351 0.00943905 0.00113127 -0.00094175
C -3.07398796 22.35186129 18.29697554 0.00347824 0.00269350 -0.00276688
C -11.40293287 27.14827307 24.12808552 -0.00033520 -0.00197506 -0.00053379
C -4.60863159 25.97785595 24.32561224 0.00344305 -0.00171538 -0.00477212
C 3.45084676 21.30187463 18.26629428 -0.00879767 -0.00549326 0.00530659
C -6.80128089 24.29093958 21.97238150 -0.00392484 -0.00179790 -0.00299362
C -7.06869518 19.39000708 20.73370420 0.00147104 0.00262927 0.00031154
C -0.94344719 23.73437208 20.91616406 -0.00415383 0.00570622 -0.00752684
C -0.55381643 28.48366575 21.65787967 -0.00922446 -0.00396154 0.00428164
C -8.16546455 24.95991330 21.88349073 0.00157841 -0.00852294 -0.00002749
C -5.82381573 20.18137925 20.79446020 0.00069662 -0.00591100 -0.00086354
C 0.24564560 22.90451496 21.20517035 -0.00300785 0.00112490 -0.00579163
C -1.53937778 27.39929063 21.49893380 -0.00210097 -0.00158474 0.00354984
C 16.12367471 3.73658679 5.07282461 0.00030874 -0.00106175 -0.00203666
C 13.55596443 8.59668615 0.76803407 -0.00196787 -0.00594682 -0.00013001
C 20.06299181 5.76465888 1.16524588 -0.00537070 0.00283869 0.00256157
C 22.89395587 1.08183649 5.14837495 0.00589471 0.00707662 0.00097071
C 17.39100746 3.79026791 4.50474001 0.00607623 0.00220724 -0.00165787
C 25.44543862 8.44299672 1.69706817 -0.00778841 0.00621006 0.00117888
C 18.81238191 5.90126517 1.81653063 -0.00044256 -0.00235159 0.01299746
C 11.01405050 1.51277286 4.32832354 0.00079331 -0.00153627 0.00053061
C 18.32651316 2.84099457 4.86568335 -0.00703832 0.00861584 0.00101774
C 24.49699829 7.49944785 1.38461250 0.00056039 0.00708178 0.00116078
C 17.86933413 6.86288911 1.38281716 -0.00430480 0.00649121 0.00043746
C 12.02096204 2.31455005 4.82609612 -0.00010303 -0.00230914 -0.00136154
C 18.18387809 2.09981525 6.05995539 0.00027917 0.00182449 -0.00372001
C 24.57293852 6.78057683 0.17730857 -0.00098816 0.00188333 0.01370795
C 18.16066468 7.61942080 0.24443196 0.00131514 0.00517018 0.00009508
C 11.74226725 3.01739875 6.06366891 -0.00446200 -0.00060342 -0.00373996
C 19.85594066 2.06542640 0.67155986 0.00437508 0.00614886 -0.00648019
C 22.44460813 6.92994008 5.50580170 -0.00226618 -0.00212352 -0.00228162
C 15.96251291 7.46669566 5.34136706 0.00087677 0.00407605 0.00076962
C 13.22532524 2.72027218 0.41976334 -0.00020321 -0.00254111 0.00439776
C 18.91767461 2.95331302 0.13595862 0.00050660 0.00129992 -0.00063622
C 10.51925610 7.81867555 5.84778533 -0.00563966 0.00330251 -0.00330473
C 16.94413761 6.74398587 5.83046754 0.00298355 -0.00144787 0.00496637
C 25.48062440 1.94987587 0.14779119 0.00749422 0.00369113 0.00185587
C 14.80349802 5.00888792 3.42554729 0.00049980 0.00393691 0.00523673
C 14.70628683 0.44230290 2.48858461 0.00413337 0.00121490 0.00628841
C 21.01049021 4.35104511 2.79079672 0.00231629 0.00173153 0.00598991
C 21.56803282 9.35568296 3.30864751 -0.00123213 0.00391443 -0.00288295
C 13.73992200 6.05169217 3.27522799 0.00615545 -0.00032296 -0.00857885
C 15.86272503 1.29719343 2.60059841 0.00225384 -0.00189804 0.00127697
C 22.24527712 3.54722048 3.11487610 0.00793047 0.01109629 0.00231294