2880
Time=92000.00000002 pbc="T T T" Lattice="39.17117352 0.00000000 0.00000000 0.00000000 28.85255383 0.00000000 -12.02764804 0.00000000 24.40028097" energy=-18397.28360164 virial="110.69728523 -12.04345765 -88.61399844 -12.04345765 55.18726936 13.45564370 -88.61399844 13.45564370 69.25378272" stress="0.00650344 -0.00039406 -0.00322925 -0.00039406 0.00450289 0.00046538 -0.00322925 0.00046538 0.00497837" Properties=species:S:1:pos:R:3:vel:R:3
C 2.89145756 3.65745438 5.08311694 0.00378096 0.00049061 -0.00391380
C 0.51238477 8.57608115 0.87214553 -0.00253201 -0.00104898 -0.00490470
C 6.96512795 6.02264898 1.13039455 0.00088956 0.00174766 0.00305442
C 9.59154122 1.19772285 5.27975713 -0.00245972 0.00391174 0.00045835
C 4.17819211 3.65807141 4.47963185 0.00046492 0.00109556 0.00499988
C 12.30757746 8.10603259 1.77656475 0.00100708 0.00224418 -0.00485171
C 5.71679529 6.11888041 1.76185131 -0.00378535 -0.00110663 0.00212633
C 37.02575709 1.21810198 4.31860223 -0.00333448 0.00074984 0.00492426
C 5.14536674 2.77053324 4.80358554 -0.00069447 0.00115636 -0.00223327
C 11.21185661 7.45826743 1.34815453 -0.00450576 -0.00402284 0.00049332
C 4.72497810 6.89640420 1.21116335 -0.00244231 0.00283163 -0.00301567
C -1.11900909 2.08086518 4.80803858 -0.00240999 -0.00057285 0.00502370
C 5.05690229 2.03047222 6.01359908 0.00052788 0.00363473 -0.00461008
C 11.29330521 6.71699961 0.15729175 0.00233947 0.00177345 -0.00274028
C 4.93594942 7.68730299 0.03975392 -0.00206853 -0.00108271 -0.00048934
C -1.27457591 2.94844977 5.99640331 -0.00300174 -0.00421680 -0.00760753
C 6.80704727 2.23306824 0.75146695 0.00123582 -0.00311225 -0.00862318
C 9.75477163 6.84059536 5.76886544 -0.00313379 -0.00177663 0.00979359
C 3.05765673 7.48792326 5.53018360 -0.00106766 0.00542577 -0.00117571
C 0.23341126 2.95487997 0.44158744 0.00390150 0.00128100 0.00439583
C 5.86861171 3.14642657 0.31299055 -0.00028960 -0.00576286 0.00891720
C -2.69661812 7.78940537 5.85435346 -0.00278750 -0.00169073 0.00504233
C 4.03618242 6.64498318 5.97655470 -0.00576114 0.00240036 -0.00181622
C 12.56024540 2.07169587 0.05133753 -0.00093214 0.00132344 0.00136457
C 1.90924142 5.12211222 3.44665797 0.00302701 -0.00447499 0.00422589
C 1.46520613 0.28853058 2.31202147 -0.01271975 0.00156141 -0.00192779
C 8.04299585 4.64180613 2.81591296 -0.00207168 -0.00142192 0.00153073
C 8.35028186 9.29832750 3.51730434 0.00035086 -0.00231784 -0.00035382
C 0.80822571 6.06230400 3.15578027 0.00477392 0.00733420 0.00716093
C 2.65219860 1.06884888 2.64266645 0.00695020 -0.00808329 0.00455474
C 9.10612873 3.55907446 2.96726922 -0.00079142 0.00107265 -0.00245902
C 7.28740039 8.26134850 3.36658828 0.00092871 -0.00434353 0.00682863
C 0.03658521 3.77831866 11.10671575 0.00627938 -0.00734318 -0.00010350
C -2.84227688 8.42608702 7.05515006 0.00353784 -0.00060404 -0.00773698
C 3.79674162 5.81737011 7.08694284 -0.00222504 0.00676790 -0.00408661
C 6.51945483 1.04336357 11.44899152 0.00470874 -0.01170737 -0.00532361
C 1.28306319 3.69492887 10.51019429 -0.00737878 -0.00155094 -0.00175520
C 9.26253354 8.49149676 7.84304645 -0.00651725 -0.00174759 0.00492314
C 2.49853030 5.81685980 7.56367426 -0.00420483 0.00458256 -0.00023895
C 33.96697599 0.98664170 10.55109686 -0.00556350 -0.00194747 0.00037952
C 2.22055246 2.83404519 10.98352957 -0.00433167 -0.00265592 -0.00071779
C 8.30957244 7.47109780 7.53887517 -0.00250822 -0.00732928 -0.00250525
C 1.47098887 6.69837505 7.13492650 -0.00137151 -0.00591591 -0.00319487
C -4.27856377 1.98093078 10.88638560 0.00004544 0.00071809 0.00175263
C 1.92341674 1.86495930 11.97195659 -0.00234412 -0.00576129 -0.00690378
C 8.59159809 6.56132772 6.51575842 -0.00363577 -0.00478258 -0.00615825
C 1.76895860 7.59581812 6.09768625 0.01089040 -0.01174724 -0.00177959
C -4.44017488 2.80424438 12.01510091 -0.00445170 0.00944864 -0.00025338
C 3.74623142 1.91233977 6.56696885 0.00057853 -0.00248453 0.00048265
C 6.45283521 6.93812975 11.57690841 0.00525102 0.00068032 -0.00111576
C 0.46429076 7.56814989 11.69257397 -0.00418243 0.00393441 -0.00284255
C -2.57271728 2.82706600 6.59255120 -0.00473953 0.00899113 -0.00193912
C 2.70948645 2.74962504 6.15409743 0.00746105 0.00698606 0.00122988
C -5.32746471 7.65543150 11.99283886 0.00060290 0.00211552 0.00376323
C 1.35148485 6.58753375 12.13156418 -0.00322429 -0.00282667 0.00377968
C 9.39803132 1.99880078 6.37644586 0.00422049 0.00024839 -0.00230829
C -0.96848740 5.30491083 9.60702378 0.00209749 -0.00044914 0.00302524
C -1.40996599 0.30743191 8.64083120 0.00837616 -0.00402061 0.00053780
C 5.06561756 4.44224100 8.63902770 -0.00345717 0.00547261 0.00131563
C 5.31409361 9.58250321 9.58270175 -0.00016971 0.00085368 0.00329119
C -2.06449508 6.16046967 9.30863715 0.00110925 -0.00183612 -0.00846419
C -0.19693040 1.13378629 8.88635746 0.00236234 0.00499594 0.00506088
C 6.14143603 3.42004914 8.79333105 0.00062594 -0.00112765 0.00048763
C 3.95900454 8.99154714 9.42054374 0.00091495 -0.00590540 -0.00431736
C -2.83828504 3.80214614 17.43392242 -0.00306220 0.00370953 -0.00399929
C -5.59629836 8.46685487 13.08288944 0.00130120 0.00206784 0.00727677
C 1.01968548 5.74285255 13.26270168 0.00052307 0.00471653 0.00240292
C 3.59302798 0.85945179 17.40741632 0.00406319 0.00475200 0.00614293
C -1.58374901 3.76889107 16.75997925 -0.00519381 0.00145636 0.00279625
C 6.22829014 8.56824111 13.80581119 0.00103849 -0.00000409 0.00832599
C -0.20791892 5.90632402 13.88171507 0.00033380 -0.00315340 -0.00062274
C -8.15111413 1.26248119 16.67271707 -0.00419018 0.00313311 -0.00640374
C -0.54559108 2.90860464 17.27526257 -0.00395233 0.00365156 -0.00543509
C 5.25388208 7.63552730 13.50175733 0.00053954 0.00237764 -0.00488118
C -1.03227423 6.90129919 13.38178736 -0.00188031 0.00703641 0.00733646
C -7.17717944 2.18696597 17.03282180 -0.00301027 -0.00635552 -0.00592616
C -0.76398901 2.09627755 18.42984807 0.00444153 -0.00400750 -0.00266846
C 5.32164634 6.75233907 12.39016570 -0.00558041 0.00232450 -0.00641462
C -0.71342578 7.77926382 12.34492950 0.00938685 0.00257428 0.00596479
C -7.27226685 2.88909463 18.22271630 -0.00533513 -0.00369743 0.00747743
C 0.54855081 1.85570036 12.44691138 0.00473122 -0.00277017 -0.00408776
C 3.44163329 6.65173119 17.81662144 -0.00496810 -0.00131966 0.00132181
C -2.92514253 7.72055681 17.84097399 0.00318406 0.00183094 0.00296026
C -5.58225263 2.61371577 12.75839303 0.00162313 0.00349281 -0.00269661
C -0.29252508 2.86322704 12.18495559 -0.00315837 -0.00637765 0.00352859
C -8.48874899 7.81752457 18.02261940 -0.00410186 0.00164859 0.00086301
C -1.92085114 6.89805281 18.29772056 0.00195201 -0.00720423 -0.00580822
C 6.32953492 1.90068398 12.56254231 0.00112807 0.00131961 0.00295784
C -4.17835891 4.97731920 15.84181672 -0.00535963 -0.00761127 -0.00574431
C -4.57783482 0.13671157 14.97069741 -0.00212635 -0.00440994 0.00335140
C 2.06117662 4.33370561 14.97373875 -0.00708354 0.00017418 -0.00315131
C 2.39667041 9.33569103 15.79799735 -0.00202841 0.00056368 0.00035414
C -5.45956260 5.71368915 15.75458686 -0.00265313 -0.00426159 0.00141041
C -3.32137368 0.97634315 15.23944745 0.00175533 0.00637919 0.00602115
C 3.40700926 3.79352819 15.15810316 -0.00396908 0.00094020 0.00089256
C 1.31898924 8.37052191 15.79631565 -0.00251756 -0.00346026 -0.00277463
C -5.93952548 3.95884386 23.59689037 -0.00723323 -0.00430947 0.00704455
C -8.71834670 8.59197354 19.17739284 -0.00598617 -0.00025628 0.00899910
C -2.16234048 6.01888598 19.39715922 -0.00405108 -0.00162710 -0.00196391
C 0.70170168 1.11756030 23.39348805 -0.00115899 0.00243762 -0.00177131
C -4.67763748 3.89606558 22.93363889 0.00224859 0.00461761 0.00781962
C 3.12982758 8.12446145 20.15492876 0.00277444 -0.01270859 -0.01019717
C -3.41838428 6.17971255 20.09342697 -0.00812388 0.00353446 0.00619213
C -11.10523734 1.31533613 22.60399680 0.00417930 0.00036408 0.00104007
C -3.79148908 2.93678938 23.34644498 0.00212975 -0.00091285 -0.00383900
C 2.21160172 7.22315086 19.73640734 0.00070231 -0.00747760 0.00326920
C -4.38149762 6.98902481 19.59482042 -0.00127906 0.00320613 -0.00332601
C -10.18480501 2.16772242 23.19496971 -0.00378165 -0.00758925 0.00534296
C 8.03524915 2.14315625 0.09216216 -0.00010121 0.00268478 -0.00321679
C 2.36222458 6.34226409 18.59526724 0.00062540 -0.00022999 0.00418460
C -4.21154668 7.76815532 18.45091722 -0.00216925 0.00305579 -0.00326423
C -10.53275485 3.00982088 24.26128768 -0.00485831 -0.00343991 0.00027584
C -2.02271723 2.15055281 19.06010054 0.00042440 0.00104532 -0.00373734
C 0.43579419 6.75539384 23.73815220 0.00253999 0.00092797 0.00087923
C -5.79463380 7.68664853 23.96357833 0.00440088 -0.00345054 0.00239664
C -8.58710417 3.02330450 18.72932340 0.00304782 0.00636643 -0.00334393
C -2.97872472 3.05997109 18.60835462 0.00077966 -0.00256833 0.00143063
C -11.41220685 7.76866011 24.11872873 0.00719187 -0.00015454 -0.00605035
C 7.18397995 6.81256401 0.01353577 0.00023560 0.00220438 0.00391629
C 3.43632019 1.75286005 18.50226929 0.00204671 0.00131100 -0.00230844
C -7.23003920 5.04358192 21.82407987 0.00350587 0.00253064 0.00477760
C -7.57525893 0.59545978 20.91418100 0.00293935 0.00793740 -0.00276331
C -1.01771167 4.61462412 20.97225653 -0.00801729 -0.00201139 0.00955728
C -0.49936674 9.31683465 21.91620462 0.00701733 0.00404155 0.00546237
C -8.70779709 5.43496689 21.53346516 0.00072257 -0.00581866 0.00226725
C -6.28407104 1.41400560 21.12335070 -0.01204131 0.00123712 0.00251311
C 0.09718813 3.70507619 21.25088238 -0.00386299 -0.00263927 -0.01417072
C -1.77507781 8.49641924 21.72966206 -0.00213397 -0.00104024 -0.00176445
C 3.17730191 13.08273167 5.01106929 0.00239063 -0.00420323 -0.00555958
C 0.42822226 18.09950300 1.10614985 -0.00297340 0.00065865 -0.00629085
C 6.95617942 15.37245422 0.84294628 0.00556198 0.00162118 -0.00894540
C 9.62401209 10.61320934 5.10723830 0.00462168 0.00074616 0.00648385
C 4.39161428 13.03869325 4.29160611 0.00736205 0.00698004 -0.00091351
C 12.14597376 18.12692641 1.45647432 -0.00197551 0.00527971 0.00030913
C 5.74313762 15.36215054 1.59468461 -0.00496911 0.00446968 0.00300525
C 36.79514209 10.84682079 4.47996996 -0.00789445 0.00567079 0.00677348
C 5.40878481 12.24509126 4.61087176 -0.00257115 -0.00247204 -0.00382218
C 11.10796403 17.37235386 1.04056009 -0.00645015 0.00255649 -0.00058429
C 4.77450032 16.30861482 1.30275199 -0.00148281 0.00654507 0.00047286
C -1.38861453 11.74004027 4.83351565 0.00255221 -0.00561934 0.00448044
C 5.30576079 11.44669037 5.84418516 -0.00436738 -0.01128209 0.00502982
C -0.69895409 16.43382631 24.38208886 -0.00367530 0.00248847 0.00063335
C 4.86977921 17.17479500 0.20788641 -0.00474700 0.00101460 -0.00115001
C -1.53932507 12.58937800 5.93347433 0.00204019 -0.00374352 0.00291061
C 6.76515897 11.66755724 0.46959938 -0.00031991 -0.00347274 -0.00763752
C 9.72158645 16.43591822 5.43771586 -0.00131053 0.00113340 0.00519040
C 3.02362116 16.98024917 5.15455284 0.00409634 0.00076695 0.00415894
C 0.39044617 12.45151158 0.38387021 -0.00347391 0.00004239 0.00392488
C 5.82441202 12.57765657 0.06678410 0.00694924 -0.00384910 0.00090235
C -2.38597004 17.40616688 5.99555529 -0.00341281 0.00458624 0.00709617
C 4.03269501 16.12991530 5.62296742 -0.00188414 0.00484073 0.00835043
C 12.59561254 11.52416762 0.25610966 -0.00402533 -0.00118893 -0.00073389
C 1.91946060 14.53532696 3.46390949 -0.00339038 -0.00116077 0.00278435
C 1.68629135 9.92570656 2.54173179 0.00101565 0.00002480 0.00182106
C 8.25016231 14.15379799 2.43865684 -0.00541145 0.01075403 -0.00645019
C 8.43628953 18.76657734 3.55722681 0.00763956 -0.00571481 -0.00618555
C 0.67514342 15.37101586 3.11185526 -0.00250665 0.00590686 0.00441441
C 2.94718515 10.65737317 2.89256637 -0.00497116 0.00417936 -0.00559473
C 9.27144806 13.15047408 2.67320195 0.00585567 0.00215521 -0.00513700
C 7.09169118 18.03108784 3.36321858 0.00149960 0.00231135 -0.00023210
C 0.10333689 13.33987282 11.16474934 -0.00166797 -0.00461844 0.00500183
C -2.61519364 18.23595916 7.11805494 -0.00108087 0.00416889 0.00412139
C 3.86214785 15.34414679 6.76425144 0.00352402 -0.00404702 0.00541804
C 6.61615888 10.95779837 11.09908604 -0.00707847 -0.00430020 -0.00512554
C 1.39553385 13.26984847 10.55023185 0.00550199 0.00024104 0.00334732
C 9.24667807 17.99982939 7.75653148 0.00885070 -0.00286122 -0.00235498
C 2.70509563 15.54602871 7.54192363 -0.00178039 0.00158652 -0.00203132
C 33.84034773 10.67654709 10.62200035 -0.00480439 0.00313149 0.00404416
C 2.35152518 12.40851237 10.95361342 0.00866843 0.01167567 -0.00199461
C 8.29382788 17.13999343 7.24324814 0.00987177 0.00022697 0.00522368
C 1.65829086 16.29330223 7.06204113 0.00093785 -0.00608780 -0.00197731
C -4.29506318 11.53660712 10.96289377 0.00380600 -0.00119809 -0.00710865
C 2.20142319 11.62056418 12.13501122 0.00306997 0.00390458 -0.00657036
C 8.56722357 16.25231923 6.18886771 0.00005684 0.00265893 -0.00616497
C 1.78446041 17.06207931 5.86987914 -0.00481056 0.00835007 -0.00333064
C -4.40630817 12.46565998 12.04702925 -0.00012363 -0.00015895 0.00128983
C 4.13171192 11.50308366 6.56295554 0.00966256 -0.00783597 -0.00235309
C 6.64548362 16.65553342 11.53795018 -0.00395820 0.00308621 -0.00174582
C -0.05151591 17.26629516 11.52699015 -0.00161352 -0.00132036 -0.00400960
C -2.71094492 12.58263754 6.62100296 -0.00280339 -0.00197500 0.01046322
C 3.04428584 12.22714268 6.10124389 0.00370150 0.00579316 0.00216399
C -5.46166712 17.39443837 11.97385353 -0.00010053 -0.00264664 -0.00549503
C 1.01516331 16.41664952 11.91631030 -0.00117678 0.00302912 -0.00424898
C 9.28440229 11.51833219 6.08297217 -0.00724826 0.00168912 -0.00397435
C -1.05446363 14.72004922 9.52400687 -0.00610099 0.00357387 0.00259685
C -1.61818127 9.69459477 8.66810886 0.00012671 -0.00396039 0.00417619
C 5.03855542 14.12846726 8.44593760 -0.00139874 -0.00070273 0.00059628
C 5.49391518 18.85877692 9.36099602 -0.00358382 0.00128624 0.00557554
C -2.07867731 15.76259349 9.42695279 -0.00226085 0.00277206 -0.00507384
C -0.49143779 10.66648925 8.88655180 -0.00149199 0.00003686 -0.00490771
C 6.14680041 13.13801657 8.79137838 0.00545438 0.00935097 0.00161463
C 4.46038241 17.79461983 9.04671035 0.00201948 -0.00253194 -0.00198504
C -2.84780901 13.24452133 17.33455468 -0.00272376 -0.00071613 -0.00332110
C -5.64297713 18.07197130 13.19523761 -0.00389052 0.00015626 -0.00284632
C 0.83294348 15.61734673 13.08262112 -0.00007259 -0.00072247 0.00067555
C 3.69662874 10.82233277 17.25631004 0.00082772 0.00148010 -0.00041181
C -1.69814155 13.12501104 16.59255533 0.00488587 0.00303198 -0.00204488
C 6.15672606 18.13885036 13.66751651 -0.00436856 -0.00845115 0.00906835
C -0.47716615 15.49860138 13.64206724 -0.00435111 0.00222085 0.00461019
C 30.81049568 10.75579270 16.47237732 0.00358134 0.00469509 0.00011854
C -0.68381068 12.30271472 16.97639839 0.00327922 -0.00332137 -0.00190126
C 5.24373842 17.13192542 13.39195408 0.00195611 -0.00604166 -0.00210455
C -1.51390324 16.24648537 13.19493326 0.00175818 -0.00830500 -0.00406544
C -7.42694443 11.70785409 16.80275718 -0.00122161 -0.00279032 0.00125080
C -0.91222714 11.38426172 18.08989787 -0.00584169 0.01098970 0.00048925
C 5.45118637 16.35926018 12.24360686 -0.00032607 -0.00006430 0.00119382
C -1.29211074 17.20175083 12.11638845 0.00530490 -0.00055160 -0.00132475
C -7.58421232 12.53940691 17.91933126 0.00269550 0.00056887 0.00225108
C 0.98702866 11.69572821 12.78424216 0.00748950 0.00662741 0.00184973
C 3.63797929 16.39886369 17.67571194 -0.00469738 0.00269462 0.00327894
C -2.85554253 17.45323211 18.01731765 0.00575847 0.00148293 -0.00072945
C -5.65187863 12.51440390 12.73885085 0.00275565 0.00549549 0.00365016
C -0.04689404 12.47350040 12.24336456 0.00341089 -0.00297480 0.00865150
C -8.59372322 17.34967883 18.12617735 -0.00237333 -0.00023559 0.00111807
C -1.94702359 16.44208954 18.08491457 0.00917151 -0.00484014 -0.00134533
C 6.36090680 11.85311683 12.16434666 -0.00323780 -0.00147509 -0.00122319
C -4.15020053 14.75531414 15.83716197 -0.00113426 0.00600850 0.00216415
C -4.43488843 10.00556792 14.60445954 0.00614957 0.00388824 0.00616999
C 1.97606617 14.20943653 14.67412464 0.00452984 -0.00254738 -0.00395413
C 2.69213064 18.84689537 15.57521315 0.00556035 -0.00622658 0.00026557
C -5.42491871 15.43547597 15.85421082 0.00586555 0.00250197 0.00483516
C -3.21066989 10.81823713 14.66643856 -0.01071595 0.00449414 0.00019442
C 3.05177951 13.17428917 14.77039702 0.00188950 0.00374826 -0.00810408
C 1.44599747 18.08246938 15.40348769 0.00032642 -0.00095591 -0.00423191
C -5.99780439 13.25043827 23.24128942 -0.00633778 -0.00072538 -0.00101041
C -8.72086069 18.15283098 19.33031903 -0.00537567 -0.00688674 0.00662367
C -2.05221740 15.54723305 19.18760315 -0.00387895 0.00044743 0.00059979
C 0.72672710 10.71743186 23.58239106 0.00044883 -0.00186846 0.00178336
C -4.82014434 13.03741180 22.53034310 0.00501119 0.00405305 0.00144138
C 3.27729012 17.82169580 20.00268447 -0.00555597 -0.00074029 0.00597459
C -3.20294084 15.59035330 19.99270208 -0.00493046 -0.00675162 -0.00117963
C 27.82356782 10.77866889 22.62968989 0.00906123 0.00378619 0.00384969
C -3.86053871 12.21241616 23.02504030 0.00012193 -0.00217168 -0.00191722
C 2.30768878 16.97039999 19.58805402 -0.00024940 0.00289769 0.00437398
C -4.19147057 16.48800120 19.76088571 0.00319359 -0.00075519 0.00293303
C -10.40892984 11.68695454 22.91260279 0.00247416 -0.00126826 -0.00128610
C -4.03622211 11.58484011 24.24609338 0.00135762 0.00580896 -0.00609709
C 2.53830091 16.19329222 18.45860712 0.00294456 0.01224842 0.00119651
C -4.04500213 17.47542126 18.75490358 0.00257716 -0.00530932 0.00292213
C -10.48437357 12.55609302 23.98464699 0.00169934 0.00542021 -0.00297782
C -2.19921255 11.35449067 18.71769680 0.00042503 -0.00088681 -0.00778691
C 0.58652215 16.38373741 23.77874096 0.00823964 0.00431018 0.00217781
C -6.06445708 16.94897178 23.79483934 0.00357111 0.00323492 -0.00490650
C -8.78787199 12.42863913 18.54350849 0.00508699 -0.00241229 0.00883661
C -3.08156056 12.35363939 18.42918705 -0.00163130 -0.00242828 0.00399915
C 0.69957888 17.26746450 0.02738230 0.00595853 -0.00097321 0.00638564
C -5.05353913 16.08929792 24.04474834 0.00333015 -0.00501101 0.00357405
C 3.60203057 11.62644270 18.37667382 -0.00114786 -0.00355225 -0.00416221
C -6.98789869 14.46117172 21.51010326 0.00168473 0.00001570 0.00312261
C -7.59730584 10.07267016 20.76496560 0.00169101 -0.00037814 0.00195434
C -0.72144036 14.18462949 20.64266174 0.00084793 -0.00020109 0.00416188
C -0.54000293 18.76580391 21.68236254 -0.00151673 -0.00660172 0.00211126
C -8.16883412 15.38527403 21.12552601 0.00023295 0.00111783 -0.00480630
C -6.48724993 11.07830750 21.06882151 0.00121197 -0.00070699 -0.00621532
C 0.52254830 13.32926110 20.74313521 0.00156141 0.00153261 0.00016560
C -1.81580763 18.10668234 21.45596833 0.00363889 0.00364143 0.01058812
C 3.09307715 23.03697740 5.10641687 0.00204774 -0.00902332 0.00408847
C 0.39049503 27.86095826 0.63227487 0.00430025 -0.00344187 0.00353380
C 6.93615147 25.24990149 1.28811655 -0.00594768 0.00055041 -0.00164449
C 9.59960673 20.27497413 5.02178004 -0.00640317 -0.00114443 -0.00076920
C 4.26119529 22.77132612 4.43354525 -0.00264219 -0.00607699 0.00193741
C 12.40316991 27.56229031 1.95836604 -0.00501590 -0.00575193 -0.00469322
C 5.72433380 25.49172112 1.94867798 -0.00946892 0.00218170 -0.00025633
C -1.98469054 20.64637795 4.45818318 -0.00343554 0.00238131 0.00282014
C 5.11152977 21.70163343 4.83077168 -0.00360951 -0.00427827 -0.00402211
C 11.36695025 26.72146789 1.55428788 -0.00026322 0.00831212 0.00682862
C 4.86153160 26.48116154 1.48451519 -0.00198284 -0.00396072 0.00416472
C -1.07603571 21.65354606 4.83558861 -0.00049313 -0.00169542 0.00406291
C 4.84304049 20.88844521 5.85818292 -0.00564798 0.00111764 -0.00300434
C 11.51938975 25.92326012 0.40024272 -0.00238438 0.00519654 0.00136294
C 5.13468529 27.14564320 0.24156324 0.00103946 -0.00124333 0.00330441
C -1.40833623 22.50311889 5.90436458 -0.00595859 0.01009417 0.00089596
C 6.91429964 21.22954544 0.82315568 0.00119661 -0.00516993 0.00046811
C 9.57784448 26.07841758 5.69854093 0.00555033 0.00176164 -0.00047593
C 3.10613745 27.01951003 5.51254135 -0.00488918 -0.00055203 0.00740609
C 0.45684643 22.09241897 0.49625089 -0.00394741 0.00438486 0.00379938
C 5.96740491 22.09238524 0.33633437 0.00825342 0.00467850 0.00082096
C -2.43147953 26.88699135 6.06099714 0.00076944 -0.00331063 0.00450527
C 4.00756087 26.14105999 5.98555495 0.00208826 0.00175718 -0.00156089
C 12.44565612 20.90147911 0.08268006 0.00240755 0.00190777 0.00378462
C 2.06522593 24.53575362 3.57270213 0.00186533 -0.00634727 -0.00006948
C 1.54985057 19.64082953 2.64125297 -0.00253045 0.00568786 -0.00246631
C 7.88198463 23.68692863 2.84851471 0.00152763 -0.00343368 -0.00276494
C 8.46608778 28.75816552 3.58543587 0.00049962 0.00379523 0.00127060
C 0.82729284 25.40688886 3.40882620 -0.00236236 0.00128760 0.00161271
C 2.85640185 20.23741782 2.79414891 0.00433069 0.00178291 0.00970930
C 9.04013252 22.72631144 3.08499230 -0.00317859 0.00686966 -0.00776304
C 7.16841632 28.02793740 3.40195434 -0.00373595 0.00192357 -0.00399104
C -0.05783766 23.07464518 11.31264998 -0.00542320 -0.00079764 -0.00003611
C -2.56798745 27.79096505 7.05803238 0.00792368 -0.00047942 0.00080952
C 3.75803235 25.35831451 7.11974971 0.00175204 -0.00518481 -0.00130373
C 6.42635687 20.29830284 11.06121205 0.00287692 0.00014763 0.00637635
C 1.18010420 23.06389481 10.65784833 0.00132419 -0.00212212 -0.00068283
C 9.25696769 27.83687596 7.79427567 0.00270381 0.00223176 0.00059884
C 2.57212639 25.49911637 7.82252175 0.00120649 0.00213680 0.00079201
C 33.78615626 20.32795380 10.60263130 -0.00615417 0.00550848 0.00125183
C 2.24883630 22.18126522 11.07956217 0.00045718 0.00053153 0.00414203
C 8.24964962 26.98995502 7.45046112 0.00189114 0.00536571 -0.00474304
C 1.65110792 26.41908013 7.33479147 0.00140072 0.00448217 0.00428284
C -4.46056318 21.26789996 11.01688670 -0.00623559 -0.00274363 0.00349291
C 2.13089226 21.45903480 12.26315609 -0.00078012 -0.00223033 -0.00485557
C 8.41515443 26.12037142 6.34734739 -0.00482103 0.00049092 0.00071535
C 1.93482353 27.27557459 6.26296007 0.00328456 0.00260501 0.00050980
C -4.68419766 21.97764229 12.21773487 -0.00283914 -0.00598224 -0.00055753
C 3.75251109 21.19948617 6.73243129 0.00893444 -0.00539808 -0.00326274
C 6.60908973 26.24378442 11.59698559 0.00356179 0.00226116 -0.01427404
C -0.08399159 26.81758669 11.61958451 -0.00287265 -0.00147962 -0.00101117
C -2.65406733 22.30556920 6.57557527 -0.00457782 0.00031371 -0.00002846
C 2.93725767 22.24998384 6.33045272 0.00334523 0.00111688 -0.00381663
C -5.59847219 26.82992609 12.33644207 0.01263483 -0.00431728 -0.00291629
C 0.91882701 26.05437217 12.15010381 -0.00409264 0.00145149 -0.00455947
C 9.39936485 21.02206218 6.19345237 0.00790867 -0.00159615 -0.00468299
C -1.33508931 24.45770421 9.74252227 -0.00108674 -0.00853419 -0.00620189
C -1.37249025 19.54904057 8.69892160 0.00292083 0.00519744 -0.00104959
C 5.02680910 24.00439489 8.66577683 -0.00255380 0.00013834 -0.00137124
C 5.22318786 28.73205641 9.81044429 -0.00173209 0.00149658 0.00681640
C -2.56157495 25.18734786 9.47977532 -0.00124807 -0.00013388 0.00220878
C -0.04325116 20.29639719 8.78543659 -0.00049126 -0.00658238 -0.00476748
C 6.23684713 23.13640225 8.80775931 -0.00054431 -0.00014304 -0.00219872
C 4.16307247 27.67233740 9.80180566 0.00501951 -0.00343391 -0.00110136
C -2.72604604 22.97652116 17.66078342 0.00252008 -0.00131849 0.00687581
C -5.80566508 27.56903513 13.43821535 -0.00335886 0.00922913 -0.00254196
C 0.68435028 25.17865642 13.26195760 0.00021202 0.00436659 0.00382053
C 3.71887095 20.37591649 17.12588174 0.00300958 0.00070204 -0.00774479
C -1.56000170 22.88746310 16.91544105 -0.00605487 -0.00026617 0.00329396
C 6.25117989 27.68551756 13.89027801 0.00034669 -0.00180745 -0.00050905
C -0.56092609 25.24940501 13.83984040 0.00476125 -0.00398750 -0.00038165
C -8.13499185 20.17017108 16.77871934 -0.00864201 0.00212190 0.00109888
C -0.52194933 22.01804534 17.26685710 -0.00113988 -0.00085566 -0.00432257
C 5.25283636 26.78459249 13.50990053 -0.00086164 0.00446329 0.00043663
C -1.52598207 26.10907716 13.37187624 -0.00661202 -0.00067773 0.00237969
C -7.15036519 21.06378769 17.23269249 0.00977513 0.00057631 -0.00747623
C -0.62089484 21.22479417 18.36448291 0.00136367 -0.00305164 -0.00316495
C 5.37391574 26.08444880 12.35317688 -0.00331637 0.00447865 0.00477145
C -1.30257247 26.96197173 12.29290518 -0.00450405 0.00106476 -0.01055551
C -7.37906487 21.95970043 18.31814819 0.00194186 -0.00064277 -0.00475960
C 0.86379314 21.50064648 12.93739030 -0.00361668 0.00366057 -0.00011252
C 3.61839018 25.78555701 18.01218329 -0.00412153 0.00764811 0.00113578
C -2.80529390 26.71858714 17.95519730 -0.00844649 -0.00826501 0.00867045
C -5.79802584 21.71062140 13.00841538 -0.00252257 0.00865150 -0.00273973
C -0.19128934 22.24235911 12.47703276 0.00095389 -0.01038391 -0.00094651
C -8.38669588 27.02317329 18.33763833 -0.00066856 -0.00017476 0.00274221
C -1.79334650 25.95502115 18.48651592 0.00998913 -0.00046659 -0.00117350
C 6.20574944 21.01173360 12.24056347 0.00152322 -0.00042918 0.00380587
C -3.99592852 24.14335708 16.00828840 -0.00561352 -0.00278192 0.00314580
C -4.41552833 19.41906310 14.86885607 -0.00321324 -0.00126880 0.00216335
C 1.75551538 23.93691037 15.03809762 -0.00202415 -0.00591370 -0.00560667
C 2.28740046 28.60465971 15.76572742 0.00344844 0.00838912 -0.00291735
C -5.11391578 25.16264043 15.77588920 -0.00777740 -0.00574496 0.00034995
C -3.19514456 20.31021779 15.09545721 -0.00214296 0.00353189 0.00326501
C 2.93367031 23.06003421 15.20624966 -0.00822393 -0.00093367 0.01248733
C 0.99645104 27.78215985 15.57378292 -0.00812211 0.00355542 0.00189853
C -5.79842640 22.87265865 23.55078666 0.00005870 -0.00380683 -0.00453599
C -8.63840532 27.89270561 19.40080655 -0.00314068 0.00219906 -0.00362275
C -2.04993266 25.21364995 19.62266456 0.00209343 0.00875306 0.00436503
C 0.58507274 20.23804904 23.26182158 -0.00206220 -0.00448897 0.00242221
C -4.50977343 22.81476914 22.88493128 0.00501679 -0.00844869 0.00776352
C 3.26777245 27.51522432 20.14656283 0.00257665 -0.00564182 0.00721680
C -3.27549705 25.30007039 20.23256688 0.00715202 0.00244202 -0.00826962
C -11.04120678 20.44892896 22.72683525 0.00425195 -0.00771629 0.00211348
C -3.60406132 21.91873128 23.41320299 -0.00263789 0.00887095 0.00350672
C 2.29760513 26.61351166 19.84345155 0.00407041 0.00114591 -0.00154004
C -4.19772115 26.19743901 19.84668832 0.00073738 -0.00794433 -0.00679180
C -10.11853501 21.34598650 23.14120795 -0.00346581 0.00521719 -0.00227296
C 8.15565324 21.17134250 0.17015927 -0.00323727 0.00093293 -0.00114525
C 2.53370962 25.66310033 18.82495726 -0.00510178 -0.00065334 -0.00706975
C -4.02053467 26.76362032 18.55278306 -0.00070750 -0.00367911 0.00620921
C -10.31743399 22.16235797 24.26807648 0.00717823 0.00738341 -0.00134577
C -1.71857055 21.38196945 19.16612780 0.00308019 0.00017040 0.00415308
C 0.71088042 25.99251878 24.06744990 0.00993751 -0.00024066 -0.00121084
C -5.69164316 26.92195266 23.99789423 0.00830166 0.00070489 0.00116591
C -8.71940799 22.07407912 18.80895563 -0.00540390 -0.00134424 -0.01163971
C -2.85535748 22.08657511 18.71644262 -0.00516067 0.00237251 -0.00370342
C -11.40749575 26.89168536 24.00777714 -0.00605318 0.00758400 -0.00354383
C 7.28646941 26.06697132 0.14214410 0.00761554 0.00806223 0.00762499
C 3.49462885 21.22465277 18.24525104 -0.00177659 -0.00575140 -0.00267924
C -6.75919745 24.36602213 21.97619228 -0.00280161 -0.00452445 -0.00168067
C -7.59196362 19.48332318 21.00404067 0.00227103 -0.00091692 -0.00628407
C -0.87502198 23.83580332 21.21236866 0.00123244 -0.00191154 -0.00794968
C -0.51191306 28.45466233 21.93374960 0.01151823 0.00420881 0.00592493
C -7.85183132 25.40423158 21.82386500 -0.00436953 0.00397036 -0.00319321
C -6.39040028 20.43645021 21.29598139 0.00088422 0.00380883 0.00722915
C 0.45366158 23.09463177 21.30475339 0.00176583 0.00532296 -0.00490480
C -1.71804368 27.56899498 21.89298101 -0.00366692 0.00131269 0.00104499
C 16.31114614 3.42313094 5.08445901 0.00034238 -0.00144547 0.00079304
C 13.43241135 8.30561572 0.96236330 -0.00344625 -0.00260572 0.00063737
C 19.97399811 5.99987247 1.12948723 0.00610034 0.00339824 0.00028099
C 22.83110159 1.33693953 5.07091163 -0.00847867 0.00598372 -0.00100438
C 17.48014710 3.27886908 4.34247642 -0.00623212 0.00098772 -0.00207955
C 25.29529018 8.37308337 1.74562870 0.00220131 0.00028474 -0.00258992
C 18.72213407 6.04692332 1.73776063 -0.00204831 0.00822537 0.00590920
C 10.72803419 1.34499437 4.50078498 0.00463709 -0.00373186 -0.00593120
C 18.47941202 2.37092156 4.73331607 0.00390481 -0.00143555 0.00049006
C 24.26457227 7.55816631 1.30761260 -0.00152987 -0.00705431 -0.00106893
C 17.70882526 6.91038776 1.32968129 0.00546709 -0.00011326 0.00047752
C 11.65703824 2.28279059 4.84950728 0.00665120 0.00013621 0.00090245
C 18.42494609 1.74410272 5.98612036 0.00962051 -0.00360429 0.00534819
C 24.36489522 6.84132507 0.07558408 -0.00320083 -0.00084838 0.00596839
C 18.03684440 7.88811001 0.39426529 -0.00023777 -0.00203459 -0.00302490
C 11.64424376 2.97437705 6.09761548 0.00032385 -0.00061871 -0.00641610
C 20.02356328 2.10083728 0.57379973 0.00017463 -0.00035679 0.00734932
C 22.87223422 6.83368492 5.76342787 0.00531913 -0.00103545 -0.00085768
C 16.30385961 7.45299428 5.54056921 0.00213612 0.00216136 -0.00673510
C 13.58702348 2.90199518 0.40089370 0.00197787 0.00154054 -0.00144528
C 19.03912458 2.92049478 0.15535495 0.00081214 -0.00369269 0.00651692
C 10.64364491 7.80488285 6.12007892 0.00044525 0.00327883 -0.00496443
C 17.18495185 6.57734484 6.06771423 0.00029421 0.00219495 -0.00271069
C 13.54149831 2.01818179 24.38541137 -0.00790786 0.00311140 0.00196920
C 14.92630214 4.70999888 3.61824227 -0.00111333 0.00693794 -0.00977994
C 14.69065250 0.29925036 2.59793046 0.00004683 -0.00364443 -0.00448898
C 21.01787997 4.47115246 2.70736062 0.00839743 0.00217114 -0.00054969
C 21.43259414 9.33923333 3.76678587 0.00112262 -0.00065222 0.00600061
C 13.85006272 5.75568469 3.32867433 0.00361330 0.00723940 -0.00296852
C 15.99431885 1.00638141 2.62642890 0.00222895 0.00411250 -0.00108318
C 22.17594333 3.49858445 2.85228039 0.00094183 -0.00184972 -0.00011256