2880
Time=12000.00000000 pbc="T T T" Lattice="39.23945520 0.00000000 0.00000000 0.00000000 28.80344357 0.00000000 -12.00422641 0.00000000 24.30534339" energy=-18399.03405005 virial="20.95193682 11.33552559 -66.61072826 11.33552559 16.81482428 -0.86570247 -66.61072826 -0.86570247 52.05798886" stress="0.00333389 0.00043447 -0.00239356 0.00043447 0.00301284 -0.00009048 -0.00239356 -0.00009048 0.00448541" Properties=species:S:1:pos:R:3:vel:R:3
C 3.44339578 3.67758142 4.99348339 -0.00448051 -0.01059852 -0.00157737
C 0.39572021 8.07472543 1.07970521 0.00385795 0.00277533 0.00047376
C 7.09960635 5.90647215 0.97435741 -0.00211629 0.00977268 -0.00095552
C 9.54616842 0.86113846 5.00763919 -0.00688884 0.00036239 -0.00578281
C 4.61138715 3.35298573 4.29009739 -0.00152965 0.00885355 -0.01283688
C 12.25788598 8.26857841 1.54740799 0.00080935 -0.00450710 -0.00179517
C 5.86120995 5.93976916 1.67377044 0.00089315 0.00512165 0.00431747
C -1.92906753 1.15874400 4.42475468 0.00360678 0.00026686 -0.00378083
C 5.43025417 2.38654733 4.76748928 0.00120903 -0.00079908 -0.00700256
C 11.29220718 7.36993812 1.06749339 -0.01331698 0.00437013 0.00704656
C 4.93398176 6.92322442 1.41359710 -0.00699823 0.00023160 0.00419478
C -0.88202091 2.04936788 4.72742474 -0.00685917 0.00614932 -0.00003693
C 5.19325306 1.62386211 5.94486235 0.00064334 0.00444235 0.00409201
C -0.53103153 6.66805086 24.19202419 0.00277396 -0.00947595 -0.00147551
C 5.13171982 7.86426494 0.37564639 -0.00393683 -0.00057081 0.00481982
C -1.01681403 2.96434628 5.86814862 -0.00329468 0.00039110 0.00538538
C 7.09669667 2.20097852 0.67004047 0.00086524 0.00147702 -0.00950049
C 9.85939903 6.63395629 5.51862343 -0.00983454 -0.00054797 -0.00177055
C 3.26148886 7.67377954 5.59361228 0.00171984 0.00307492 -0.00322623
C 0.39094997 2.55930788 0.60800508 0.00208832 -0.00050904 0.00679818
C 6.09622620 3.04097236 0.31259647 -0.00574051 -0.00011059 -0.00597092
C -2.53610745 7.66400862 5.93004584 -0.00888289 -0.00996851 0.00084916
C 4.24764557 6.85923620 6.02577906 -0.00403889 -0.00283130 -0.00238960
C 12.44946049 1.78940860 0.10428716 0.00100734 0.00312505 -0.00464099
C 2.43391915 5.06412320 3.31623386 0.00010718 -0.00147979 -0.00472568
C 1.88703877 0.25208349 2.57624411 0.00258644 -0.00450669 -0.00392940
C 8.30783066 4.43557362 2.46493076 0.00016013 0.00234951 -0.00423082
C 8.46407413 9.10687876 3.33915134 -0.00176794 0.00346799 -0.00215350
C 1.08388739 5.72157896 3.16210373 0.00224810 0.00561964 0.00218057
C 3.06295739 1.16054740 2.58055382 0.00743945 -0.00237843 -0.00471503
C 9.54889210 3.67330628 2.60961808 -0.01002003 -0.00336887 -0.00271086
C 7.25375361 8.19453637 2.97775363 -0.00257884 -0.00954311 -0.00511008
C 0.15687624 3.62134603 11.23163773 -0.00060323 0.00254632 0.00398966
C -2.65406731 8.50583297 7.03814703 -0.00480285 -0.00720537 0.00555373
C 4.06737703 5.99415215 7.11390692 -0.00526396 0.00419439 0.00146607
C 6.68724872 1.03342566 11.25361486 0.00301696 0.00574075 0.00271996
C 1.41772897 3.61852605 10.65019489 0.00628014 0.00061680 0.00595328
C 9.22374966 8.33289502 7.63098841 0.00367352 0.00414313 0.00238202
C 2.80435544 5.97671137 7.69952446 -0.00417261 -0.00184925 0.00080764
C 33.99005843 1.10234057 10.55733264 -0.00020280 -0.00883943 -0.00222817
C 2.41731183 2.71144448 10.98041538 -0.00055615 0.00014925 -0.00062523
C 8.27148650 7.40765548 7.17392943 0.00376320 -0.00509169 -0.00831452
C 1.70482342 6.67981920 7.13652235 -0.00429170 0.00303827 -0.00441708
C -4.20485606 1.96691298 10.97929035 0.00466525 0.00315161 0.00187057
C 2.23170427 1.87654400 12.06733650 0.00253900 0.00567967 0.00011182
C 8.62271952 6.51079088 6.13845025 -0.00393591 -0.00073432 -0.00963705
C 1.93285434 7.47890838 6.06141138 -0.00300235 0.00104947 0.00427468
C -4.45073021 2.83459947 12.03289817 -0.00482679 -0.00164988 -0.00422149
C 3.97326287 1.95114848 6.61479651 0.00493628 -0.00010679 0.00071359
C 6.63266877 6.93473884 11.35232484 -0.00530932 -0.00571960 0.00296817
C 0.45160247 7.42161484 11.76766919 -0.00009476 -0.00140006 -0.00102731
C -2.17693693 2.94429408 6.62468368 -0.00324199 -0.00701246 -0.00953833
C 3.15559568 2.97666000 6.18857699 -0.00597907 -0.00278481 0.00329533
C -5.53742379 7.67040169 11.85759584 0.00161095 -0.01340939 -0.00636165
C 1.40827802 6.53527664 12.18472501 0.00132845 -0.00390758 -0.00423350
C 9.34161736 1.53205758 6.23191846 -0.00481615 0.00261941 0.01034965
C -1.08201696 5.00210932 9.75514110 0.00481502 0.00077560 0.00539633
C -1.31919508 0.22942001 8.66025973 -0.00505705 -0.00461963 0.00720109
C 5.20595199 4.43583261 8.52644448 0.00373149 0.00155475 0.00233758
C 5.59388862 9.32924093 9.68203166 0.00198577 0.00227315 0.01142259
C -2.02032616 6.19757177 9.60874129 0.00547337 0.00189109 -0.00530573
C -0.13208661 1.10043892 8.89870530 -0.00409418 0.00150100 0.00353454
C 6.36986413 3.51319598 8.65353311 0.00625390 0.00165757 0.00070267
C 4.42534499 8.45611845 9.44106261 -0.00431297 -0.00736231 0.00432130
C -2.86029947 3.69253926 17.12223329 0.00669373 0.00367851 0.00071716
C -5.59200657 8.41628224 13.03734836 -0.00360784 0.00196764 -0.00384749
C 1.07491467 5.66721904 13.19720131 0.00247905 -0.00141726 -0.00165003
C 3.88680507 0.82181478 17.45083859 -0.00170328 -0.00398827 0.00078455
C -1.67138706 3.65861783 16.45411535 -0.00546387 0.00128912 0.00535389
C 6.18157891 8.04986994 13.88424859 -0.00568751 -0.00178131 -0.01010799
C -0.23082292 5.68242346 13.73426848 -0.00036985 -0.00172903 -0.00170044
C 30.76420496 1.35550088 16.17501467 -0.00123014 0.00888169 -0.00667461
C -0.77863338 2.67574864 16.83293817 -0.00883226 0.00259017 -0.00394421
C 5.23073253 7.10714361 13.33355189 0.01301440 -0.00546373 -0.00336127
C -1.04892624 6.71806372 13.38505758 -0.00036420 0.00099472 0.00345791
C -7.53669789 2.32149352 16.57271969 0.00187223 0.00308978 0.00186756
C -0.87036756 1.96065406 18.04807801 0.00035781 0.00338194 0.00048914
C 5.50008014 6.53070968 12.07092847 0.00179354 -0.00025877 0.00210282
C -0.82978531 7.59227476 12.33547486 0.00184602 0.00176320 0.00451923
C -7.65349037 2.87233822 17.92343386 0.00344597 0.00916576 0.00325480
C 0.96324555 1.82204229 12.64609464 -0.00091862 0.00301624 -0.00469890
C 3.49877286 6.67693696 17.51084317 0.00559369 0.00857811 -0.00351170
C -3.03868569 7.71145437 17.63938055 -0.00400570 -0.00056663 -0.00586403
C -5.69360574 2.78689814 12.72440326 0.00120152 0.00223300 -0.00842119
C -0.05281504 2.64879465 12.24024277 0.00664936 -0.00763448 0.00011860
C -8.40336591 7.83377046 18.20641235 -0.00424332 -0.00261704 0.00836708
C -1.98579099 6.90521180 18.06280362 0.00234706 0.00402589 -0.00939974
C 6.29910752 1.88468523 12.27963071 0.00027752 0.00089393 -0.00182753
C -4.00940939 5.20841411 15.61934833 -0.00211585 0.00435760 -0.00675854
C -4.49196867 0.52902689 14.70953061 0.00592923 0.00072102 -0.00240325
C 2.14953412 4.19601090 14.78625344 0.00398498 0.00600926 -0.00389842
C 2.38377054 9.16060418 15.70270453 0.00386003 0.00565028 -0.00649778
C -5.06474966 6.23653565 15.42959133 0.00410050 0.00312163 0.00886611
C -3.43883000 1.55341488 14.89312725 -0.00230126 0.00477287 0.00852685
C 3.37417738 3.23838954 15.09138963 0.00964101 0.00431483 -0.00007604
C 1.11389498 8.35312582 15.41849597 0.00182303 0.00056278 -0.00433072
C -5.86919850 3.73913485 23.38364200 -0.00204543 0.00446255 0.00170318
C -8.65474017 8.59309447 19.32851306 -0.00223051 -0.00667527 -0.00346535
C -2.16432605 5.98893490 19.06856038 -0.00328695 0.00625898 0.00785588
C 0.71209690 0.96690713 23.36168825 -0.00127030 -0.00068987 -0.00129325
C -4.67081032 3.68007773 22.62091423 -0.00144941 0.00050824 -0.00346530
C 3.18670865 8.23922604 19.79077432 -0.00540028 -0.00168975 0.00094649
C -3.31379832 6.00014987 19.86834764 0.00627882 0.00356869 0.00326397
C -11.19793514 0.99986550 22.76189469 -0.00331294 0.00314311 -0.00361008
C -3.68982876 2.72346273 22.94787204 0.00099341 -0.00605988 -0.00285161
C 2.18311669 7.43208929 19.39592739 0.00044901 -0.00694267 0.00169694
C -4.33574532 6.84008943 19.51915029 -0.00546366 0.00472929 0.00219241
C -10.29877132 1.97302128 23.12159566 0.00245902 0.00168398 -0.00014537
C -3.75797829 2.07833760 24.19075119 -0.00017710 -0.00336049 -0.00802533
C 2.27360488 6.60360903 18.25280396 0.00253577 -0.00148971 -0.00211725
C -4.22922464 7.59606869 18.33240038 0.00007344 -0.00055545 0.00158344
C -10.46415299 2.77010476 24.23026947 -0.00292153 0.00109493 0.00637324
C -2.13963287 2.10083115 18.74955076 -0.00123310 0.00030425 0.00400077
C 0.66689706 6.84984747 23.45061836 0.00359269 -0.00245763 -0.00368378
C -5.75827684 7.70542656 23.85845362 0.00641280 0.00790678 -0.00087344
C -8.77631540 2.71226083 18.63235422 -0.00107022 -0.00174120 0.00129855
C -3.12245691 2.90250481 18.25669124 0.00185359 -0.00076599 0.00062608
C -11.47573483 7.21728446 24.27087693 -0.00829507 0.00194115 0.00916977
C -4.79759154 6.78469118 24.14501801 -0.00243526 0.00433712 -0.00274186
C 3.71920073 1.60188101 18.63555169 -0.00184047 -0.00570856 -0.00781554
C -7.26137120 5.00008295 21.79500163 0.00396169 0.00074986 -0.00140672
C -7.60406117 0.32622103 20.73348297 -0.00243038 0.00211221 -0.00049078
C -0.65946652 4.53559686 20.41557357 0.00778751 0.00257594 -0.00047211
C -0.64410897 9.17418792 21.74142752 0.00777444 -0.00109669 -0.00183397
C -8.38408654 5.95172120 21.74957898 0.01004794 -0.00123903 0.00113665
C -6.35522281 1.13497199 21.15163385 0.00118188 -0.00621083 0.00105470
C 0.56541705 3.67950814 20.36015348 0.00225194 0.00455386 0.00779267
C -1.94467200 8.44244285 21.47782360 0.00269135 0.00575456 -0.00542880
C 3.14863641 13.18786313 5.02583503 -0.00536756 0.00072053 0.00048161
C 0.62312551 18.20777857 0.75476022 0.00530162 0.00076740 0.00400418
C 7.08426592 15.58328542 0.92257714 -0.00037421 -0.00149265 0.00056126
C 9.66685743 10.45503352 5.01055531 -0.00141638 -0.00091381 -0.00933247
C 4.44176385 13.06678421 4.38340358 0.00490951 -0.00131444 -0.00657581
C 12.38129750 17.89721707 1.60814033 -0.00124053 0.00210382 -0.00166225
C 5.83683812 15.58186735 1.59346774 -0.00281315 0.00136758 0.00790560
C 36.84061733 10.91270185 4.47857145 -0.00068785 -0.00315068 -0.00267709
C 5.33586716 12.14287979 4.85351417 0.00312685 0.00675007 -0.00334959
C 11.31224518 17.12907364 1.14188407 -0.00078274 -0.00059282 0.00394233
C 4.86957914 16.54709055 1.26443978 -0.00505960 0.00300282 0.00101538
C -1.38165588 11.76280321 4.87270265 0.00050006 -0.00303077 0.00009465
C 5.20151068 11.40541245 6.04430462 -0.00481929 0.00104413 0.00077492
C 11.55117965 16.21085254 0.06640627 -0.00836104 0.00190660 0.00058114
C 5.05960696 17.27281122 0.06273509 0.00045642 -0.00070697 -0.00390053
C -1.51891167 12.58247371 5.97771121 0.00715332 -0.00195987 -0.00463333
C 7.01165015 11.72868587 0.59415765 0.00178488 -0.00157261 0.00358225
C 9.76406927 16.28040517 5.63016178 0.00535418 -0.01024333 0.01000928
C 3.19767198 17.11906238 5.47977034 -0.00654227 -0.00012644 -0.00304508
C 0.32037559 12.03887530 0.91131798 0.00302119 -0.00046305 0.00088859
C 6.05151017 12.61894723 0.19650175 -0.00621340 0.00129687 -0.00285825
C -2.25195256 17.15609021 6.05361182 0.00463152 0.00235564 0.00051019
C 4.22647706 16.35261518 5.94076777 0.00345280 0.00289365 -0.00225755
C 12.33309954 11.41512324 0.18401867 -0.00202523 0.00261971 -0.00624504
C 2.18665914 14.76494881 3.43514898 0.00077124 -0.00138879 0.00378311
C 1.53694900 9.67733002 2.52120888 -0.00561505 -0.00560852 -0.00043169
C 8.28006968 14.31589940 2.64978225 -0.00269456 0.00419656 -0.00673444
C 8.50746176 19.05051607 3.62772069 -0.00438566 -0.00572706 0.00206503
C 0.96496177 15.57824875 3.19150777 -0.00361488 -0.00132669 0.00282527
C 2.90094457 10.35900567 2.74567404 -0.00664523 0.00328529 -0.00348005
C 9.39547226 13.33901335 2.89937184 -0.00108754 -0.00165974 -0.00286947
C 7.24701428 18.27660546 3.42383533 -0.00253449 0.00050625 -0.00456072
C 0.28917603 13.02720306 11.36116219 0.00818970 0.00070557 -0.00879339
C -2.52419673 18.08039492 7.11297887 -0.00454665 0.00407790 0.00059375
C 4.00530555 15.41600836 6.96556783 0.00267989 -0.00457008 0.00003210
C 6.81458309 10.62341001 11.38260578 0.00578667 0.00189388 -0.00123340
C 1.40097869 12.96870252 10.56534083 -0.00293827 -0.00377065 0.00362006
C 9.40897020 18.00077509 7.77364887 0.00158532 -0.00434340 0.00668012
C 2.74832752 15.41203107 7.67508521 -0.00179801 0.00182553 0.00231266
C 34.01762238 11.02271843 10.51241095 0.00512500 0.00892062 -0.00270843
C 2.44522630 12.08528603 10.86902397 0.00455673 0.00421004 -0.00307788
C 8.48166654 17.00276208 7.46251398 0.00271247 -0.00373240 -0.00711218
C 1.80106451 16.35070880 7.24519278 -0.00092588 0.00067944 0.00333371
C -4.19112366 11.87423346 10.87346298 -0.00149862 -0.00185058 0.00105293
C 2.38903432 11.27989653 12.06874800 0.00319193 0.00171165 -0.00251845
C 8.55057502 16.16532574 6.36835022 0.00208667 0.00106200 0.00465432
C 1.99606401 17.27205468 6.16923298 0.00247891 0.00534500 -0.00722202
C -4.27502174 12.60520018 12.07927317 0.00221599 -0.00248113 0.00300466
C 3.94651978 11.59508547 6.68563796 -0.00104101 -0.00155375 -0.00289144
C 7.08745412 16.53857058 11.67228107 -0.00180711 -0.00099605 0.00171813
C 0.40877366 17.06835832 11.62249397 0.00550235 -0.00127925 0.00215517
C -2.69472798 12.41605929 6.68996814 0.00072232 -0.00775101 -0.00563999
C 2.95879302 12.39452549 6.16004841 0.00050546 -0.00104732 -0.00058544
C -5.50795668 17.18401635 12.04747087 -0.00311509 0.00723011 -0.00762395
C 1.34595384 16.17511776 12.04827038 -0.00741306 0.00354879 -0.00760939
C 9.49439958 11.27735523 6.16810231 0.00177362 0.00241788 0.00190786
C -1.05195517 14.39525713 9.83397558 -0.00270512 -0.00519975 -0.00030350
C -1.22715856 9.73167125 8.66572751 -0.00595802 -0.00302929 -0.00591778
C 5.20502352 14.08230775 8.60029584 -0.00052158 0.00330634 -0.00070090
C 5.55529661 18.79735590 9.64228271 -0.00218437 0.00463915 0.00095871
C -2.16998678 15.43017296 9.74686456 -0.00697708 -0.00474899 -0.00045557
C 0.11837461 10.32697286 8.78416589 -0.00472689 -0.00696841 -0.00061375
C 6.49215939 13.30918224 8.75550463 0.00115883 0.00340864 0.00087597
C 4.30236542 17.95271983 9.49931822 0.00057345 0.00093079 -0.00739470
C -2.98447206 13.18441866 17.24166522 0.00302412 -0.00970953 -0.00449055
C -5.66588544 18.02301883 13.16903105 -0.00376984 -0.00038985 -0.00295655
C 1.08754580 15.45904698 13.24749791 -0.00134684 -0.00010506 -0.00229912
C 3.55855467 10.51283125 17.26840915 -0.01315335 -0.00947301 0.00681475
C -1.73546258 13.06771560 16.44626283 -0.00112928 0.00023815 -0.00896813
C 6.29097977 18.31219731 13.74133106 -0.00893669 -0.00255594 -0.00364142
C -0.05240684 15.76051776 14.00264857 -0.00659770 -0.00030373 0.00189160
C 30.93785355 10.85809136 16.60262479 -0.00237638 -0.00952932 -0.00039312
C -0.78381431 12.21481492 16.87108816 -0.01020643 0.00048118 -0.00240581
C 5.38304549 17.35322351 13.25902457 -0.00114438 0.00067179 0.00377584
C -1.03015874 16.56958237 13.51078007 0.00210136 -0.00423247 0.00413753
C -7.38937547 11.90451788 16.81580645 0.00367584 0.00091534 -0.00618286
C -0.93264950 11.44802728 18.05982841 -0.00341886 0.00073927 -0.00373662
C 5.70902375 16.52541917 12.16796025 0.00036644 -0.00186690 0.00703572
C -0.84540577 17.27374705 12.34649296 -0.00393923 0.00279805 0.00180424
C -7.50154637 12.73353031 17.96705556 -0.00477029 0.00344400 0.00051748
C 1.25468727 11.39222630 12.85358481 0.00118493 -0.00844642 0.00883985
C 3.20579703 16.46776441 17.20131996 0.00721227 -0.00017652 0.00076047
C -3.10465203 17.23427037 17.50773280 -0.00024217 -0.00363581 -0.00062391
C -5.44923154 12.55988427 12.82333750 0.00831442 0.00394465 0.00025496
C 0.14437182 12.08491443 12.39488809 -0.00577590 0.00310386 0.00591660
C -8.49907842 17.38834394 18.09845103 0.00571194 -0.00134474 -0.00309706
C -2.07072955 16.37577752 17.84532799 -0.00522004 -0.01305179 0.00041525
C 6.62508921 11.42393906 12.53718247 -0.00161374 0.00553474 0.00219570
C -4.16115823 14.71848894 15.72404503 0.00999199 -0.00511219 0.00162096
C -4.36713716 9.81246103 14.53049083 0.00772423 -0.00183231 -0.00110003
C 2.30779714 13.96483425 14.70897947 0.00149422 -0.00026651 0.00274137
C 2.48039401 18.99466642 15.50808697 0.00519940 -0.00305901 -0.00287651
C -5.23128390 15.76270030 15.69448726 0.00327104 -0.00399596 -0.00509083
C -3.11022327 10.61948786 14.66489374 -0.00455021 -0.00437199 -0.00385088
C 3.71768061 13.33893174 14.99634944 0.00592210 0.00359729 0.00134264
C 1.14776170 18.35151024 15.22995105 0.00204354 -0.00718319 0.00901440
C -5.77132664 13.47748387 23.41592458 -0.00239854 0.01252032 -0.00352302
C -8.71019220 18.21197932 19.16338093 0.00436487 -0.00423752 0.00387893
C -2.10057003 15.51460276 19.00097218 -0.00248519 0.00410417 -0.00181678
C 0.51282937 10.63640328 23.36318651 -0.00161413 -0.00347098 0.00338362
C -4.57047453 13.35238657 22.74595942 -0.00153069 -0.00439711 -0.00126437
C 3.08241663 17.78937075 19.66994756 -0.00794874 -0.00267300 0.00443076
C -3.28544153 15.44582330 19.74292698 -0.00662888 0.00191992 -0.00267460
C -11.14828647 10.63673215 22.93947854 -0.00179099 -0.00269047 -0.00287016
C -3.57556137 12.47389691 23.21732798 -0.00038641 0.00731393 -0.00758665
C 1.99175714 17.05454879 19.21412673 0.00147361 -0.00414107 0.00643316
C -4.35092462 16.33233994 19.40391913 0.00133281 0.00196597 -0.00320933
C -10.17458284 11.51470070 23.40517767 -0.00419952 0.00454905 -0.00457205
C 8.29689738 11.65127601 0.03437099 0.00053313 -0.00513213 0.00288077
C 2.00818891 16.36261375 17.96289840 0.00059476 -0.00201292 0.00065913
C -4.25812210 17.18267027 18.27052843 -0.00795349 -0.00516014 0.00126624
C 1.52391169 12.29669012 0.18895075 -0.00531649 0.00647512 0.00511514
C -2.14826977 11.50115589 18.75724276 -0.00367789 0.00661494 0.00125749
C 0.82205981 16.17026984 23.76597449 0.00278713 -0.00054911 -0.00514477
C -5.69536319 17.30070457 23.75647666 -0.00329691 -0.00040410 -0.00407755
C -8.66633445 12.54714686 18.78170332 0.00191127 0.00503127 -0.00308785
C -3.17041951 12.35614925 18.34861027 -0.00608416 -0.00168347 -0.00097183
C -11.25063778 17.46184850 23.86358251 -0.00095285 0.00163046 -0.00310915
C -4.71268152 16.41975644 24.07072564 -0.00816339 0.00098109 -0.00402017
C 3.31415671 11.34520811 18.33412796 0.00059132 -0.00821041 -0.00474250
C -6.95107923 14.81387248 21.85746876 -0.00440254 -0.00422895 -0.00221492
C -7.40621627 9.95985059 20.92451667 -0.00101055 0.00285461 0.00179491
C -0.75864945 13.99919918 20.49369250 -0.00827934 0.00217997 -0.00640768
C -0.18740500 19.01405743 21.72262988 0.00457458 0.00082120 0.00078576
C -8.16113858 15.66290380 21.68408301 0.00187259 -0.00549783 -0.00280918
C -6.29790911 10.97780626 21.05094492 0.00034561 0.00562756 -0.00497738
C 0.37346373 13.04221801 20.49043280 -0.00304112 0.00145804 0.00174196
C -1.28514023 17.99865774 21.64062238 -0.00462459 0.00254749 0.00276102
C 3.06001784 22.67348623 5.21152543 -0.00096723 -0.00497929 -0.00005625
C 0.55893982 27.67299432 1.10005179 0.00410881 0.00405488 0.00514841
C 6.94719626 25.11489460 0.88800533 -0.00557292 0.00213522 0.00076693
C 9.89370249 20.30852260 5.17391498 0.00568836 -0.00508005 0.00574933
C 4.35553212 22.59480882 4.49967388 -0.00145832 0.00214637 -0.00807777
C 12.26714366 27.43474156 1.72181729 0.00195795 0.00404557 -0.00117339
C 5.71836820 25.19987358 1.45249229 -0.00286911 -0.00194664 0.00859424
C -2.04147725 20.21051227 4.43615108 -0.00503214 0.00029462 0.00912153
C 5.23802289 21.64194407 4.89160218 0.00710129 -0.00020674 -0.00261272
C 11.39824898 26.50647229 1.27151059 0.00021840 0.00474595 -0.00136802
C 4.72820124 26.03803563 1.02964202 -0.00925117 0.01044737 -0.00810949
C -1.09604272 21.10958848 4.88519678 -0.00265191 0.00327035 -0.00548410
C 5.12496786 20.96337250 6.12905154 -0.00617957 -0.00229938 -0.00204486
C 11.61371177 25.77238276 0.07620724 0.00111066 -0.00062950 -0.00086504
C -7.11589857 26.85223958 24.24454616 -0.00608444 0.00395339 0.00160130
C -1.37776242 21.94196760 5.92980622 -0.00523502 -0.00029778 -0.00429826
C 7.06098195 21.34323447 0.50900769 0.00037456 -0.00151051 -0.00126589
C 9.56709091 25.69507135 5.38502283 -0.00131199 -0.00174019 0.00423706
C 3.17631670 26.73675933 5.46489533 0.00574958 0.00289098 -0.00816314
C 0.45615837 22.00297444 0.71002045 -0.00518603 -0.00274627 0.00153890
C 6.03299155 22.19796979 0.06926080 0.00554632 -0.00882323 0.00246120
C -2.24612947 27.00061555 5.86011598 0.00014678 0.00129452 0.00363972
C 4.11956673 25.87310077 5.92712259 -0.00765483 -0.00081425 -0.00019640
C 12.67161344 21.17182971 0.18935790 0.00452454 0.00103557 -0.00353673
C 1.99469402 24.19226883 3.68112419 -0.00394521 -0.00445931 0.00055261
C 1.77760081 19.40277068 2.48168687 -0.00507567 0.00261361 -0.00112199
C 7.92786219 23.69442699 2.51931803 -0.00523530 -0.00469318 -0.00479663
C 8.38542011 28.33568673 3.33631423 0.00293619 -0.00637627 -0.00142504
C 0.66196218 24.91274509 3.33122681 -0.00436692 -0.00591593 -0.00123270
C 2.91007179 20.34948922 2.81164228 0.00081965 0.00252473 -0.00009481
C 9.18375395 22.97125349 2.90151814 -0.00303762 -0.00361302 0.00423801
C 7.09493616 27.57796900 3.00517516 -0.00171198 -0.00372708 -0.00172080
C 0.13216289 22.96488935 11.27174119 -0.00332167 -0.00098873 -0.00007305
C -2.47898129 27.72568094 6.99457042 -0.00218083 -0.00063732 0.00185005
C 3.96979528 25.08223894 7.08704705 0.00426587 -0.00100720 0.00178613
C 6.75786060 20.33499167 11.06823800 0.00271405 0.00151433 -0.00497648
C 1.33497510 22.80669652 10.48013831 0.00051613 0.00454764 0.00278998
C 9.05481344 27.31777219 7.64598366 -0.00278609 0.00013715 -0.00103322
C 2.73372617 25.18806755 7.74665789 -0.00376566 -0.00385009 0.00254026
C -5.14045885 20.24309690 10.53425350 0.00316957 0.00416862 -0.00165356
C 2.25812893 21.86312982 10.81477684 -0.00490734 0.00064971 -0.00496160
C 8.10895737 26.40773342 7.23835170 0.00618655 0.00341095 -0.00261595
C 1.78942566 26.14582149 7.33618256 0.00380226 -0.00206782 -0.00902462
C -4.15380239 21.14509288 10.80099653 -0.00302255 0.00283029 0.00291296
C 2.12862967 21.09828070 12.02926767 0.00689105 0.00072784 -0.00587971
C 8.34152113 25.60838045 6.08634407 -0.00319475 -0.00325651 -0.00025171
C 2.07067405 26.95735186 6.23580232 -0.00030923 0.00092201 0.00095519
C -4.33114718 22.00788972 11.90093477 -0.00108341 -0.00027365 -0.00061507
C 4.01208344 21.21663035 6.88561258 0.00538907 -0.00138454 0.00537266
C 6.85583425 25.96845920 11.72545686 0.00074267 0.00236463 0.00666822
C 0.24053667 26.98085644 11.61871952 -0.00385773 0.00093975 0.00246277
C -2.63202383 21.90391578 6.60446561 -0.00055632 -0.00115682 -0.00601142
C 3.01810706 22.00667463 6.44517059 0.00206558 0.00280992 0.00096693
C -5.28386821 26.95583265 12.05509300 0.00468121 -0.00428753 -0.00360759
C 1.20127364 26.07083774 12.02576914 -0.00365772 0.00568981 -0.00100025
C 9.73905122 21.01970759 6.34194576 0.00827828 0.00256321 -0.00206515
C -1.04540774 24.35567293 9.63332364 -0.00004226 0.00149308 0.00083362
C -1.39160692 19.44205562 8.65854853 0.00520876 0.00131406 0.00325211
C 5.19715697 23.72165151 8.61578796 0.00102578 0.00188119 0.00319727
C 5.55619432 28.38614443 9.58484873 -0.00165563 -0.00033961 0.00174916
C -2.23636002 25.16253724 9.45042609 0.00176237 0.00014756 -0.00422239
C -0.12274924 20.21861549 8.97221340 0.00062666 0.00402842 0.00047952
C 6.54195267 22.93281743 8.69978058 -0.00229453 0.00476618 0.00038076
C 4.22203307 27.70711897 9.21982975 -0.00520356 -0.00256280 0.00311332
C -3.16993419 22.95503639 16.97694386 0.00721939 0.00230769 0.00709152
C -5.55653286 27.82278307 13.16686120 0.00188673 -0.00077316 -0.00308419
C 1.03990031 25.19880092 13.12807648 0.00403690 0.00229271 -0.00189229
C 3.65637191 20.26602566 17.23563344 0.00328633 0.00685346 -0.00435699
C -1.89781698 22.99616740 16.43072136 0.00504963 0.00553663 -0.00866618
C 6.22699195 27.78079187 13.67686813 -0.00164939 -0.00536310 0.00321050
C -0.16272951 25.22977171 13.87893384 -0.00002401 -0.00368864 -0.00559760
C -8.04886846 20.34068312 16.69584159 0.00568297 -0.00449568 0.00195569
C -0.87232340 22.18534508 16.90239824 -0.00546395 -0.00308941 0.00161474
C 5.23909605 26.90616977 13.21389899 -0.00276433 0.00214064 0.00444388
C -1.08184741 26.23894934 13.59315435 0.00041963 -0.00676150 0.00287349
C -7.01854455 21.10543387 17.19441833 -0.00840474 0.00185882 0.00494359
C -1.02025651 21.18530060 17.85144743 0.00115183 0.00752514 -0.00249612
C 5.51012183 26.03590389 12.14552917 -0.01096492 -0.00527889 -0.00065233
C -0.99404372 27.00137909 12.37516830 -0.00572642 0.00491214 0.00373772
C -7.29380400 22.07650481 18.19691863 0.00306272 -0.00078226 0.00222758
C 0.94395826 21.28536111 12.75913096 0.00163377 0.00833661 0.00309714
C 3.94761812 25.78505173 17.77201212 -0.00915762 0.00100284 -0.00864759
C -2.88225449 26.91836500 17.57524833 0.00173325 -0.00089377 0.00231020
C -5.51232854 21.97007995 12.62972390 0.00304532 0.00014828 0.00398505
C -0.05280083 22.14521640 12.33939965 -0.00715817 -0.00239807 -0.01119479
C -8.42640571 26.92248889 18.00796715 -0.01458916 0.00198223 -0.00045474
C -1.86378969 26.00933098 17.94265703 -0.00998660 0.01052005 -0.00314965
C 6.62736277 21.24988465 12.15568175 -0.00041539 0.00362418 0.00872225
C -4.46994787 24.17390056 15.40176214 0.00233050 0.00094696 -0.00033759
C -4.19639419 19.31442997 14.69812140 -0.00055341 0.00133611 -0.00266611
C 2.44360780 23.82234326 14.55277981 -0.00564033 0.00463849 0.00868781
C 2.54419045 28.46425471 15.82225102 -0.00227011 0.00473371 -0.00404971
C -5.77615999 24.79049488 15.09486592 0.00115031 -0.00743904 0.00142061
C -2.84729628 19.90965765 14.85695267 0.00269027 -0.00056425 0.00789275
C 3.62064495 22.96278871 14.51271432 0.00358128 -0.00236147 -0.00487385
C 1.31877157 27.71989505 15.53707538 -0.00797737 0.00325690 -0.00197180
C -5.84788275 23.03171007 23.24805792 -0.00055980 0.00217630 -0.00600148
C -8.65535739 27.63011454 19.21437636 -0.00475996 0.00544043 0.00397978
C -2.07909932 25.07355263 18.92514862 0.00239580 -0.00398448 0.00199201
C 0.95617167 20.37791549 23.33468491 0.00685722 0.00231654 -0.00244797
C -4.64887963 22.86370351 22.53520697 0.00114556 0.00001544 0.00605582
C 3.59392838 27.56377006 19.93218971 0.00183456 -0.00261528 0.00306887
C -3.26593708 25.17016623 19.68273373 0.00154360 -0.00208744 0.00118442
C -11.17871002 20.51806809 22.72609587 0.00164147 -0.00104630 -0.00296174
C -3.64340023 22.03606075 22.89539662 -0.00183514 0.00462669 0.00438692
C 2.58620008 26.72799571 19.50836279 0.00926262 0.00842418 -0.00341687
C -4.31423825 25.92913452 19.24376288 -0.00465770 -0.00457833 -0.00055149
C -10.18726348 21.42647158 23.09054161 0.00133702 -0.00274912 0.00514185
C -3.75122493 21.33062808 24.12800197 -0.00554999 -0.00207253 -0.00054133
C 2.79735837 25.74472653 18.51390453 -0.00346065 -0.00007791 0.00608175
C -4.08215807 26.87725964 18.25836753 0.00505651 -0.00697625 0.00012025
C -10.40157743 22.16099961 24.29157193 -0.00270723 -0.00451660 -0.00085668
C -2.29523362 21.21449566 18.43561807 0.00302103 0.00053564 -0.00744766
C 0.89215589 25.79022637 23.71270658 0.00063756 -0.00216534 0.00173003
C -5.83053005 26.83807345 23.57436949 -0.00015584 -0.00224265 0.00318157
C -8.58822704 22.05866950 18.77457730 -0.00007293 -0.00138414 -0.00577712
C -3.36330921 22.01665772 17.99855556 -0.00024420 0.00289805 0.00317644
C -11.34265928 26.85030896 24.30428042 0.00618782 0.00051906 0.00295481
C -4.85219417 26.04181036 24.12039449 0.00302897 0.00064138 0.00759114
C 3.48827973 21.04352355 18.36936926 -0.00147906 0.00418891 -0.00099366
C -7.02696589 24.39289528 21.69382072 0.00011458 0.00414866 0.00148450
C -7.55161615 19.42286391 20.83954463 0.01177905 0.00202097 0.00166536
C -0.89793201 23.72234138 20.62238737 0.00569246 0.00344329 -0.00133426
C -0.21628234 28.26555794 21.74444588 -0.00140182 0.00357232 -0.00095905
C -8.28140773 25.19232838 21.55720310 -0.00067245 0.00006792 -0.01615864
C -6.19407716 20.05325247 21.15458623 -0.00047083 0.00308339 0.00489302
C 0.23742176 22.72595797 20.83719355 0.00060525 -0.00476211 0.00583831
C -1.42609952 27.35465410 21.44042652 -0.00277489 -0.00341772 0.00234496
C 16.13496532 3.79639233 5.10590430 -0.00364566 -0.00169963 -0.00444051
C 13.50871575 8.33110233 0.91900552 0.00883821 0.00477565 0.00574714
C 20.20896063 5.83434546 0.98385246 0.00385895 -0.00413474 0.00041882
C 22.75604889 1.07073420 5.19192303 0.00141760 -0.00188260 -0.00008707
C 17.35823901 3.68335058 4.36905509 -0.00142415 -0.00322309 -0.00199640
C 25.46524066 8.53529997 1.65630715 0.00181767 -0.00127769 -0.00275922
C 19.01026362 5.95805883 1.65189304 -0.00789824 -0.00191873 0.00209332
C 10.72172327 1.04609779 4.29428312 0.00012461 -0.00073049 0.00489941
C 18.30204593 2.73424439 4.78697696 -0.00397357 -0.00181638 0.00262075
C 24.54968074 7.64891841 1.24676982 -0.00233294 -0.00125271 -0.00199838
C 18.06277338 6.93041301 1.29127295 0.00080876 -0.01238613 -0.00029718
C 11.64883708 1.86469876 4.76578943 0.00064104 -0.00076727 -0.00339877
C 18.08220055 1.99310825 5.93110407 -0.00713409 0.00297042 -0.00239476
C 24.77488033 6.80536720 0.10851936 0.00346517 0.00266941 -0.00313011
C 18.24302943 7.82269016 0.27218362 -0.00462697 -0.00681696 -0.00247329
C 11.40766923 2.65732269 5.92847712 -0.00343226 -0.00047280 -0.00784826
C 20.05552272 1.99978137 0.53695208 -0.00200580 0.00302113 0.00345195
C 22.90137950 6.68567489 5.59556441 0.01199166 -0.00152704 0.00404643
C 16.16103796 7.61075000 5.37566669 -0.00105291 0.00443876 -0.00364964
C 13.30586425 2.80073790 0.50571812 -0.00719085 0.00217379 0.00088064
C 19.03772969 2.88707417 0.12491102 -0.00055597 0.00174241 0.00294786
C 10.77681858 7.53642898 6.01709784 -0.00621495 -0.00101967 0.00585145
C 17.16358312 6.81601843 5.88322295 0.00395643 0.00076232 0.00320403
C 25.69099844 2.22820416 0.31292796 0.01043381 -0.00251661 0.00391264
C 15.01465105 5.06480661 3.42605838 -0.00103347 0.00525691 0.00440826
C 14.78754217 0.29149361 2.44733399 -0.00133725 -0.00536274 0.00874721
C 21.25909084 4.32058748 2.50060766 0.00672085 0.00613469 0.00686275
C 21.43613542 9.26550322 3.54859655 -0.00098000 -0.00030496 -0.00274332
C 13.76715069 5.85156275 3.21037270 -0.00246965 -0.00010461 -0.00187066
C 15.93331909 1.28090837 2.49012739 -0.00761446 0.00210219 0.00094276