2880
Time=36000.00000001 pbc="T T T" Lattice="39.33671111 0.00000000 0.00000000 0.00000000 28.71069155 0.00000000 -12.04265403 0.00000000 24.46120371" energy=-18393.81108767 virial="33.34009461 24.82167543 -38.03476825 24.82167543 6.86228236 2.38326045 -38.03476825 2.38326045 -43.16762328" stress="0.00371465 0.00089474 -0.00142166 0.00089474 0.00274561 0.00000351 -0.00142166 0.00000351 0.00087982" Properties=species:S:1:pos:R:3:vel:R:3
C 3.24232048 3.64249926 5.06517775 -0.00286951 0.00145563 -0.00162107
C 0.50277429 8.31689846 0.92715062 0.00476475 0.00402923 -0.00144354
C 7.11183732 5.80280706 0.97440268 -0.00241932 0.00525628 -0.00609229
C 9.67022586 1.10663419 5.04753803 0.00679664 -0.00125072 -0.00698496
C 4.48829268 3.65346835 4.44505135 0.00591944 -0.00440275 -0.00434046
C 12.31610238 8.38952887 1.79513954 -0.00226354 -0.00264417 -0.00011027
C 5.85543846 5.95342153 1.52823868 -0.00231513 -0.00025493 0.00485214
C 37.00544703 1.50785596 4.52164360 0.00023612 0.00757697 -0.00174502
C 5.45104737 2.75476558 4.78291363 -0.00466013 0.00782223 -0.00473669
C 11.31730118 7.46652522 1.48624510 -0.00377230 -0.00373941 0.00031928
C 4.97163254 6.88942164 1.08147835 0.00327693 0.00424444 -0.00828054
C -1.37867795 2.44296689 4.87571796 0.00622759 -0.00013364 0.00287136
C 5.26949439 1.84390402 5.81093525 -0.00238407 0.00271853 0.00097659
C 11.57410947 6.68020020 0.38132546 -0.00587969 0.00418064 0.00538555
C 5.33147869 7.87417424 0.11764568 0.00130498 0.00165614 0.00545421
C -1.48812307 3.13489732 6.13279915 0.00231923 0.00168007 -0.00628255
C 7.04236169 2.03276784 0.58143464 0.00510429 0.00298610 -0.00260406
C 9.59046530 6.67523615 5.45809627 0.00560650 -0.00289698 0.00358500
C 3.21898222 7.36991083 5.32806465 -0.00908451 0.00183970 -0.00025134
C 0.28583882 2.91193443 0.57945870 -0.00579924 0.00232420 0.00666990
C 6.10722488 2.94687239 0.18912929 0.00551002 0.00631420 -0.00554432
C -2.47590464 7.51351724 5.93884186 -0.01101014 -0.00346614 -0.00601263
C 4.25508400 6.55398367 5.82826935 0.00879453 0.00071207 0.00425511
C 12.76629603 2.00243365 0.30559682 0.00492190 0.00595821 -0.00248072
C 1.96921387 5.06655339 3.46099828 0.00072534 0.00401117 -0.00120343
C 2.10191334 0.21211687 2.57675099 0.00434201 0.00044643 0.00084447
C 8.25550102 4.40126870 2.58832422 0.00479119 0.00167413 0.00209938
C 8.37765880 9.42847450 3.31004179 -0.00176568 -0.00122939 0.00275204
C 0.60903647 5.66060588 3.28643334 0.00601518 0.00545647 -0.00407125
C 3.41600931 0.86022596 2.61435536 -0.00396410 -0.00163940 -0.00892078
C 9.56309641 3.68742464 2.96632394 0.00125934 -0.00695496 -0.00034134
C 7.17342015 8.57952569 3.16775319 -0.00730739 0.00297341 -0.00186441
C 0.17647350 3.66925052 11.56399904 -0.00761449 0.00195948 0.00156566
C -2.64547522 8.40753828 7.01382819 -0.00029027 -0.00494957 -0.00174068
C 3.97789481 5.81881602 7.01040288 0.00477317 0.00319765 -0.00030184
C 6.79419315 0.92946502 11.18267497 -0.00433363 0.00023518 -0.00017991
C 1.32466652 3.61449401 10.80216997 -0.00140716 0.00294071 -0.00718206
C 9.15143749 8.36218977 7.68269090 0.00237951 -0.00186805 -0.00064189
C 2.76370596 5.90114404 7.64769740 0.00189588 -0.00222085 0.00417715
C -5.09635964 0.96747641 10.60592264 -0.00190934 -0.00040206 -0.00555647
C 2.37157382 2.71208874 11.19619304 0.00128016 0.00052431 -0.00064812
C 8.19385445 7.39188951 7.35194562 0.00240661 0.00124945 -0.00305150
C 1.76683374 6.76304305 7.17271780 -0.00565142 -0.00066472 0.00093117
C -4.14913507 1.88194063 11.08691629 0.00366657 -0.00184376 -0.00220609
C 2.29342241 1.91372747 12.34466333 0.00893911 -0.00089819 0.00477420
C 8.36522902 6.54003207 6.18286242 -0.00891462 -0.00216102 -0.00405192
C 2.02444829 7.54435841 6.02109936 0.00768313 0.00137001 -0.00523041
C -4.42344127 2.54177230 12.30558143 0.00580750 -0.00149356 -0.00050386
C 4.08753427 1.91752601 6.57084456 0.00632716 0.00090660 0.00143539
C 6.66482258 6.64160235 11.73441754 0.00552146 0.00490190 0.00237686
C 0.11077610 7.62946310 11.65197652 0.00264426 0.00014853 -0.00371367
C -2.67137443 2.87663484 6.85955417 0.00477733 0.00427074 -0.01355541
C 3.04951835 2.77917995 6.14055163 0.00256861 0.00404698 0.00176764
C -5.43317996 7.62210173 12.05814257 0.00584220 0.00576028 -0.00337672
C 1.09579970 6.72829772 12.07994065 -0.00123827 -0.00539705 -0.01019512
C 9.48653670 1.96782908 6.07487460 0.00546436 -0.00633545 -0.00197304
C -1.09421785 5.02654403 9.98316634 0.00719658 0.00350664 0.00596379
C -1.41451572 0.53419899 8.55201242 -0.00684358 0.00228573 -0.00371435
C 5.08686664 4.58323643 8.71636415 -0.00242852 -0.00697530 0.00083874
C 5.45462406 9.37284728 9.71580268 -0.00452121 -0.00275577 -0.00488985
C -2.31176458 5.92129793 9.76335389 -0.00019463 0.00011257 -0.00126192
C -0.15710030 1.34129455 8.66179585 -0.00368774 -0.00569141 0.00584472
C 6.15440898 3.56586653 9.08653445 -0.00395589 -0.00294406 0.00307453
C 4.10516531 8.72421079 9.49650967 0.00258020 -0.00793365 0.00627792
C -2.99949686 3.61948449 17.19789641 0.00192862 -0.00402284 0.00351466
C -5.57260444 8.48544675 13.12229597 -0.00378735 -0.00368829 -0.00345495
C 0.99850551 5.98054673 13.31143304 -0.00218965 0.00580485 0.00272897
C 3.68880237 1.38300202 17.49420801 -0.00341254 0.00467340 -0.00751143
C -1.73096637 3.67035860 16.63249853 -0.00350905 0.00951295 0.00341114
C 6.21346870 8.37695216 13.84365932 -0.00309900 -0.00409800 0.00349580
C -0.15881303 6.22175898 14.06819859 0.00180026 -0.00656239 0.00425703
C -8.23181483 0.92264566 16.76727896 -0.00207840 0.00544763 0.00089387
C -0.69422062 2.89415501 17.11830219 -0.00111645 0.00079947 -0.00288461
C 5.22435521 7.44434674 13.54227224 -0.00303786 -0.00491395 -0.00115828
C -1.21042760 7.04616959 13.61726690 0.00411252 0.00052409 -0.00489187
C -7.24377181 1.86533035 17.11641672 -0.00515532 -0.00100739 0.00184298
C -0.89947715 2.06653260 18.22831196 0.00149393 -0.00080339 -0.00609366
C 5.43062557 6.50791622 12.43454326 -0.00036200 -0.00128739 0.00158946
C -1.11707283 7.71308019 12.38283974 0.00536822 0.00055895 0.00121185
C -7.38111490 2.65581781 18.31705106 0.00049238 0.00061112 0.00184226
C 1.16096643 2.09684948 13.16692781 0.00686651 0.01011554 0.00069039
C 3.80650549 7.06305161 17.75172308 -0.00395273 0.00268705 -0.00065243
C -2.78029404 7.45273791 17.67930471 -0.00033333 0.00429894 0.00381098
C -5.66014170 2.43697208 12.97758942 0.00558660 0.00688882 -0.00006613
C 0.04518453 2.82589593 12.69767482 -0.00513163 -0.00148047 0.00694995
C -8.11089294 7.63251434 18.24697634 -0.00761734 -0.00014415 -0.00371378
C -1.86117046 6.49218282 18.12901572 0.00126271 0.00562784 0.00082467
C 6.53897371 1.70156654 12.37234068 0.00013126 0.00216877 0.00412735
C -3.97190930 5.07533232 15.48895531 -0.00343370 -0.00400427 -0.00265167
C -4.41005885 0.18146314 14.66227901 0.00512323 -0.00508982 0.00019306
C 2.30338794 4.57734287 14.85721448 0.00423842 0.00781870 -0.00355104
C 2.64537716 9.49749702 15.86436977 -0.00622896 -0.00119606 -0.00088531
C -5.24078200 5.81667309 15.12133251 0.00252567 -0.00522608 0.00140333
C -3.17728354 1.03487138 14.79038510 -0.00255135 -0.00817066 -0.01010409
C 3.33347448 3.62199237 15.04766764 -0.00956409 0.00133189 -0.00042858
C 1.42509859 8.67292565 15.56354981 0.00573620 0.00667285 -0.00518984
C -5.72420427 3.74374461 23.48807855 -0.00080631 -0.00033154 0.00413153
C -8.32892112 8.45288433 19.36000109 -0.00254292 0.00182590 0.00901794
C -2.11922154 5.66294181 19.21627475 0.00246742 0.00365218 0.00309696
C 0.89032811 1.24613407 23.57556808 -0.00834396 0.00639165 0.00440356
C -4.49289882 3.68654494 22.78423761 -0.00448595 -0.00039744 0.00037766
C 3.35128023 8.45075420 20.18161711 0.00178861 -0.00636505 -0.00514688
C -3.31559300 5.81462417 19.94437642 -0.00474498 -0.00047757 -0.00413352
C -11.23536744 1.31087107 22.83492594 -0.00666417 -0.00632042 -0.00438458
C -3.66103324 2.69192283 23.17783628 0.00276734 0.00445242 -0.00209052
C 2.39744225 7.56595579 19.65915151 -0.00433716 0.00865614 0.00702181
C -4.15638773 6.81690138 19.59075457 0.00385053 -0.00642055 0.00581861
C -10.32770816 2.25788266 23.17229368 -0.00227218 -0.00187861 -0.00155277
C -3.84302349 1.83143703 24.29568253 -0.00137673 -0.00515432 -0.00336486
C 2.59960332 6.89346716 18.39954391 0.00286425 -0.01157031 -0.00626584
C -3.95732924 7.57280252 18.39045533 0.00318179 -0.01381212 0.00509838
C -10.53361757 3.04234232 24.29573498 -0.00489042 -0.00491249 -0.00690062
C -2.25313389 1.92203606 18.71672494 -0.00195120 -0.00092083 -0.00114193
C 0.76937451 6.79149324 24.11763016 -0.00508066 0.00477600 -0.00542748
C -5.51455802 7.58456484 23.97678226 -0.00143620 0.01213225 -0.00065787
C -8.68334131 2.58244181 18.90938834 -0.00134352 0.00532867 0.00328054
C -3.26482192 2.72502302 18.31840632 0.00085157 0.00392140 -0.00341306
C -11.43587581 7.49114727 24.24227537 0.01142028 -0.00417839 -0.00335051
C -4.61811195 6.60821981 24.36796549 0.00180439 0.00090499 0.00399995
C 3.46054058 2.24744300 18.60635245 -0.00134122 0.00184978 0.00480372
C -7.05307861 5.12260671 21.90141008 0.00265856 0.00960913 -0.00636160
C -7.41463785 0.30514747 20.80755623 -0.00744568 -0.00269656 0.00399471
C -0.94148584 4.66453845 21.03577654 0.00142417 0.00213640 -0.00450112
C -0.58894462 9.35041898 21.91864375 0.00086207 -0.00076705 0.00538903
C -8.05943244 6.24412667 21.77625732 -0.00693663 0.00197865 0.00165959
C -6.13150449 1.06595688 20.87465508 0.00473921 0.00307096 0.00198185
C 0.20953066 3.80288476 21.31923131 -0.00300172 0.00338849 0.00639428
C -1.65980200 8.38051790 21.65661347 -0.00304041 0.00133884 0.00015029
C 3.05860786 13.18023434 5.00110449 0.00608788 -0.00771838 0.00559194
C 0.46862026 17.73430587 0.80071694 0.00397391 0.00670265 -0.00673603
C 6.95571986 15.26203789 0.76987100 -0.00704172 0.00535904 0.00193456
C 9.60136812 10.69194139 5.01027352 -0.00023512 -0.00749581 0.00271388
C 4.29473416 13.09484313 4.31026132 0.00534110 0.00358775 0.00016375
C 12.14875166 17.96779605 1.52691226 0.00294837 0.00303638 -0.00173203
C 5.67819254 15.44982048 1.48522376 0.00449802 -0.00239880 -0.00084725
C 36.99656727 10.62069307 4.25342763 0.00272849 0.00196618 0.00047428
C 5.27666228 12.24981432 4.73638687 0.00359430 -0.00274003 0.00082734
C 11.16022967 17.21036305 0.95020210 -0.00574167 -0.00509002 0.00036348
C 4.65007688 16.23511526 0.97345139 0.00087048 0.00420699 -0.00015560
C -1.41067190 11.57079909 4.57841895 -0.00406141 0.00107517 -0.00177986
C 5.05922411 11.48605390 5.89704194 -0.00268586 0.00335750 -0.00294266
C -0.73957134 16.47589996 24.23603686 -0.00170477 -0.00595244 -0.00427001
C -7.20805393 17.12018601 24.39142556 -0.00358428 -0.00244755 -0.00171058
C -1.58201844 12.40169702 5.73997131 0.00117127 0.00767414 -0.00295300
C 6.90502608 11.73116295 0.48920199 0.00530977 -0.00202876 0.00643454
C 9.77594635 16.30184709 5.66849271 -0.00295951 -0.00332321 -0.00171060
C 3.02239371 16.97808642 5.36691500 0.00873683 0.00830704 -0.00928041
C 0.51418424 12.15332088 0.53635359 -0.00206044 0.01004157 -0.01261308
C -6.21513514 12.40097706 24.43646010 0.00435992 -0.00412639 -0.00709983
C -2.32222302 17.29633449 6.09718563 0.00279999 -0.00049318 -0.00377235
C 4.05603848 16.22706232 5.85815682 -0.00216370 -0.00473923 -0.00558586
C 12.45353994 11.37264126 0.19903758 0.00207869 -0.00014004 0.00031944
C 1.73559761 14.50384694 3.46323987 -0.00634588 -0.00084974 -0.00900319
C 1.74501715 9.77839033 2.47298995 0.00973434 -0.00106509 -0.00621597
C 8.19161976 14.01819409 2.35915980 -0.00414805 0.00052807 -0.00321180
C 8.34300315 18.77228978 3.38847783 -0.00175493 -0.00154823 -0.00403920
C 0.43072873 15.28617847 3.42267677 -0.00192905 0.00296982 0.00152541
C 2.92951719 10.66018521 2.68003515 0.00632254 0.00235616 -0.00902132
C 9.50919540 13.33897742 2.64101973 0.00464763 -0.00445796 -0.00067752
C 7.21291120 17.82421106 3.24353428 0.00130942 0.00441272 -0.00255461
C 0.04418726 13.28375730 11.21581057 0.00184284 -0.00468239 0.00050015
C -2.48828213 18.21101538 7.07951553 0.00395378 0.00170429 -0.00226848
C 3.78304674 15.34888234 6.89524015 0.00314656 -0.00283054 0.00719009
C 6.62090500 10.84722381 11.25692572 -0.00253391 0.00006491 0.00805038
C 1.18715773 13.08610070 10.45933585 0.00459496 0.00155576 0.00253363
C 9.20793065 17.85516279 7.89473749 -0.00251274 0.00037437 -0.00230792
C 2.59988164 15.46410595 7.62113831 0.00286491 -0.00022066 0.00184611
C -5.05915302 10.74113710 10.48443467 -0.00645048 -0.00187934 -0.00412414
C 2.18965992 12.25005527 10.84621712 0.00810563 0.00009850 -0.00418887
C 8.27433808 16.92968833 7.45101026 0.00140239 0.00385635 -0.00131315
C 1.57446517 16.20204660 7.16060721 -0.00615529 -0.00314712 0.00498583
C -4.02463179 11.57471451 10.98630760 0.00117099 -0.00468117 -0.00021827
C 2.16871553 11.70019666 12.12804110 0.00560571 0.00164450 -0.00420405
C 8.52316367 16.15115117 6.31462253 0.00323078 0.00370629 0.00119014
C 1.77881633 17.00838118 6.01873882 -0.00438666 -0.00234325 -0.00090290
C -4.28003886 12.41384427 12.06664338 0.00227157 -0.00096048 0.00377818
C 3.80631055 11.53143139 6.56806565 -0.00075146 -0.00125497 0.00090596
C 6.63474730 16.29299548 11.75922854 -0.00497552 -0.00444780 -0.01038693
C -0.00630122 17.05412531 11.34165870 0.00508249 0.00280918 -0.00147965
C -2.79271912 12.30812068 6.43660520 0.00528909 0.00172872 0.00052721
C 2.80271821 12.28345490 6.05738365 0.00192433 -0.00618861 0.00705677
C -5.66031368 17.16554302 11.98672140 -0.00435185 -0.00884179 -0.00091164
C 1.05841318 16.33528413 11.86195021 -0.00140696 -0.00070021 -0.00139434
C 9.41966814 11.45099396 6.19014320 0.00427727 0.00356198 0.00577356
C -1.20561580 14.59307672 9.57507497 -0.00668547 0.00050991 -0.00276323
C -1.41902303 9.74707579 8.60115101 -0.00398510 -0.00384868 0.00992686
C 4.93174522 13.91996642 8.51746598 0.00011028 0.00566419 0.01217964
C 5.49211409 18.88467674 9.54466229 -0.00827630 -0.00107953 -0.00818286
C -2.29895985 15.55187983 9.34557997 -0.00188370 0.00334621 -0.00033400
C -0.13601012 10.43265905 9.02086003 -0.00063151 0.00378477 -0.00717906
C 6.12911647 12.99118478 8.80947606 -0.00356550 0.00718209 -0.00313884
C 4.26272197 18.10940426 9.35553702 -0.00533760 0.00242858 -0.00068819
C -2.73141969 13.17816223 17.36303466 -0.00027507 -0.00820914 0.00233469
C -5.77871499 18.01541792 13.10204218 -0.00332503 0.00731858 0.00127079
C 0.89091262 15.52343393 12.95847702 -0.01191209 -0.00303327 0.00233204
C 3.60085230 11.10971351 17.42151686 0.00137316 -0.00124555 0.00638373
C -1.51635172 13.07706679 16.71361525 -0.00196412 -0.00300058 0.01038130
C 6.16821962 18.01401081 14.01786570 0.00251282 -0.00075117 0.00493980
C -0.26876522 15.56309560 13.71147473 0.00596768 0.00419261 -0.00524272
C 31.02027035 10.89265078 16.49938628 -0.00220743 0.00422861 0.00022701
C -0.61808522 12.10044232 17.10926588 0.00106268 -0.00124216 0.00561605
C 5.13388143 17.26320300 13.46622093 0.00027748 -0.00109988 0.00471227
C -1.27866768 16.35434170 13.25373891 -0.00256772 -0.00076279 0.00024447
C -7.27346694 11.71713220 16.85350233 -0.01272289 0.00494913 -0.00462386
C -0.75778627 11.30215675 18.29920719 0.00510234 0.00072392 -0.00086309
C 5.32947267 16.35526808 12.29608291 -0.00311494 0.00100698 -0.00221432
C -1.23294197 17.12181104 12.07029225 -0.00526384 -0.00131728 -0.00325863
C -7.37942759 12.50473244 18.02072200 0.00598211 0.00062751 0.00102619
C 0.97576949 11.70926376 12.81308883 -0.00573132 -0.00384383 0.00294863
C 3.81351970 16.27062326 17.81841042 0.00661463 -0.00516691 -0.00224563
C -2.55770966 17.15051375 17.73606337 -0.00331632 -0.00207188 -0.00455486
C -5.59711563 12.57101487 12.60397441 -0.00658787 0.00830603 -0.00218048
C -0.04758118 12.42545301 12.29891549 0.00167344 0.00170292 0.00383883
C -8.28645544 17.22311109 18.14194905 0.00385768 -0.00130784 0.00346932
C -1.59111910 16.23854010 18.13648018 0.00127389 0.00506914 0.00210346
C 6.59464037 11.57267696 12.45617755 0.00133478 0.00107313 -0.00903093
C -3.89289609 14.72900077 15.85940540 0.01123535 0.00122864 -0.00045454
C -4.28552344 9.76767568 14.74218929 -0.00320592 0.00590019 -0.00187087
C 2.09133232 14.19256042 14.53926677 0.00241886 -0.00083265 -0.00209563
C 2.10612816 18.58706458 15.90076872 -0.00265773 -0.00443640 -0.00322415
C -5.12455161 15.57178928 15.68471302 0.00448402 -0.00211210 -0.00730576
C -2.94133711 10.46755978 14.98412958 -0.00339549 -0.00184258 0.00367480
C 3.34339064 13.50539380 14.89825910 -0.00116853 -0.00160150 0.00951255
C 0.91535749 17.73258054 15.70365071 0.00700537 -0.00350524 -0.00224135
C -6.03834912 13.27580607 23.35473080 -0.00465589 -0.00099559 -0.00005444
C -8.45521855 18.08128389 19.22361019 -0.00365540 0.00210760 -0.00052213
C -1.81168384 15.47439184 19.30921551 -0.00209602 0.00666390 -0.00098683
C 0.63727600 10.63349020 23.53020691 -0.00432834 -0.00414372 0.00546309
C -4.83169607 13.15348074 22.58118115 -0.00287917 0.00094092 -0.00198243
C 3.14751710 17.71830206 20.03971893 0.00569311 -0.00089009 -0.00075773
C -3.03023857 15.60284654 19.97859453 0.00315074 0.00703249 0.00649652
C 28.12445868 10.69146429 22.68285002 0.00418165 -0.00288112 0.00210307
C -3.81500176 12.27600299 22.97811527 0.00318356 0.00133147 0.00213754
C 2.23961394 16.76522014 19.59935263 -0.00379793 -0.00876167 0.01125997
C -3.99703596 16.50329240 19.55375766 0.00386551 0.00019317 -0.00589523
C -10.22194402 11.59097871 22.99080216 -0.00942130 -0.00124573 -0.00374732
C -3.94101577 11.57254313 24.16614989 0.00186924 -0.00034893 -0.00049299
C 2.53223111 16.04772994 18.44144755 -0.00082189 0.00331862 0.00356186
C -3.71135774 17.43940944 18.49065036 0.00220320 -0.00151439 0.00405309
C -10.39410322 12.33278423 24.22532962 0.00032841 -0.00184588 0.00418539
C -1.95418366 11.58671442 19.04574877 -0.00169728 0.00329936 -0.00127283
C 0.50123033 16.42157494 23.62691391 0.00105840 -0.00721223 -0.00444932
C -5.94374886 17.01634598 23.73537261 0.00618108 -0.00421103 0.00714844
C -8.64690443 12.48195851 18.73807702 0.00331158 0.00006290 -0.00119501
C -2.92734048 12.38540550 18.51796660 0.00239927 -0.00037816 0.00435486
C -11.42364309 16.82439366 24.16676693 0.00742511 0.00378404 -0.00592933
C -4.96331474 16.13672275 24.12223725 0.00291142 -0.00307388 0.00299631
C 3.40674989 11.87618013 18.53317506 -0.00329855 0.00257711 -0.00109209
C -7.30471979 14.64866147 21.79193061 -0.00212879 0.00787224 0.00127938
C -7.11608164 9.98534528 20.78220590 0.00110080 -0.00262600 0.00322380
C -0.70898824 14.08399968 20.92331287 0.00105503 -0.00807565 -0.00507257
C -0.61181350 18.91158508 21.79563687 0.00572713 0.00583609 -0.00222248
C -8.58673601 15.45854192 21.77399394 0.00021439 -0.00315472 -0.00106399
C -5.95011833 10.85438689 20.88019751 0.00204901 0.00379500 -0.00497054
C 0.40823529 13.05739966 21.22069415 -0.00118346 0.00468110 -0.00146036
C -1.88450987 18.16973188 21.49476557 -0.00351464 0.00477121 0.00590891
C 3.13325120 22.91940771 4.98964482 -0.00887314 0.00819891 0.00348060
C 0.68682326 27.85331681 0.94467021 0.00065852 0.00122792 0.00786826
C 6.91151497 25.01863976 0.91474529 -0.00010947 0.00666052 -0.00410869
C 9.61411670 20.16035368 4.91279891 -0.00309683 -0.00253328 0.00631786
C 4.36328280 22.76717601 4.33377555 -0.00918851 -0.00763663 -0.00287368
C 12.50832127 27.39977734 1.65709486 0.01310766 -0.00288661 -0.00211361
C 5.72299302 25.16018513 1.59375674 0.00076805 -0.00166688 0.00601795
C -1.91641343 20.27347464 4.54025266 0.00171077 -0.00385672 -0.00235001
C 5.25883591 21.77512088 4.70959397 -0.00658154 -0.00012440 0.00100696
C 11.50708687 26.45849384 1.28526145 -0.00132732 0.00090213 -0.00395446
C 4.73417795 25.93564422 1.10722226 -0.00103454 -0.00442387 -0.00327632
C -0.99827127 21.22455490 5.01463293 0.00459263 0.00197392 -0.00358190
C 5.06530285 21.02598382 5.87926848 0.00259492 -0.00936283 0.00623740
C 11.59775473 25.83265284 0.02675958 0.00931243 0.00107062 -0.00044053
C 4.90367454 26.83336136 0.04453866 -0.00121785 0.00614200 0.00522276
C -1.25242981 22.06085340 6.16902795 -0.00025828 0.00369641 -0.00411882
C 6.93462757 21.16993046 0.39493023 -0.00016683 0.00653023 -0.00266481
C 9.88212269 26.03468635 5.52217520 0.00127603 0.00381006 0.00050828
C 3.16544793 26.75152015 5.62008521 -0.00208870 -0.00024728 -0.00223206
C 0.24301984 21.70432930 0.51655401 0.00240727 0.00180784 0.01024384
C 5.96528423 22.07292779 0.12819584 -0.00545891 -0.00499798 0.00667983
C -2.49854415 26.95190418 5.94873246 -0.00255125 -0.00107709 -0.00107123
C 4.13281484 25.86897213 5.99460547 -0.00506069 -0.00385197 0.00469172
C 12.50132240 21.13833752 0.04865428 -0.00397417 -0.00046328 -0.00120470
C 1.85742743 24.27112397 3.55360470 0.00554443 -0.00526636 0.00508750
C 1.46633258 19.30264486 2.36261194 0.00180642 -0.00166525 0.00565678
C 7.94920466 23.64512066 2.54762718 -0.00144769 -0.00602461 -0.00413749
C 8.50762879 28.34032064 3.47204847 -0.00085511 -0.00059820 0.00397703
C 0.60000509 25.04502539 3.38290564 0.00485381 0.00041193 0.00280248
C 2.46994746 20.43781713 2.64768347 0.00291470 0.00178146 0.00047916
C 9.12415860 22.77266571 2.84720087 -0.00447046 -0.00021327 0.00033218
C 7.37407571 27.37768924 3.37215832 -0.00383234 -0.00094819 0.00770343
C 0.02508842 22.96115110 11.37678287 -0.00432471 0.00367574 -0.00709289
C -2.71043648 27.71012031 7.03618372 -0.00290380 -0.00374199 -0.00289822
C 3.98926513 25.12156967 7.22741393 -0.00541487 0.00048120 -0.00151775
C 6.76810977 20.07742719 11.24529376 -0.00211304 -0.00202639 0.00806553
C 1.26769278 22.87701982 10.79295191 0.00293248 0.00529110 0.00293766
C 9.45840624 27.63180121 7.67165508 0.00490942 0.00033184 -0.00131116
C 2.81207846 25.17834420 7.96388564 -0.00224758 -0.00488358 0.00246673
C 34.03072178 20.32096114 10.46339910 0.00375682 -0.00460400 0.00307167
C 2.20524642 21.99469916 11.25498063 0.00122222 0.00064714 0.00805376
C 8.46875142 26.78681053 7.30922573 0.01323864 -0.00218515 -0.00495972
C 1.81968457 26.05034773 7.50945450 0.00408022 -0.00478295 0.00228962
C -4.28858146 21.15631197 10.85302762 0.00211791 -0.00011539 0.00045720
C 1.86074181 20.96370671 12.18856639 0.00140590 0.00861764 -0.00301683
C 8.65650688 25.90159308 6.17169270 0.00363341 -0.00774709 0.00543312
C 1.89023531 26.80917025 6.29554610 0.00202175 0.00170476 -0.00570023
C -4.43194269 21.92991523 11.99857294 -0.00310968 -0.00276017 0.00180588
C 3.84828441 21.20838359 6.52662085 0.00016677 0.00517013 0.00540432
C 6.89219346 25.75040042 11.65645989 -0.00968762 -0.00171817 0.00662584
C 0.09955155 26.61022503 11.52027122 0.00530932 -0.00277654 -0.00405955
C -2.56912939 21.94817527 6.80131410 -0.00254816 0.00223020 0.00030276
C 2.88343102 22.06917730 6.08961061 0.00141189 0.00703481 0.00481863
C -5.45209562 26.60554172 12.00138221 0.00356391 0.00122205 0.00122540
C 1.13448340 25.88296744 12.04366193 0.00322684 0.00454308 -0.00001002
C 9.30966268 20.94858436 6.02732690 -0.00279186 -0.00096791 -0.00061794
C -1.03166042 24.34714149 9.68717672 -0.00542713 0.00112272 -0.00197088
C -1.34074048 19.63683417 8.63884032 0.00465166 -0.00306445 0.00024141
C 5.13489385 23.52761207 8.65683766 0.00618483 0.00285927 0.00122426
C 5.51797562 28.39712515 9.61890492 -0.00174114 0.00136996 0.00231874
C -2.39771257 25.07051857 9.40913808 -0.00532528 -0.00286536 0.00113370
C -0.10214697 20.59433555 8.83072357 0.00852736 -0.00183968 -0.00076264
C 6.35582285 22.61996583 8.66664862 0.00324385 -0.00171631 0.00969950
C 4.49022453 27.21112447 9.51307961 0.00280910 -0.00452324 0.00252161
C -2.84380390 23.12136980 17.32162449 0.00728839 0.00094927 -0.00803440
C -5.64510743 27.41076916 13.12731351 0.00165926 -0.00116735 -0.00065482
C 1.05006671 25.10733779 13.24561873 -0.00183367 0.00485014 -0.00263514
C 3.42181883 20.05817638 17.37509711 -0.00315005 0.00593210 -0.00038313
C -1.50558130 23.04137716 16.79033654 0.00141274 0.00043390 0.00398890
C 6.50431450 27.38034426 13.87508656 0.00018198 -0.00224063 0.00410496
C -0.14384354 25.21242287 13.92797207 -0.00409950 -0.00105522 0.00163353
C -7.99201772 20.50295695 16.87019132 -0.00243262 0.00440066 0.00071744
C -0.58537199 22.14464038 17.28912615 -0.00044966 -0.00294780 0.00211460
C 5.50333454 26.57513683 13.45891815 -0.00171655 -0.00213507 0.00235045
C -1.17302172 26.08622962 13.44166584 0.00346438 -0.00300995 -0.00449125
C -7.04630149 21.40274384 17.24287663 0.00096641 0.00399202 -0.00068655
C -0.86610699 21.32040137 18.42718618 0.00477967 0.00352921 -0.00196973
C 5.67509346 25.70526230 12.32884407 -0.00132857 0.00202575 -0.00213183
C -1.11967410 26.74425233 12.22743896 0.00427344 -0.00117485 -0.00553490
C -7.28075194 22.30057022 18.24963537 -0.00492487 -0.00524100 -0.00197474
C 0.59583022 21.09651849 12.81116892 0.00056697 -0.00711311 -0.00153960
C 4.07720354 26.27795839 17.58985524 0.00271201 0.00986065 0.00191799
C -2.86247764 26.77093615 17.50598695 -0.00768830 -0.00138852 0.00253694
C -5.71356649 21.92816236 12.69248730 0.00185351 -0.00363747 -0.00382213
C -0.18743733 22.15530526 12.53819957 -0.00138441 -0.00063676 -0.00228776
C -8.46597893 26.53309639 18.21712233 0.00009164 0.00168359 0.00159372
C -1.80909681 26.01578018 18.00900934 0.00137956 -0.00113234 0.00631514
C 6.49634910 20.98638059 12.27333693 -0.00260876 -0.00463557 0.00414124
C -3.87281266 24.35887837 15.49532826 -0.00214401 -0.00088346 0.00046142
C -4.53099540 19.22920994 14.70578208 0.00840512 0.00226259 -0.00282664
C 2.22396760 23.82292349 14.78097742 0.00047191 0.00144283 0.00327122
C 2.46747661 28.70960025 15.91025626 0.00354373 -0.00246092 0.00210540
C -5.01129930 25.24350509 15.09037198 0.00243201 -0.00109422 -0.00227815
C -3.24695222 19.99071890 14.95690018 -0.00120438 0.00285894 0.00366619
C 3.50695174 23.12014507 15.07591018 0.00400811 0.00276108 -0.00553096
C 1.17691099 27.93061084 15.83959485 -0.00223998 -0.00406631 0.00672835
C -5.98966906 22.89832803 23.43321542 0.00126635 0.00198315 0.00868606
C -8.63450678 27.47996350 19.21978879 -0.00014630 -0.00337320 -0.00104626
C -1.97217772 25.23255546 19.18508200 0.00588405 -0.00524479 -0.00004596
C 0.62959239 20.38525015 23.35080077 0.00349660 0.00508250 -0.00787377
C -4.77300259 22.97415996 22.68853520 0.00158432 -0.00413024 -0.00856195
C 3.52001808 27.80258808 19.88592596 -0.00228374 -0.00577160 0.00647732
C -3.26912354 25.18978742 19.78500295 0.00322418 -0.00085128 -0.00126123
C 28.07844977 20.13447209 22.82714523 -0.00236142 -0.00312360 -0.00459070
C -3.83561900 22.08236664 22.91950490 -0.00652370 0.00360957 0.00722005
C 2.57509503 26.92877705 19.31713257 0.00035968 -0.00188077 -0.00269711
C -4.22038149 26.10484092 19.39318146 -0.00076486 -0.00367094 -0.00292114
C -10.32105655 21.07985882 23.18084603 0.00526024 0.00346746 -0.00253976
C -3.96064715 21.14931323 24.01929381 0.00213792 -0.00751952 0.00056115
C 2.79195392 26.10262896 18.19155279 0.00067671 0.00953270 0.00286983
C -4.07376826 26.86964422 18.24964226 -0.00054367 0.00924210 -0.00510410
C -10.58516609 21.84572923 24.37439434 -0.00255295 0.00683965 -0.00094161
C -2.18426960 21.41240643 18.94355574 -0.00277206 -0.00251224 0.00038911
C 0.68783407 26.05866930 23.70106238 0.00206570 0.00712631 0.00326860
C -5.97899844 26.66197560 23.74097516 0.00471058 -0.00768566 -0.00183294
C -8.43650864 22.16497304 19.06957518 0.00461564 0.00082731 0.00566926
C -3.13748853 22.26095309 18.38594794 0.00505045 0.00988986 -0.00322229
C -11.24031510 27.01941742 24.33277062 -0.00467864 -0.00354550 0.00413594
C -4.93008401 25.83314085 24.18904529 0.00469299 -0.00385183 -0.00013054
C 3.16681313 20.93844447 18.46523571 -0.00406521 -0.00111076 0.00241169
C -7.40982444 24.20301184 21.98663792 -0.00876003 0.00343632 -0.00052276
C -7.26200526 19.48185537 20.77881329 0.00329136 -0.00517356 -0.00239295
C -0.72547910 23.84245094 20.71650088 0.00340219 -0.00184678 -0.00166424
C -0.34676441 28.55650912 21.90461225 -0.00197823 0.00253669 -0.00141422
C -8.65616746 25.07086116 21.82581123 0.00747108 0.00911285 0.00075936
C -6.02284388 20.33078908 21.12298821 -0.00472520 0.00655068 -0.00609916
C 0.51086005 22.92907794 20.86553110 0.00617494 -0.00396434 0.00375570
C -1.52523579 27.65684501 21.76766106 -0.00616055 0.00611624 -0.00236514
C 16.34911692 3.80700068 5.09459579 -0.00621769 0.00081928 0.00168621
C 13.61143417 8.39127384 1.17267931 -0.00451727 0.00264792 0.00448977
C 20.18715056 5.87593837 1.01688525 0.00811942 0.00699331 -0.00534977
C 22.87611930 1.06095949 5.23765446 -0.00196012 0.00188069 -0.00692739
C 17.63200498 3.81673887 4.56870885 -0.00411530 -0.00519679 0.00483594
C 25.40760649 8.14587421 1.64070915 -0.00163250 0.00643861 -0.00393089
C 18.99194675 5.90994180 1.67762297 0.00122398 -0.00101715 -0.00504609
C 10.90827743 1.14526416 4.43619136 -0.00563605 0.00641772 -0.00025560
C 18.56286090 2.79977362 4.82989513 0.00101048 -0.00686565 -0.00490415
C 24.53107670 7.16304005 1.28480811 0.00351869 -0.00373511 -0.00282137
C 17.96133460 6.82555131 1.32268989 0.00193863 -0.00156003 -0.00198846
C 11.93314245 1.93645285 4.86265663 -0.00331779 0.00409326 0.00395966
C 18.26120320 1.92757195 5.84622277 -0.00225833 -0.00090501 0.00233749
C 24.70804521 6.28280355 0.10802670 0.00085486 0.00097730 -0.00061477
C 18.01059849 7.55713746 0.17957010 0.00475911 -0.01000848 0.00415255
C 11.75788084 2.79232587 5.99590644 0.00388228 0.00115454 -0.00077256
C 20.29038539 2.00177076 0.51371056 0.00136182 -0.00023970 0.00356664
C 22.79816571 6.36703523 5.90022234 -0.00296622 -0.00217007 -0.00083063
C 16.50042170 7.67136932 5.37533451 -0.00273353 -0.00180748 -0.00141548
C 13.86765331 2.69991646 0.69824356 -0.00133643 -0.00489873 0.00570937
C 19.30289727 2.90778355 0.19823242 0.00076228 0.00477162 -0.00158738
C 10.53563672 7.58968453 5.83721553 0.00035850 -0.00135145 0.00406343
C 17.48963537 6.86679899 5.90034438 0.00053812 0.00589537 -0.00086479
C 25.88632414 1.71680304 0.40999386 -0.00297882 0.00243331 0.00596944
C 15.12250248 5.07882079 3.49551264 0.00474816 -0.00631942 -0.01139283
C 14.81340232 0.34310048 2.45739651 0.00072789 0.00502140 -0.00742315
C 21.37972208 4.43949441 2.65133429 0.00411915 -0.00097321 0.00518611
C 21.74634115 9.12137834 3.26180638 -0.00126829 0.00064213 -0.00101371
C 13.74797657 5.68689508 3.34484032 -0.00448844 -0.00145099 0.00305204
C 16.04660541 1.23333560 2.61907112 0.00159954 0.00263790 0.00205993