2880
Time=39000.00000002 pbc="T T T" Lattice="39.19398228 0.00000000 0.00000000 0.00000000 28.81229474 0.00000000 -12.03522802 0.00000000 24.43104540" energy=-18398.39266455 virial="37.53262844 -17.08295202 -13.96723642 -17.08295202 27.65502568 20.76490151 -13.96723642 20.76490151 4.06382963" stress="0.00382076 -0.00057572 -0.00041617 -0.00057572 0.00349793 0.00071935 -0.00041617 0.00071935 0.00267377" Properties=species:S:1:pos:R:3:vel:R:3
C 2.96864030 3.69463094 5.04284577 0.00119910 0.00450717 0.00108263
C 0.36132159 8.40614226 0.85411537 -0.00394106 -0.00434171 0.00042501
C 6.97471831 5.92155908 0.90159720 -0.00588407 -0.00984842 -0.00401373
C 9.76535585 1.42808846 5.03859906 0.00365187 0.00187384 0.00521996
C 4.21644730 3.73507607 4.35978056 0.00013402 -0.00237235 0.00093328
C 12.17797928 8.56995593 1.54147470 -0.00098677 -0.00081214 -0.00383898
C 5.74019826 5.98190106 1.58022377 -0.00074496 0.00574589 -0.00309445
C 36.94507327 1.07002946 4.56431233 -0.00264189 0.00068525 -0.00202053
C 5.18886601 2.85322799 4.76499103 -0.00115076 -0.00355898 -0.00086467
C 11.20193767 7.69633214 1.14662141 -0.00416358 -0.00396667 0.00625707
C 4.74716526 6.84367174 1.18354549 -0.00159802 -0.00113617 -0.00373975
C -1.19653601 1.84579976 4.97724330 0.00656632 -0.00264458 -0.00047653
C 5.00274939 1.99674489 5.89288644 0.00739978 0.00218693 0.00460690
C 11.49533035 6.72706106 0.13070049 0.00589927 -0.00082570 -0.00558502
C 4.91904530 7.61477766 0.02260643 0.00292323 -0.00162939 0.00372038
C -1.42944551 2.65845747 6.08543863 0.00008009 -0.00294837 -0.00028770
C 6.83356985 2.07378555 0.30593001 -0.00596088 0.00233367 0.00214056
C 9.71556958 6.87186872 5.24663768 -0.00228433 -0.00241171 0.00150512
C 3.24327314 7.61528098 5.49757357 -0.00165273 -0.00250319 -0.00317641
C 0.49035174 2.62781458 0.69118492 0.00430034 0.00167741 -0.00472393
C -6.19197518 2.83620367 24.35806356 -0.00270788 -0.00266793 -0.00349696
C -2.25149289 7.52000217 6.00712559 0.00331749 -0.00130887 -0.00521343
C 4.16451760 6.69913722 5.86080054 0.00468939 -0.00320552 0.00577432
C 12.49568819 1.78482513 0.12201735 0.00525769 -0.00160458 0.00396461
C 1.85084841 5.12991173 3.55293158 -0.00067672 -0.00134194 0.00343459
C 1.79903788 0.28682502 2.56908012 -0.00100560 0.00373502 0.00058177
C 8.07744639 4.48207564 2.45888810 -0.00039253 -0.00040587 -0.01034380
C 8.72371621 9.70093307 3.45320457 -0.00462586 -0.00014034 -0.00299720
C 0.58142345 5.91811008 3.54498004 0.00638250 -0.00448004 0.00164959
C 2.99233763 1.24390361 2.72421917 0.00137830 0.00028773 0.01147904
C 9.34801420 3.66723783 2.65029667 0.00540141 0.00006735 -0.00331736
C 7.46031211 8.88522905 3.11882258 0.00549498 -0.00346415 0.00199952
C 0.14436485 3.80778239 11.25731381 -0.00413562 -0.00737381 -0.00321691
C -2.54844778 8.37672887 7.19299562 -0.00144949 -0.00163236 -0.00167479
C 3.99396203 5.84000924 6.96743826 0.00051647 0.00414614 0.00345907
C 6.87052266 1.12394858 11.30472488 -0.00303371 -0.00240709 -0.00174374
C 1.34414614 3.70910806 10.59802224 -0.00331900 -0.00889363 0.00889357
C 9.42569774 8.07503925 7.69265494 -0.00202691 -0.00289134 -0.00509059
C 2.85692763 5.98834452 7.72810567 -0.01436022 -0.00011290 -0.00018072
C 33.94020943 0.89667180 10.54064910 -0.00316141 0.00739415 0.00168031
C 2.36980213 2.86257499 11.01102947 0.00281705 0.00696557 0.00146883
C 8.44507393 7.19688834 7.33394128 -0.00205604 -0.00485179 0.00232758
C 1.82566353 6.87334594 7.32187083 0.00983055 -0.00587649 -0.00961420
C -4.26742717 1.71972340 11.02666963 -0.00137257 0.00063452 -0.00523166
C 2.12995042 2.02673649 12.12437324 -0.00386981 -0.00043684 -0.00938023
C 8.57510288 6.50847276 6.05809952 0.00057706 -0.00787845 0.00360190
C 2.01984491 7.66763590 6.18127839 -0.00172693 -0.00357001 -0.00018237
C -4.35526933 2.42505541 12.21945249 0.00575550 -0.00379677 0.00030246
C 3.80991968 2.11222969 6.57287576 0.00039053 0.00177019 -0.01236071
C 6.88022976 6.76487834 11.67235056 -0.00334358 0.00235877 0.00025619
C 0.07108365 7.56752927 11.49785482 0.00165969 0.00035399 -0.00138227
C -2.61038627 2.75749957 6.80243510 -0.00838839 -0.00485091 -0.00212461
C 2.79309760 2.91694461 6.17855894 -0.00346600 -0.00191557 0.00432925
C -5.32376437 7.59452721 12.19765814 0.00925749 -0.00251064 -0.00764333
C 1.07317740 6.75559393 11.81660666 0.00643473 0.00589972 0.00155880
C 9.61979631 2.32127997 6.11563584 0.00590721 0.00170284 -0.00215002
C -1.20066665 5.06795091 9.63798343 -0.00367948 -0.00686410 -0.00043751
C -1.16333410 0.13711297 8.56062253 -0.00070756 -0.00610114 -0.00267750
C 5.21575186 4.42855811 8.55662355 -0.00123469 -0.00267702 0.00367690
C 5.73556481 9.57275160 9.71810496 0.00318208 0.00139481 -0.00611981
C -2.46468299 5.75975320 9.46666348 -0.00044869 0.00142982 0.00137656
C -0.10180263 1.18916029 8.76174924 -0.00116666 -0.00221637 0.00168458
C 6.20181830 3.30003484 8.75359955 0.00346386 -0.00007444 0.00558814
C 4.42530346 8.88184945 9.46141523 0.00717485 -0.00016565 -0.00266955
C -2.95998584 3.52976638 17.41443588 0.00623913 0.00020123 -0.00189342
C -5.45099871 8.34848976 13.39899170 -0.00589138 -0.00256327 -0.00144335
C 0.94728531 5.96784376 12.99484220 -0.00541038 -0.00250803 -0.00216641
C 3.55623954 1.06250803 17.13661022 0.00560722 0.00480768 0.00019966
C -1.75301721 3.39421409 16.64573251 0.00245896 -0.00686910 -0.00515345
C 6.28801793 8.40587092 13.84749878 -0.00169771 0.00204897 -0.00311298
C -0.26999706 5.91450158 13.70764258 -0.00395998 -0.00032940 0.00429534
C 30.81633461 1.11905280 16.60202508 -0.00338026 -0.00621062 -0.00056316
C -0.73966452 2.64804551 17.15740015 0.00630604 0.00228969 -0.00848134
C 5.36391862 7.49247831 13.38784085 0.00168503 0.00583808 -0.00022021
C -1.27326840 6.79281239 13.42934670 -0.00002501 -0.00652230 0.00253047
C -7.49873160 2.06831566 17.01778859 -0.00336717 0.00026940 -0.00595213
C -1.09696914 1.68680910 18.21312054 0.00011447 0.00299678 -0.00104415
C 5.55291550 6.74057722 12.22478236 0.00392580 -0.00256244 0.00148977
C -1.12187462 7.66271735 12.30154815 0.00479063 0.00211108 0.00142197
C -7.69126800 2.76531919 18.24422695 -0.00081199 0.00068278 0.00001127
C 0.85778696 2.06732634 12.77440085 0.00550569 -0.00051022 -0.00478161
C 3.67643401 6.78981109 17.79101872 -0.00327291 0.00041502 0.00526691
C -2.98353034 7.67199870 17.78888030 -0.00062741 0.00038310 0.00458761
C -5.61152638 2.32042757 12.94864088 -0.00093998 0.00500322 -0.00010462
C -0.06374188 3.01455656 12.39743511 -0.00070376 0.00549692 0.00191812
C -8.48957786 7.61679693 18.17939186 -0.00110053 -0.00119431 0.01008236
C -1.98942962 6.83756421 18.26114035 -0.00102474 0.00372593 -0.00250064
C 6.70173351 2.05757918 12.35890909 0.00115419 -0.00503820 -0.00517629
C -4.09894644 4.92744701 15.82476232 0.00650464 -0.00301919 0.00166839
C -4.48996996 0.04850406 14.74769746 0.00238256 -0.00354828 -0.00228191
C 2.28136385 4.82816609 14.62927859 0.00234049 -0.00153081 0.00343819
C 2.32137437 9.27866383 15.74654119 0.00185460 0.00236811 -0.00089410
C -5.37412233 5.68770949 15.66464813 0.00364612 -0.00603261 -0.00560355
C -3.13753360 0.78651580 14.89460859 -0.01090510 0.00065597 0.00555546
C 3.56410691 3.99389520 14.67529388 -0.00231441 0.00834119 -0.00087627
C 0.97686637 8.64515199 15.71986769 -0.00700745 -0.00092165 0.00191349
C -5.95092664 3.73032312 23.32199957 -0.00097123 -0.00187769 -0.00443308
C -8.74983462 8.48849614 19.26154269 0.00197961 -0.00828942 0.00657313
C -2.23160383 5.89270855 19.28535954 0.00420069 0.00212504 -0.00052296
C 0.64732592 0.94005138 23.48131834 -0.00094076 0.01045202 -0.00363028
C -4.75357132 3.74480314 22.66524166 0.00289673 -0.00315470 0.00260832
C 3.15967868 8.32715704 20.05957313 0.00989320 -0.00062339 0.00076551
C -3.46044226 5.98814484 19.98105614 -0.00113695 0.00519200 -0.00089572
C -11.03019287 0.99781259 22.88976709 0.00304550 0.00332373 0.00245589
C -3.72473466 2.89848146 23.03152075 0.00534248 0.00438311 0.00432060
C 2.24734810 7.37151222 19.68046956 -0.00340132 -0.00143327 0.00527164
C -4.45440189 6.86696513 19.56795772 -0.00005130 -0.00579867 -0.00457360
C -10.09947954 1.87470636 23.28376585 -0.00399847 0.00784236 -0.00652286
C -3.93517464 1.99997430 24.10477089 0.00365407 -0.00537148 -0.00169149
C 2.43513941 6.68861910 18.43798053 -0.00142353 -0.00273013 0.00335787
C -4.22372022 7.70543231 18.42050693 0.00016462 -0.00840690 -0.00280162
C -10.32772919 2.71847697 24.38604479 -0.00294805 0.00024617 0.00269503
C -2.25813057 1.88937144 18.93083008 -0.00273505 -0.00700276 -0.00440980
C 0.74218301 6.67529450 24.03388170 -0.00085529 -0.00268478 0.00515666
C -5.89966518 7.48171777 23.66176487 0.00448920 -0.00259270 -0.00527259
C -8.91947054 2.63766125 18.90753841 -0.00064779 0.00615757 0.00794952
C -3.24390248 2.66075269 18.44838304 -0.00340059 -0.00045168 -0.00430493
C -11.45812557 7.50735008 24.27144273 0.00078697 0.00386397 -0.00678697
C -4.88962229 6.78200244 24.23821154 -0.00658209 -0.00428376 -0.00325632
C 3.41554409 1.89082580 18.31159311 0.00328937 -0.00397067 -0.00252878
C -7.10288489 5.04802981 21.68813750 -0.00001345 0.00403261 0.00354140
C -7.44456233 0.15885821 20.66731457 0.00524661 -0.00368573 0.00148672
C -0.70847109 4.61594872 20.75553666 -0.00030181 -0.00479719 -0.00677121
C -0.72951436 9.27313880 21.73792411 -0.00271828 -0.00306954 -0.00087818
C -8.41953520 5.66248757 21.49428231 -0.00100078 -0.00593968 0.00401739
C -6.38873463 1.25452763 20.67092072 0.00235522 -0.00171797 -0.00337953
C 0.40385954 3.73319939 20.83360933 -0.00473047 -0.00254204 -0.00829100
C -1.75293702 8.22049086 21.41027551 0.00217726 0.00557647 0.00381066
C 3.05318141 13.30738596 5.05260652 0.00282525 0.00449646 0.00431307
C 0.32364643 17.97500506 0.93557201 0.00111291 0.00477958 0.00451528
C 6.99292887 15.31139748 1.00148602 -0.00266624 -0.00165860 -0.00553762
C 9.92394198 10.88751680 5.18752888 0.00094730 0.00196471 -0.00216275
C 4.33147489 13.34437277 4.49771116 0.00204521 0.00027496 0.00367257
C 12.35212569 17.98147113 1.81250475 0.00036760 0.00379425 0.00374294
C 5.73621655 15.49441115 1.62149209 0.00497961 -0.00170360 0.00535964
C -1.98928446 10.71756502 4.55077125 0.00032332 -0.00062213 -0.00046232
C 5.33622415 12.49947185 4.90667799 -0.00367257 0.00044943 -0.00989543
C 11.40994874 17.00958016 1.38618521 -0.00615745 -0.00494568 0.00428662
C 4.86174859 16.44317368 1.21115593 -0.00641001 0.00581924 -0.00957504
C -0.99813327 11.59072295 5.03773153 0.00179506 -0.00473189 -0.00735533
C 5.15524136 11.64213794 6.02984635 -0.00773672 -0.00453258 -0.00155528
C 11.63328851 16.09083273 0.30165110 0.00039749 0.00301912 0.00239949
C 5.11629824 17.29238498 0.12368968 -0.00085877 0.00369173 0.00318377
C -1.24063579 12.41025694 6.15683611 -0.00160841 -0.00119864 -0.00094595
C 6.76096179 11.61039924 0.61214042 0.00108577 -0.00268020 -0.00053043
C 9.82293115 16.26209042 5.54323979 0.00815889 0.00147857 -0.00583738
C 3.04356880 17.37290589 5.59395564 -0.00290656 0.00795711 0.00408194
C 0.21289157 12.28591711 0.59640681 0.00315449 0.00104610 -0.00258911
C 5.79825513 12.43441241 0.16457936 -0.00263749 0.00362611 -0.00218230
C -2.35151727 17.36803640 5.93718811 0.00322111 -0.00325036 0.00694484
C 4.01061059 16.42509941 5.91411078 -0.00952320 0.00087735 0.00461392
C 0.23265999 11.35805527 24.38474513 -0.00452726 -0.00179338 0.00124625
C 1.94431833 14.75235084 3.47660964 -0.00615223 0.00345279 0.00300535
C 1.53194871 9.92715594 2.44106514 0.00239043 -0.00122386 0.00442472
C 8.18098081 13.98368503 2.59621954 -0.00228346 0.00073514 -0.00260137
C 8.52454534 18.73943387 3.65592833 0.00553952 -0.00798841 0.00588928
C 0.81741036 15.71386933 3.30966634 0.01013179 0.00574539 0.00269344
C 2.68805818 10.81803462 2.66907799 0.01111544 0.00440945 0.00424608
C 9.38490542 13.23903462 2.78628844 -0.00353051 -0.00499565 -0.00196521
C 7.43963935 17.81778631 3.42090171 -0.00459970 -0.00429104 -0.00430500
C 0.14260652 13.30141406 11.34428830 -0.00243643 0.00475997 -0.00128350
C -2.61966223 18.17266941 7.06606046 -0.00696228 -0.00054701 0.00151225
C 3.78361990 15.50229820 6.95250080 0.00283295 -0.00280710 -0.00278003
C 6.86004865 11.02077128 11.30296212 -0.00302701 0.00322301 -0.00112668
C 1.29844009 13.26057185 10.69700487 -0.00120127 0.00155879 0.00053937
C 9.29723128 18.07524893 7.66693991 0.00190755 0.00310470 0.00113483
C 2.52558604 15.44911688 7.57753505 -0.00342853 0.00299961 0.00693983
C -4.86093756 10.72714029 10.88203759 -0.00463202 0.00201412 0.00432205
C 2.26458297 12.35649213 11.03690595 -0.00646126 -0.00431075 -0.00295692
C 8.36820838 17.10564146 7.35021595 -0.00503294 -0.00094692 -0.00433232
C 1.53706967 16.29454576 7.10763227 -0.00094296 0.00324361 -0.00678398
C -3.91372017 11.64731215 11.25034993 -0.00348334 -0.00435190 0.00215927
C 2.15066301 11.65845088 12.24143482 -0.00360104 -0.00141948 0.00360629
C 8.50716724 16.29653927 6.21818546 -0.00677551 -0.00090135 0.00080991
C 1.77747964 17.29253371 6.14556347 -0.00624555 -0.00426668 0.00800877
C -4.18476453 12.45460660 12.44348608 -0.00177548 0.00096952 -0.00403296
C 3.90388721 11.69471568 6.71920505 -0.00676746 0.00185617 -0.00331414
C 6.50546639 16.49881682 11.49945375 -0.00242778 0.00061020 -0.00722277
C 0.07874229 17.30812619 11.71627155 -0.00051001 -0.00111125 -0.00458792
C -2.49841643 12.36027494 6.77272158 0.00440276 -0.00392281 -0.00804068
C 2.87749221 12.52735892 6.29580312 0.00172258 0.00270552 0.00367819
C -5.37596474 17.29601818 12.04303421 -0.00227843 -0.00149467 0.00176582
C 1.05949044 16.43285584 12.17480261 0.00231918 -0.00188864 0.00074498
C 9.67893676 11.59275602 6.35711658 -0.00003696 0.00005583 0.00451880
C -1.00622439 14.70870388 9.78635452 0.00626970 -0.00919771 0.00213933
C -1.35628004 9.69852032 8.76318182 -0.01071654 -0.00320637 -0.00234171
C 5.10959360 14.34789024 8.58010393 0.00032321 0.00224026 -0.00384201
C 5.08105872 18.98388422 9.80672272 0.00248152 -0.00079811 0.00615587
C -2.20022369 15.59613963 9.66092454 -0.00399780 0.00204758 -0.00222193
C -0.20898481 10.64648996 8.99959308 -0.00319232 -0.00333191 0.00214522
C 6.17909506 13.37270318 8.88745235 0.00227412 0.00464035 0.00470401
C 3.78858490 18.24069704 9.92711847 -0.00174600 -0.00071596 0.00465023
C -2.90160628 13.35459546 17.37194737 0.00598493 -0.00123794 -0.00638361
C -5.59311806 18.09344676 13.15046716 0.00029468 -0.00002381 0.00103271
C 0.85498209 15.59754016 13.23424727 0.00705372 0.00328721 -0.01143272
C 3.49745394 10.74759411 17.27906411 -0.00821795 0.00581045 -0.00721631
C -1.74614550 13.17607216 16.59614588 0.00394388 0.00132386 0.00142768
C 6.27327211 17.88714904 13.94745470 -0.00107584 -0.00321488 0.00444707
C -0.41265266 15.66077022 13.94793635 -0.00724456 0.00584660 0.01001993
C -8.13504212 10.77872410 16.78208897 0.00196374 -0.00229291 -0.00611015
C -0.79528083 12.25337446 16.84952203 -0.00235159 0.00179322 -0.00079348
C 5.34300917 16.94491288 13.60578524 -0.00287963 -0.00244132 -0.00331438
C -1.35016913 16.57138676 13.53789895 -0.00672906 -0.00684113 -0.00096628
C -7.33022946 11.73424763 17.20173967 -0.00080677 0.00301382 0.00591402
C -0.99678154 11.33863799 17.99714155 -0.00248159 -0.00151181 0.00383518
C 5.40549474 16.26877685 12.32837124 -0.00513510 0.00174267 0.00513878
C -1.15236977 17.40678976 12.38183383 0.00053765 0.00292966 0.00113744
C -7.52348746 12.59348812 18.30974043 -0.00149329 -0.00226846 0.00405316
C 0.95986282 11.71470105 12.87795980 0.00003303 -0.00958807 -0.00178409
C 3.53521853 16.31976504 17.79194017 0.00724466 -0.00409719 -0.00141140
C -2.65510801 17.04774811 17.85953096 0.00303956 0.00682377 -0.00258649
C -5.40492643 12.34749355 13.07840655 -0.00620198 0.00012353 0.00245429
C 0.00227581 12.57779372 12.49646367 -0.00046706 -0.00198474 -0.00119589
C -8.46787555 17.63161935 18.14467504 -0.00352081 0.00018163 0.00059979
C -1.71062245 16.17264105 18.31619923 -0.00376068 0.00198054 -0.00709791
C 6.60301344 11.85610754 12.42802759 -0.00156379 0.00150690 -0.00641541
C -3.93364828 14.87124573 15.76435750 -0.00093943 -0.00379302 -0.00446961
C -4.35858800 9.88593418 14.84392258 -0.00694236 0.00216062 0.00167966
C 2.04789253 14.24118896 14.86400270 0.00008105 -0.00108821 -0.00621564
C 2.41305082 18.90071543 15.77646125 -0.00180635 -0.00176731 0.00675676
C -5.07706358 15.79939438 15.54547612 0.00810227 0.00050078 0.00070009
C -3.08478715 10.57286589 14.98157259 -0.00245497 -0.00244301 0.00545828
C 3.32533806 13.42802435 15.04830058 -0.00157418 0.00105635 0.00062455
C 1.39426282 17.77493438 15.62312114 0.00857532 0.00294664 0.00456053
C -6.02529815 13.23521374 23.48505212 -0.00216737 -0.00190364 0.00392025
C -8.58768756 18.39425996 19.36209283 -0.00006287 0.00283406 0.00298531
C -2.00668286 15.40362643 19.45868664 0.01148741 -0.00319794 -0.00693387
C 0.56515322 10.40747561 23.41180277 0.00064311 -0.00007566 0.00030660
C -4.79753652 13.24174436 22.85786641 0.00210524 0.00626101 0.00106499
C 3.09652395 17.92642304 20.03941271 0.00036602 -0.00569867 -0.00413746
C -3.29100415 15.57227289 20.06618285 0.00465387 0.00416482 -0.00137698
C 27.97920613 10.78807107 22.73443109 -0.00631439 0.00156620 -0.00710948
C -3.89646231 12.27126043 23.26872391 0.00729846 -0.00371599 -0.00069969
C 2.18495801 16.98747079 19.67294982 0.00250606 -0.00438570 0.00214644
C -4.16199621 16.50343147 19.67276722 0.00088065 0.00194590 -0.00093449
C -10.23755511 11.65727599 23.30214553 -0.00325159 0.00186430 0.00165294
C -4.08542069 11.37985876 24.35292031 0.00344254 0.00035497 0.00413729
C 2.35119353 16.16978794 18.56921763 0.00196211 -0.01185569 -0.00323060
C -3.84824332 17.31636420 18.50168516 -0.00687570 0.00080312 0.00461632
C 1.50340957 12.39152209 0.03063529 -0.00039256 -0.00150579 -0.00674160
C -2.10150430 11.63666184 18.79939324 0.00491074 -0.00693801 0.00458352
C 0.74713784 16.31666090 24.03012752 0.00578273 -0.00369046 0.00070213
C -5.65632347 17.09498136 23.86571071 0.00320699 0.00149130 -0.00066071
C -8.77428094 12.54213207 18.91269502 -0.00250946 -0.00177440 -0.00394597
C -3.07579945 12.53420278 18.48334722 0.00622597 -0.00195732 0.00879605
C -11.58762330 17.28383833 24.11630639 -0.00563760 0.00460015 0.00309253
C -4.71034035 16.19072838 24.38175992 0.00179737 0.00926469 -0.00161193
C 3.20517883 11.61238398 18.38957865 0.00653960 0.00012102 -0.00281168
C -7.10793370 14.85955628 21.93231012 -0.00342912 -0.00660842 0.00310016
C -7.41867054 9.87185457 20.80352229 -0.00021572 0.00020993 -0.00253394
C -1.06650723 13.98984457 21.12706507 -0.00473256 -0.00639673 0.00111161
C -0.67646466 18.69800022 22.11086478 -0.00014974 0.00325884 -0.00576524
C -8.30871363 15.75538932 21.83071659 -0.00211843 0.00475753 0.00391420
C -6.23445500 10.73813626 20.90278223 0.00666777 0.00794762 0.00272099
C -0.04283591 12.99610249 21.31059217 0.00742386 0.00069745 -0.00407806
C -1.88707570 17.92839694 21.89507874 0.00176336 -0.00440030 0.00160936
C 3.08280978 22.92314265 5.14804266 0.00357808 -0.00125231 -0.00289489
C 0.52680449 27.62546457 1.12546519 0.00253259 0.00519587 -0.00048257
C 7.02362093 25.12139550 0.98726866 -0.00229454 -0.00259031 -0.00349684
C 9.60485357 20.26932340 5.12569161 0.00193541 -0.00558646 -0.00536125
C 4.30682093 22.87533879 4.45504648 0.00551050 -0.00489163 -0.00056093
C 12.23272908 27.81697830 1.61427917 -0.00345458 -0.01129380 -0.00665870
C 5.82069833 25.22024807 1.75034041 -0.00506895 0.00039133 -0.00203076
C 36.78198880 20.66007498 4.39185638 0.00504283 0.00852925 0.00916668
C 5.26193653 21.93830024 4.92099458 0.01348390 0.00629399 0.00030966
C 11.24102238 27.00678048 1.14396116 0.00073916 0.00580332 0.00093940
C 4.84297063 26.13813589 1.30784962 0.00423874 0.00242722 -0.00253550
C -1.45134857 21.49660697 4.84452450 -0.00133526 0.00422162 -0.00209417
C 5.08310517 21.12574179 6.07621235 -0.00303165 -0.00176273 -0.00267717
C 11.49100218 26.05396438 0.10137907 -0.00550556 -0.00494760 -0.00862599
C 4.98792089 26.99087149 0.16215690 0.00711418 0.00018734 0.00112148
C -1.72141463 22.29014382 6.02694157 0.00078464 -0.00316271 -0.00284001
C 6.88143340 21.26558528 0.76523162 -0.00212472 -0.00422733 0.00332794
C 9.62211024 26.10328618 5.47597463 -0.00098327 -0.00308576 0.00193291
C 3.20656409 26.93617810 5.48859876 0.00213307 -0.01023599 0.00371716
C 0.44458004 22.00517933 0.65277298 -0.00084422 0.00463712 -0.00053002
C 5.88090025 22.10234225 0.25032435 -0.00019641 -0.00212699 -0.00024875
C -2.34231679 26.84770763 5.80998516 0.01162392 0.00238024 0.00235215
C 4.22862870 26.04885951 5.84611892 0.00093049 -0.00702068 -0.00730570
C 12.45572005 21.11601133 0.18159131 -0.01074780 -0.00389858 -0.00310751
C 1.94561905 24.23783666 3.56865595 0.00070368 -0.00068560 -0.00158414
C 1.53429083 19.36534226 2.43424357 0.00295069 0.00645705 -0.00473077
C 8.37655345 23.66328363 2.46611074 0.00265947 0.00197316 -0.00216418
C 8.44259393 0.07624410 3.51027725 0.00135311 -0.00517241 0.00953056
C 0.79323088 25.21116724 3.35975633 0.00064700 -0.00723328 0.00381270
C 2.80677230 20.18889167 2.62161389 0.00254190 -0.00109624 -0.00150103
C 9.53230438 22.84623013 2.50395392 -0.00061459 -0.00213125 -0.00780173
C 7.14062218 28.17159811 3.40263867 -0.00450604 -0.00593151 -0.00605247
C 0.10135806 22.89965579 11.33852800 -0.00432790 0.00180309 -0.00273977
C -2.42851958 27.60874527 6.98414924 -0.00129665 0.00118930 0.00429223
C 4.11447217 25.11786258 6.90784489 -0.00575981 0.00570263 0.00063874
C 6.56882564 20.33676521 11.20117452 0.00011147 -0.00297167 0.00471042
C 1.30882713 22.90740362 10.64475995 -0.00598788 -0.00315447 0.00078351
C 9.09673898 27.77355496 7.63412484 -0.01030425 0.00035089 0.00251607
C 2.89020986 25.13971362 7.57521427 -0.00453248 -0.00542986 0.00223788
C 33.95251915 20.29240338 10.57890002 -0.00431510 0.00038887 -0.00226415
C 2.28752186 22.00582026 10.98895337 -0.00179282 -0.00071839 -0.00468166
C 8.17517383 26.80537521 7.23811272 -0.00384619 -0.00363567 -0.00355707
C 1.85262715 25.98254304 7.20790241 0.00947030 0.00038629 -0.00672604
C -4.27698848 21.22996597 10.91579277 0.00729229 -0.00054774 0.00132934
C 2.10650483 21.19715088 12.12285868 0.00577340 0.00593626 0.00258830
C 8.36419660 26.00502683 6.11149816 -0.00045017 -0.00785781 0.00156913
C 1.94602225 26.84502244 6.13795410 -0.00417662 0.00078040 -0.00706621
C -4.37744930 22.05059726 12.07807904 -0.00359694 -0.00431307 -0.00106369
C 3.79094774 21.19390427 6.69982442 0.00473767 0.00408063 -0.00314229
C 6.67858721 25.81746085 11.58457750 -0.00773383 0.00463476 -0.00143063
C -0.03318169 26.84206367 11.63054940 0.00366031 0.00319470 0.00091036
C -3.03282494 22.16176850 6.63381394 0.00121243 -0.00395179 -0.00019509
C 2.86444042 22.09987351 6.32571692 0.00000728 0.00730130 -0.00335383
C -5.41875934 26.64201398 12.08954075 0.00117576 0.00553336 0.00012510
C 1.00159551 26.01377785 11.96857396 -0.00051368 0.00760862 0.00101648
C 9.51450847 21.10462930 6.24133238 -0.00418089 -0.00217090 0.00114638
C -0.93650699 24.38778250 9.80117846 -0.00546729 0.00155643 -0.00164027
C -1.35795296 19.51792347 8.68361354 -0.00040311 0.00479097 -0.00068074
C 5.08918038 23.51641157 8.49745255 0.00619391 0.00926784 0.00383417
C 5.53796123 28.67524300 9.71081757 -0.00571086 0.00237535 0.00017431
C -2.21109427 25.16014563 9.44508577 0.00763219 0.00792712 0.00262705
C -0.06330321 20.18976930 8.95311426 0.00425043 0.00180623 0.00715529
C 6.33772791 22.81226229 8.80502521 0.00102837 -0.00447862 0.00352668
C 4.36753577 27.70867166 9.62433223 0.01007303 -0.00525763 -0.00102227
C -2.75901188 22.92005579 17.38067865 0.00331794 0.00146732 -0.00320556
C -5.61467649 27.48067040 13.19190035 0.00026818 0.00505079 0.00251763
C 0.88158714 25.13547888 13.06692702 -0.00241141 0.00321340 -0.00109056
C 3.70266061 20.26294356 17.34009287 0.00376676 -0.01088214 0.00443401
C -1.42492142 22.75684624 16.86598009 -0.00053904 0.00140988 0.00856127
C 6.14645548 27.28219965 13.82085048 0.00364600 0.00185121 -0.00199265
C -0.27421755 25.12665915 13.83433525 -0.00219493 -0.00183601 -0.01325195
C 30.76449465 20.48709913 16.51655847 -0.00133130 -0.00061008 -0.00197727
C -0.59327317 21.76743833 17.32351176 0.00354804 -0.00843414 -0.00136572
C 5.15022048 26.53830498 13.29828202 0.00053955 0.00039406 -0.00062893
C -1.36583184 25.84502383 13.38697406 0.00800667 -0.00296532 -0.00259263
C -7.37613537 21.32726488 16.93953229 -0.00264439 0.00932638 -0.00007355
C -0.98155163 20.88391647 18.39118188 -0.00855689 0.00626381 0.00308022
C 5.39588189 25.74569670 12.13083354 0.00503657 0.00097210 0.00490083
C -1.27446299 26.72461728 12.30332305 -0.00588723 0.00418243 0.00000786
C -7.41891327 22.14202663 18.04539404 0.00398986 -0.00166602 0.00517015
C 0.99548649 21.38079825 12.94927971 0.00263078 0.00173132 -0.00341917
C 3.48950102 25.89932566 17.84735517 -0.00482247 0.00240444 -0.00013959
C -2.73260293 26.74563452 17.70656997 0.00654229 0.00029530 0.00277993
C -5.60903673 21.90252060 12.78798561 0.00570172 -0.00323481 0.00275297
C 0.02867493 22.27270877 12.56237264 -0.00575295 0.00095205 -0.01002853
C -8.48869361 26.63001573 18.18810227 -0.00511141 0.00534137 -0.00276442
C -1.86391166 25.80792750 18.21108604 -0.00372569 0.00248641 -0.00224928
C 6.47041551 21.10934516 12.34765823 -0.00313667 0.01122963 0.00526269
C -3.79519789 24.26797028 15.72109600 0.00145353 0.00503546 0.00324314
C -4.39167859 19.60283816 14.69542646 -0.00211615 -0.00359806 -0.00235657
C 2.26194287 23.84095834 14.64831017 -0.00319846 -0.00309371 0.00535214
C 2.41075264 28.33278202 15.63285149 -0.00237624 0.00129126 -0.00113483
C -4.87515931 25.33898246 15.54434230 -0.00101583 0.00504479 0.00330325
C -3.21549323 20.46384585 14.79276070 0.00509118 0.00189069 0.00135813
C 3.39932275 22.85620283 14.64909336 -0.00747347 0.00295689 0.00243018
C 1.28878707 27.28443188 15.37235032 0.00342057 0.00817354 0.00398086
C -5.88422296 22.99354264 23.58275091 0.00207033 0.00489465 0.00188134
C -8.63562910 27.56562634 19.18428205 -0.00079508 0.00174259 -0.00201236
C -2.17021788 25.00193578 19.27952406 -0.00494621 -0.00537626 -0.00349145
C 0.56549550 20.15551801 23.55805596 0.00337492 -0.00509825 0.00137072
C -4.59815459 22.85447383 22.92262093 0.00577053 0.00114122 -0.01004095
C 2.99298948 27.56293187 20.04694450 -0.00295108 0.00737773 -0.00026066
C -3.46974990 25.16867364 19.92795974 0.00425037 -0.00247505 -0.00295903
C 27.99613906 20.49454276 22.71514770 0.00067160 -0.00244880 -0.00177138
C -3.70937274 21.90604877 23.34545479 -0.00230261 -0.00315343 -0.00931491
C 2.06929222 26.58083516 19.68586400 0.00114966 -0.00255737 -0.00410649
C -4.33270132 26.13537488 19.47294442 -0.00214574 0.00339892 -0.00050696
C -10.22761577 21.36460668 23.16442131 0.00497859 0.00616212 0.00286064
C 8.07404575 21.13426519 0.07203363 -0.00815616 0.00461983 0.00448683
C 2.25834339 25.70782446 18.56165011 -0.00779482 0.00187238 -0.00357670
C -3.98291467 26.94998133 18.36080162 -0.00066597 -0.00481798 -0.00099718
C -10.37765213 22.16254458 24.29535652 -0.01289896 -0.00006298 0.00017955
C -2.16853282 21.18151184 18.99298542 0.00472739 0.00126692 -0.00060507
C 0.76742297 26.08772884 23.89964373 0.00053556 0.00680080 0.00448378
C -5.75040875 26.96285813 24.01223915 0.00884474 0.00569704 0.00159063
C -8.71694443 22.08667765 18.70452842 -0.00248322 -0.00115308 0.00968245
C -3.05875306 22.08583992 18.49968839 0.00112636 -0.00017025 -0.00134973
C 0.77343376 26.77309743 0.05058438 0.00687465 -0.00480795 -0.00104496
C -4.85019467 26.02799375 24.36201252 0.00701899 -0.00390323 0.00656839
C 3.48156754 21.01722110 18.50695705 -0.00149921 -0.00197479 0.00180936
C -6.99526150 24.34349631 21.89645962 -0.00418167 -0.00363223 0.00524686
C -7.20735069 19.60525086 20.96893368 -0.00304248 -0.00416540 0.00420962
C -1.12300627 23.71295234 20.97817500 -0.00623463 -0.00590161 0.00076545
C -0.54445381 28.37269652 21.92820955 0.00217518 0.00012423 -0.00101630
C -8.20786113 25.20767846 21.69174896 -0.00237820 0.00740981 0.00139534
C -5.90538320 20.32060111 21.23096646 0.00219220 -0.00300182 -0.00255063
C -0.04178591 22.71156970 21.25442970 0.00010379 0.00498459 0.00160410
C -1.83365093 27.52394102 21.76148980 0.00833580 -0.00069829 -0.00167524
C 16.29697845 3.69849169 5.12721738 -0.00604006 0.00180130 0.00298153
C 13.46517662 8.53627543 1.06675081 0.00073740 0.00599888 0.00605574
C 19.95411050 5.79851032 0.89643948 -0.00112278 0.00854107 0.00178815
C 22.79883119 1.01678160 5.17685719 -0.00493221 -0.00252650 0.00086829
C 17.39721416 3.53630035 4.29976173 0.00048473 0.00241786 -0.00854379
C 25.26878894 8.50653060 1.59802662 0.00626311 -0.00228276 0.00542271
C 18.73883902 5.94132533 1.55815104 -0.00387288 -0.00384826 -0.00396492
C 11.01675461 1.53602638 4.34072873 0.00711851 -0.00816949 -0.00300716
C 18.43337518 2.74075163 4.69263570 0.00190560 -0.00128388 0.00580810
C 24.32605124 7.58887678 1.11187345 0.00546973 0.00584924 0.00240436
C 17.73985165 6.88054134 1.16940809 0.00115546 0.00048278 0.00465784
C 11.99183975 2.29133381 4.78967445 -0.00001248 0.00536709 0.00038395
C 18.27579766 1.92301596 5.88537897 -0.00093534 -0.00067437 0.00253900
C 12.40342302 6.87665851 24.35931736 -0.00918083 -0.00288753 -0.00065140
C 17.94869732 7.67096885 0.02291528 0.00004984 0.00142343 -0.00097376
C 11.89605433 3.05983198 6.01250145 0.00228117 0.00233439 -0.00248548
C 19.63781910 2.02157035 0.35970812 -0.00036672 0.00125244 0.00122870
C 22.60613039 6.88169841 5.47755510 -0.00209018 0.00437111 -0.00286818
C 16.22244765 7.97220012 5.51583549 0.00013038 0.00215271 -0.00305797
C 13.48659938 2.64981293 0.47410114 0.00001914 0.00231733 -0.00134577
C 6.63379888 2.86762459 24.30682892 0.00176430 -0.00100136 0.00093077
C 10.72079529 7.69943439 5.72827687 0.00898379 -0.00300440 0.00668825
C 17.20768188 7.00586350 5.86644473 -0.00190136 -0.00230517 0.00330662
C 25.28937832 1.92242863 0.05719301 -0.00095314 0.00288996 0.00320706
C 15.14947081 5.19520029 3.54172519 -0.00013484 0.00189352 0.00504898
C 14.60018888 0.46293970 2.63355018 -0.00175438 0.00005741 -0.00253590
C 21.15574355 4.59223245 2.54364131 0.00525314 -0.00544282 -0.00210437
C 21.75067915 9.39516156 3.66908345 0.00109073 0.00165540 0.00036364
C 14.12046137 6.39031673 3.54397898 -0.00125247 0.00188448 -0.00151186
C 15.52732685 1.63474747 2.81327287 0.00702595 0.00253320 -0.00520613