2880
Time=97999.99999997 pbc="T T T" Lattice="39.31028499 0.00000000 0.00000000 0.00000000 28.90224550 0.00000000 -12.02727395 0.00000000 24.39876318" energy=-18397.13170886 virial="21.64884034 20.85361245 -20.82501896 20.85361245 36.46384313 -1.79146243 -20.82501896 -1.79146243 -4.78347055" stress="0.00328711 0.00075337 -0.00065153 0.00075337 0.00385611 -0.00011620 -0.00065153 -0.00011620 0.00246484" Properties=species:S:1:pos:R:3:vel:R:3
C 3.07268944 3.84214068 5.07125852 -0.00006261 0.00197474 -0.00402584
C 0.49359417 8.40788364 1.12377591 0.00218861 0.00104488 -0.00358750
C 7.12618239 5.87675588 1.12878872 -0.00146581 0.00008062 -0.00521618
C 9.47436497 1.19082647 5.17639510 0.00138766 -0.00055231 -0.00400570
C 4.28878643 3.74731162 4.45309657 -0.00687170 0.00176213 0.00190121
C 12.31984530 8.48488481 1.82338243 0.00146797 0.00386968 -0.00237612
C 5.87845179 5.97559794 1.78279760 0.00437647 -0.00150172 0.00245811
C 37.07827518 1.30252622 4.39721087 0.00219429 -0.00211989 0.00106786
C 5.19777261 2.72309463 4.86600013 0.00869746 0.00017473 0.00452749
C 11.42796894 7.49020821 1.37832023 0.00008268 0.00305628 0.00353578
C 4.93812058 6.84209247 1.29502551 0.00024066 -0.00551957 -0.00218507
C -1.29579172 2.24977967 4.75134911 -0.00211405 0.00639445 0.00207760
C 4.92397460 1.88476957 5.96316244 -0.00218700 0.00021582 0.00375695
C 11.72422134 6.63931545 0.32669150 -0.00049602 0.00572161 -0.00134676
C 5.17089816 7.62376297 0.16033063 0.00373293 0.00021803 -0.00485144
C -1.61562872 3.06043098 5.86429059 0.00950323 -0.00061027 -0.00234324
C 6.98162551 2.04879211 0.46251506 0.00407446 0.00137749 -0.00220880
C 10.16822521 6.71792044 5.79583938 0.00213808 0.00612316 -0.00611874
C 3.40307461 7.80471302 5.82884823 0.00196973 0.00574736 -0.00483111
C 0.53590714 2.75576923 0.44537009 -0.00123845 0.00264255 -0.00274520
C 6.00910028 2.98614466 0.03707951 0.00292424 -0.00317644 -0.00240507
C -2.26252313 7.41203253 5.99436245 0.00324378 0.00245271 -0.00317964
C 4.33119276 6.78072174 6.17610198 -0.00364297 0.00522326 -0.00807001
C 0.44880227 1.82300200 24.36095713 0.00523497 0.00080518 0.00074676
C 1.81215381 5.14116931 3.49663463 0.00259799 -0.00427002 0.00175167
C 1.69704816 0.41398933 2.51867473 -0.00714439 0.00415327 -0.00388191
C 8.19193834 4.58244515 2.87178543 0.00396897 0.00338752 0.00095393
C 8.45317368 9.51358574 3.51358675 0.00441398 0.00400893 -0.00250720
C 0.51783700 5.81453709 3.25207604 -0.00785332 -0.00342095 -0.00375083
C 2.82520586 1.40580469 2.68177778 0.00575865 0.00044078 0.00533823
C 9.48387382 3.86308503 3.23622431 -0.00746729 -0.00830177 -0.00513397
C 7.44965284 8.43912618 3.33360184 0.00081593 0.00211946 0.00629676
C 0.19780988 3.72515458 11.23940427 -0.00074488 0.00340045 -0.00523987
C -2.42947250 8.36997665 7.01669668 -0.00605710 -0.00056468 -0.00058184
C 3.92317239 5.93170741 7.18762419 0.00010715 0.00245732 0.01212630
C 6.81111255 1.01546054 11.34615013 -0.00771126 0.00861628 0.00299163
C 1.46524275 3.56944367 10.58485255 0.00564709 0.00371106 0.00148817
C 9.55361450 8.35898671 7.91656014 -0.00831843 -0.00026030 -0.00543576
C 2.73894189 6.04411748 7.87456848 0.00348252 0.00249656 -0.00317380
C 34.07682030 1.20560645 10.35971895 -0.00834027 -0.00527856 -0.00159817
C 2.32835946 2.66481754 11.01850179 0.00596886 0.00123800 0.00349212
C 8.58873324 7.47488256 7.49333721 -0.00169303 -0.00291915 0.00672403
C 1.78056991 6.89373952 7.42147631 0.00543826 0.00259236 -0.00342244
C -4.21321816 2.09030613 10.74228639 0.00165029 -0.00552825 0.00795442
C 2.08451712 1.79026555 12.12249610 0.00068027 -0.00794956 0.00199539
C 8.90709830 6.49999032 6.51006142 -0.00084240 0.00666936 -0.00834938
C 2.11868643 7.79048706 6.35179563 0.00112479 -0.00597287 0.00040625
C -4.37371072 2.85300232 11.99227930 0.00272461 0.00216643 0.00949509
C 3.67375800 2.02680007 6.57098927 -0.00054987 -0.00344584 0.00492314
C 6.48081563 6.80154607 11.74239686 -0.00134359 0.00035673 -0.00194547
C 0.19204010 7.72104889 11.71013027 -0.00480907 0.00020210 -0.00531825
C -2.80579035 2.89755284 6.56395528 -0.00380820 -0.00709596 -0.00455832
C 2.72478878 2.92832231 6.11495910 0.00221313 -0.00332038 -0.00032963
C -5.41724977 7.58195329 11.80067313 -0.00827988 -0.00650692 0.00382467
C 1.08533245 6.84546223 12.25676202 -0.00769395 0.00649342 0.00231039
C 9.32298405 2.03214130 6.24554206 0.00666740 0.00084019 -0.00199866
C -0.82523649 5.19958526 9.58238540 0.00304830 -0.00579486 -0.00186825
C -1.24854767 0.37061433 8.73439883 -0.00261218 -0.00238196 -0.00554603
C 5.22670042 4.51628255 8.76718459 0.00953360 0.00011374 -0.00269997
C 5.18868399 9.45928969 9.82146336 0.00597603 0.00836479 -0.00600446
C -1.89210018 6.20052782 9.46616422 -0.00131540 0.00360446 -0.00514873
C -0.07938209 1.35038262 8.83843899 -0.00170890 -0.00489363 -0.00701133
C 6.40465059 3.61139244 8.91400228 0.00464908 0.00325409 0.00392071
C 3.73004633 8.84835064 9.86630235 -0.00444948 -0.00511308 0.00657054
C -3.04622402 3.90627429 17.20339432 -0.00042424 -0.00322364 -0.00264258
C -5.51567760 8.46957466 12.93101908 0.00772433 -0.00007566 0.00071283
C 0.78545557 5.94007842 13.30246364 0.01057775 0.00044587 -0.00271122
C 3.69148787 1.06431302 17.61747636 0.00275731 -0.00191332 -0.00063628
C -1.84416351 3.69918349 16.52180337 -0.00246203 -0.00655630 -0.00042489
C 6.12183959 8.39269088 14.01179239 0.00321671 -0.00537086 0.00589477
C -0.47252404 6.09744225 13.84361805 -0.00067342 0.00278270 -0.00538405
C 31.02706228 1.05349641 16.52516684 -0.00511942 0.00455661 -0.00121733
C -0.82404658 2.90982203 17.05677928 -0.00512125 -0.00293306 -0.00394581
C 5.10465193 7.64648008 13.52472659 -0.00088987 0.00074747 -0.00176599
C -1.42272070 6.90682176 13.25579133 -0.00126667 -0.00457159 0.00437542
C -7.32711112 1.92943058 16.96360007 0.00456116 0.00295790 0.00049248
C -1.02736092 2.11814890 18.21198866 0.00082203 -0.00490068 0.00357280
C 5.28671042 6.73499383 12.43809681 0.01110699 -0.00298973 0.01107195
C -1.07056764 7.80689128 12.20262553 0.00065041 -0.00641050 -0.01011694
C -7.60170188 2.76138723 18.09082626 -0.00169028 -0.00104474 -0.00216124
C 0.84709467 1.94065389 12.77082523 0.00488410 -0.00028821 0.00493918
C 3.44578447 6.82808733 17.88051920 0.00221414 0.00350281 -0.00528514
C -3.17762039 7.70985341 17.61193511 -0.00719036 -0.00662913 -0.00447405
C -5.63812509 2.73582552 12.62861035 -0.00363491 -0.00591745 0.00417452
C 0.01437273 2.93877982 12.37475147 0.00826763 -0.00265454 0.00516792
C -8.50916273 7.72139597 18.03289452 -0.00224872 -0.00291302 0.00293502
C -2.16562830 6.85573389 17.99809430 0.00939917 0.00137956 -0.00674459
C 6.66215709 1.61330133 12.56452712 0.00501776 -0.00602631 0.00708308
C -4.28080120 5.17668742 15.55311984 0.00141202 -0.00025118 0.00044259
C -4.25973247 0.35092530 14.59344926 0.00767585 0.00327889 -0.00724565
C 2.12683580 4.68575688 14.96379086 -0.00739514 -0.00526527 0.00394224
C 2.57395033 9.34259536 15.80876077 -0.00045163 0.00530516 0.00352060
C -5.49902835 5.97784012 15.38564116 0.00107612 -0.00325651 0.00181821
C -3.15397382 1.30515785 14.83108186 0.00383309 -0.00494939 -0.00641953
C 3.52008683 4.15494868 15.02166656 -0.00533537 0.00130169 -0.00349897
C 1.55915299 8.28954331 15.73779317 -0.00352095 0.00730526 0.00004568
C -5.66795576 3.89184339 23.43131033 0.00849738 -0.00315275 0.00972227
C -8.73010969 8.54694058 19.13593279 0.00407513 -0.00225182 0.00267399
C -2.33370891 6.09443461 19.18179654 0.00011162 0.00600603 -0.00382974
C 0.74849432 1.07981949 23.25353286 -0.00220886 0.00318544 -0.00437171
C -4.38565636 3.85376338 22.82736314 0.00295955 -0.00020665 0.00177613
C 3.28226333 8.35396627 20.14574805 -0.00455013 -0.00093640 0.00155331
C -3.56600952 6.16678532 19.87724179 -0.00378209 0.00538903 -0.00094529
C -11.09198918 1.07549294 22.71909498 0.00107723 -0.00219218 0.00612530
C -3.43737961 2.99511071 23.33043124 0.00993931 0.00112538 -0.00142745
C 2.24584222 7.58326286 19.73308037 0.00340705 -0.00259936 -0.00117443
C -4.50343619 7.15200712 19.58267144 0.00235526 -0.00143855 0.00119024
C -10.12512236 1.98308114 23.04028075 0.00575234 0.00504592 0.00240311
C -3.77579225 1.96774042 24.25907931 -0.00123959 -0.00626170 0.00457965
C 2.17281449 6.81558898 18.59285837 -0.00181774 -0.00137348 -0.00653336
C -4.34075192 7.85361146 18.41167412 -0.00246914 -0.00607096 -0.00208347
C -10.24607094 2.82846154 24.12067134 -0.00053763 0.00122833 -0.00329100
C -2.29986937 2.27958039 18.80280214 0.00150701 -0.01105602 0.00368123
C 0.92914989 6.81159731 24.02671917 0.00005609 -0.00353547 -0.01390031
C -5.59084013 7.62274994 23.96195513 0.00131781 0.00253548 0.00366052
C -8.76054933 2.56843373 18.80771314 0.00779018 0.00221661 -0.00032520
C -3.28528285 3.12040030 18.33362540 -0.00409579 0.00061820 -0.00261593
C 0.81053496 7.52208634 0.01130428 -0.00198755 0.00428734 -0.00097626
C -4.68061515 6.69422584 24.38889283 -0.00497271 0.00023026 0.00255441
C 3.58003922 2.03024589 18.73720442 0.00210408 -0.00920229 0.00046944
C -6.99099596 5.18210605 21.79654070 -0.00401589 0.00212285 0.00176514
C -7.28906504 0.34171383 20.56327229 0.00376299 -0.00146546 -0.00600878
C -1.11517400 4.99353873 20.93451347 0.00045269 -0.00760295 -0.00901591
C -0.49099516 9.27137693 21.81505679 0.00145796 0.00373820 -0.00474393
C -8.19926631 6.14949372 21.73766537 -0.00009217 0.00519301 -0.00004836
C -5.95036372 1.08277838 20.60265493 0.00681391 0.00187361 -0.00175744
C -0.16892614 3.93879594 21.16303749 0.00481807 -0.00063791 0.00228864
C -1.58684108 8.23436966 21.51891325 -0.00373929 -0.00507323 -0.00460369
C 3.16047566 13.21579211 5.33108896 -0.00931515 0.00230267 0.00358742
C 0.31848302 18.10080840 0.96240602 0.00433748 0.00621790 0.00145664
C 6.89895294 15.55800964 0.72386586 0.00088426 -0.00517802 0.00332101
C 9.88602026 10.60670591 5.14907410 0.00614140 -0.01085097 -0.00274347
C 4.44991049 13.27143090 4.59932578 -0.00184347 0.00378630 0.00222350
C 12.27232766 17.85253931 1.58642521 0.01180371 0.00480298 0.00701216
C 5.71255027 15.75402441 1.53675099 0.00297952 -0.00048448 0.00361308
C 37.00985950 10.61292820 4.31507807 -0.00410418 -0.00090036 0.00726731
C 5.48881147 12.45426809 4.95185282 0.00127026 -0.00477519 0.00310387
C 11.34537127 16.97836821 1.10415598 -0.00084904 0.00149348 0.00079349
C 4.68563294 16.62733831 1.15494629 -0.00276406 0.00351736 -0.00607434
C -1.26581488 11.47983322 4.71873628 0.00339872 0.00555062 0.00038768
C 5.43816998 11.69100291 6.16219797 -0.00537796 0.00062646 0.00116062
C -0.47175147 16.27923375 24.30328280 0.00394650 0.00140603 0.00505818
C -7.17931778 17.41280951 24.36927311 0.00617577 -0.00407086 0.00029739
C -1.54107527 12.36514502 5.84500977 0.00049953 0.00022757 -0.00645100
C 6.82420306 11.62528270 0.53495028 -0.00447528 -0.00503357 0.01055237
C 9.75843398 16.56752798 5.40621333 -0.00060156 0.00626715 -0.00845502
C 2.82098472 17.07565232 5.43640100 -0.00357082 0.00077745 -0.00240343
C 0.29761092 12.34306401 0.39242325 0.00180625 0.00225813 0.00295211
C 5.85255441 12.49545556 0.13087991 -0.00215221 0.00015866 0.00368147
C -2.39189706 17.44437100 5.87691682 -0.00230822 0.00355061 0.00016554
C 3.92810579 16.36934150 5.86112516 -0.00379980 0.00115167 0.00518595
C 12.45428945 11.51464852 0.04324400 -0.00406679 0.00316984 0.00770532
C 1.98337406 14.59901813 3.68876212 -0.00082478 0.00809377 0.00179410
C 1.65722900 9.87628701 2.60964496 -0.00454626 -0.00350648 0.00017162
C 7.99685792 14.10271232 2.36783983 0.00762219 -0.00181734 -0.00198866
C 8.49630324 18.91113591 3.49669210 -0.00102703 -0.00004636 -0.00512293
C 0.87940821 15.58415822 3.53008171 -0.00070657 0.00231816 0.00099505
C 2.88400087 10.65771228 2.81688823 0.00620309 -0.00088304 -0.00468306
C 9.22976709 13.33980906 2.65457463 -0.00432736 0.00461910 0.00156943
C 7.37046844 17.96165265 3.23804637 -0.00355231 -0.00346494 0.00279324
C -0.01061763 13.44271089 11.14753483 -0.00410378 -0.00108725 0.00045275
C -2.61541490 18.35544951 6.91091079 -0.00147894 0.01117647 0.00424357
C 3.86837663 15.59383453 7.02746992 -0.00756166 0.00114594 -0.00249715
C 6.63060219 10.74393062 11.28336283 0.00047584 -0.00515720 0.00106328
C 1.25601052 13.40418361 10.51572238 -0.00476957 -0.00257082 -0.00549632
C 9.36073815 17.98694206 7.80810266 0.00954572 -0.00331891 -0.00138081
C 2.68545918 15.45628408 7.69153763 -0.00191942 -0.00101560 0.00111126
C 33.88475944 10.69988808 10.45244514 -0.00594817 0.00238729 -0.00232006
C 2.28313014 12.65239755 11.00876654 0.00270605 -0.00243895 0.00329059
C 8.47283279 17.04965738 7.41175752 -0.00288813 -0.00261595 0.00887620
C 1.54572903 16.12711465 7.27941877 0.00018862 0.00796182 -0.01199869
C -4.57143982 11.67969676 10.83928287 -0.00084995 -0.00149053 -0.00134906
C 2.13866822 11.86873863 12.16863042 0.00030192 0.00181609 0.00104903
C 8.59460510 16.40514303 6.13588038 0.00135002 0.00538868 -0.00124937
C 1.66938276 17.03600711 6.13716460 0.00069802 -0.00637857 -0.00168327
C -4.74435745 12.52814263 11.93479710 0.00353448 -0.00421130 0.00605299
C 4.25574833 11.65944848 6.84163615 -0.00162314 -0.00005399 -0.00210761
C 6.67401565 16.63380102 11.58308788 0.00693566 -0.00744509 0.00336105
C 0.09591244 17.43241508 11.69695034 0.00295791 0.00174099 -0.00182993
C -2.70720385 12.27511196 6.53986826 0.00830998 -0.00501498 0.00338852
C 3.14821262 12.42000557 6.46337182 -0.00755547 -0.00495183 0.00281180
C -5.33270025 17.52950564 11.77268626 -0.00648943 0.00770129 0.00013033
C 0.99828416 16.48973495 12.07551940 0.00013372 0.00674177 -0.00445880
C 9.59680283 11.42971726 6.26918823 0.00366244 0.00123282 0.00443887
C -1.19300329 14.75793945 9.54388277 -0.00192212 -0.00060070 0.00848813
C -1.42210027 9.97596180 8.46117908 0.00724705 0.00148686 0.00578705
C 5.15970176 14.48128012 8.71104505 -0.00159564 0.00824690 -0.00097272
C 5.32285291 18.95485856 9.62587220 0.00308150 0.00390038 -0.00359056
C -2.20955913 15.85416039 9.46944718 -0.00400825 0.00438203 0.00980372
C -0.36735084 10.98379278 8.66925243 0.00315029 0.00570862 0.00005092
C 6.40418066 13.74128593 8.95010472 0.00240580 0.00108437 -0.00094117
C 4.30727986 17.91572430 9.35041354 0.00866883 -0.00433397 0.00314133
C -3.00110971 13.35511833 17.20329790 0.00003142 -0.00329783 0.00061857
C -5.51772546 18.27293794 12.97513513 0.00068977 -0.00143296 0.00898514
C 0.72129004 15.72903707 13.20027819 0.00284805 0.00341148 -0.00304169
C 3.67898444 10.78772689 17.38993512 0.00194502 0.00042816 0.00180681
C -1.73795290 13.28508467 16.50712569 0.00229873 -0.00335538 0.00615144
C 6.35406315 18.11304248 13.85491930 -0.00321240 0.00729237 -0.00100912
C -0.60663290 15.79559796 13.79317943 -0.00465710 0.00211090 0.00256522
C 30.98699941 10.89849114 16.67615702 0.00729229 -0.00329104 0.00744043
C -0.67159399 12.45083796 16.86874520 0.00192231 -0.00392506 0.00527213
C 5.36689823 17.22551584 13.49186988 -0.00368146 -0.00220745 -0.00295529
C -1.45684469 16.75977440 13.40787565 -0.00490584 0.00107367 -0.00174713
C -7.44504186 11.85629666 17.13856238 -0.00261455 0.00096092 -0.00404228
C -0.86381474 11.64957304 18.00488209 -0.01140052 0.00129221 -0.00011666
C 5.47849183 16.43479959 12.33981166 0.00538923 -0.00078623 0.00720121
C -1.14365417 17.56863957 12.29040147 -0.00059168 -0.00544510 -0.00051085
C -7.76208184 12.69216144 18.26361084 -0.00126413 0.00746537 -0.00456539
C 0.76180115 11.70800874 12.66529242 -0.00313338 -0.00082305 0.00423635
C 3.49783473 16.76606257 17.67661352 0.00218188 -0.00190075 -0.00554409
C -2.91935519 17.49071499 17.63098963 -0.00147047 0.00515197 0.00525498
C -5.94487935 12.24896145 12.66267471 -0.00432794 0.00063576 0.00125709
C -0.21265391 12.47745474 12.15048873 -0.00014501 -0.00028059 -0.00514765
C -8.28287664 17.25144971 18.33544462 -0.00445516 0.00178531 0.00584842
C -2.00055039 16.54506706 17.96514384 -0.00059820 0.00352928 0.00057432
C 6.46023931 11.60769454 12.38497336 0.00215555 -0.00222797 0.00060163
C -4.27442726 14.74709129 15.66183660 0.00008255 0.00271397 -0.00209571
C -4.29944007 9.81160529 14.55910370 0.00062296 0.00074081 -0.00613320
C 1.89836908 14.31835996 14.80644247 0.00927589 0.00818583 -0.00286175
C 2.68261924 19.02994183 15.57885362 0.00107717 0.00022205 -0.00148370
C -5.55706155 15.40368489 15.62059115 0.00643144 0.00290687 0.00197465
C -2.99358918 10.58785542 14.64739083 -0.00313309 0.00052590 -0.00182649
C 3.16586233 13.41800379 14.94773962 -0.00882052 -0.00228371 -0.00113830
C 1.56562365 18.13719210 15.26107508 0.00181350 0.00499901 -0.00495027
C -5.95136586 13.32398885 23.39143252 -0.00072074 0.00710039 -0.00151101
C -8.45353630 18.17834173 19.35614105 -0.00868599 -0.00991516 -0.00109337
C -2.13950905 15.74034948 19.10946379 0.00271218 0.00167407 -0.00211133
C 0.69710621 10.58340641 23.46730414 -0.00878680 0.00687995 -0.00296862
C -4.80506396 13.22505603 22.59173940 0.00519535 0.00203054 -0.00100345
C 3.16300756 18.41272405 19.87314739 0.00170329 -0.00534224 -0.00107696
C -3.32573889 15.78045647 19.75107099 -0.00342590 0.00633329 -0.00596151
C -11.16906564 10.65822918 22.66016333 0.00282623 -0.00155435 -0.00312310
C -3.82249268 12.29196046 23.01508180 -0.00870951 -0.00299332 0.00744519
C 2.11537885 17.62421051 19.43183387 -0.00160566 -0.01062724 -0.00396462
C -4.29381277 16.68901022 19.51121839 -0.00810194 0.00098754 -0.00019593
C -10.26605218 11.54897925 23.09046594 0.00068857 -0.00302919 -0.00501882
C -3.94630493 11.60671279 24.19685754 -0.00328845 -0.00036981 -0.00235698
C 2.32240193 16.73170189 18.38716651 -0.00089018 0.00366860 0.00422188
C -4.13072458 17.64372211 18.42731400 0.00227453 -0.00758399 -0.00160722
C -10.47201406 12.28754255 24.23389289 0.00407137 0.00191871 -0.00502252
C -2.04438150 11.75946560 18.80170852 0.00546956 -0.00201647 0.00584047
C 0.66875484 16.61343257 23.50018797 -0.00076196 0.00055276 -0.00207167
C -6.03238870 17.23687581 23.59604687 -0.00057656 -0.00308497 -0.00507379
C -8.91084086 12.43845478 18.96385054 -0.00347085 0.00447411 -0.01083982
C -3.08717053 12.52151599 18.38324604 0.00257159 -0.00300470 0.01372752
C -11.41696103 17.36454266 24.21738028 0.00143653 0.00457643 0.00575806
C -5.03873226 16.27812439 23.97067816 -0.00482554 0.00465614 -0.00629361
C 3.58039061 11.38078775 18.67195169 0.00238696 -0.00004657 -0.00171311
C -7.13679661 14.74524965 21.91044049 -0.00149417 -0.00324352 0.00006357
C -7.58972787 9.92670073 20.65303416 0.00356036 0.00365429 0.00214233
C -1.00923561 14.35917838 20.78379807 -0.00553552 0.00185884 -0.00476447
C -0.37127174 19.26445763 21.79451921 -0.01115723 0.00013899 -0.00692094
C -8.45777422 15.44754129 21.60608357 -0.00128386 -0.00213755 0.00041878
C -6.43420664 10.86999635 20.88054769 0.00025194 -0.00606037 0.00383959
C 0.19139899 13.46808211 21.08663991 -0.00285569 0.00393397 -0.00232645
C -1.65190603 18.53303658 21.73593388 -0.00525114 -0.00366931 0.00343119
C 2.87185613 23.13828644 5.03637613 0.00094228 0.00178913 -0.00578068
C 0.52555177 27.90143247 0.95736500 -0.00145065 0.00707287 -0.00742391
C 6.97475409 25.29342673 0.87046246 0.00031945 0.00874996 0.00628809
C 9.66049135 20.22723246 5.18449069 -0.00484756 -0.00455797 -0.00048615
C 4.10563210 22.99186847 4.39180674 -0.00072248 -0.00005109 0.00720623
C 12.10730345 27.76256182 1.77632073 0.00037955 0.00445359 0.00239521
C 5.78618810 25.44556950 1.58670656 0.00149836 -0.00130133 0.00318841
C 37.13570208 20.41131799 4.37099525 0.00380534 0.00129395 -0.00203572
C 5.00247538 21.93368517 4.69555566 0.00149190 -0.00078936 -0.00546960
C 11.15087363 26.89884032 1.42630441 0.00559462 0.00704343 0.00671413
C 4.87036526 26.40961877 1.19398286 0.00354877 -0.00012414 0.00152017
C -1.18824099 21.31223754 4.73852210 -0.00423659 -0.00115345 -0.01164303
C 4.80715166 21.08669103 5.77516984 0.00145143 -0.00849488 -0.00053220
C 11.26218209 26.06179620 0.25453894 0.00032337 -0.00519419 -0.00198392
C -6.93150079 27.18294921 24.38981807 -0.00114185 -0.00147015 0.00229366
C -1.40597801 22.10807319 5.90287430 -0.00443827 0.00095311 0.00105674
C 6.77521187 21.39344171 0.53341473 0.00439124 -0.00373402 -0.00194718
C 9.72784779 26.35097061 5.48310337 -0.00233451 -0.00106507 -0.00405761
C 3.28195707 26.82181077 5.40183459 0.00787038 -0.00077608 0.00181768
C 0.45637955 22.01411969 0.76942261 0.00254292 0.00075856 0.00464103
C 5.78102904 22.24789007 0.08302856 0.00509763 -0.00272646 0.00423153
C -2.33902865 27.15195245 6.00349768 0.00231995 0.00661659 -0.00534184
C 4.22757340 25.86705561 5.79459649 0.00006860 -0.00805923 -0.00006428
C 12.76913182 21.33942344 0.23466263 0.00100337 0.00275835 0.00000869
C 1.72796315 24.59112254 3.40212057 -0.00684605 -0.00340372 0.00293095
C 1.45141506 19.43194359 2.64502130 0.00026417 0.00141195 0.00260983
C 8.13168579 23.81007925 2.42513339 -0.00394819 0.00186573 0.00318510
C 8.31736089 28.73702948 3.56914117 0.00099565 -0.00313768 0.00255471
C 0.50755768 25.35068113 3.09698636 0.00228204 0.00174841 0.00312628
C 2.64016180 20.36750973 2.92682421 -0.00443648 0.00051902 -0.00247323
C 9.33761167 22.96523359 2.59602629 -0.00126412 0.00314883 -0.00035175
C 7.08782182 27.87337600 3.33968170 0.00139348 -0.00072569 0.00033168
C 0.10565528 23.10463572 11.12081833 0.00877969 -0.00083832 0.00319642
C -2.59864854 28.02496509 7.10783695 -0.00023930 -0.00104933 -0.00454746
C 3.92122375 25.10357079 6.95377445 -0.00153060 -0.00177333 0.00227456
C 6.50363428 20.24825011 11.23159665 0.00246411 0.00194073 0.00023175
C 1.36689075 22.91307326 10.46416417 0.00587022 -0.00045618 -0.00240394
C 9.15518281 27.71602068 7.79049324 -0.00343690 0.00297245 -0.00948723
C 2.75491522 25.30242044 7.69162369 -0.00569013 -0.00442795 0.00217939
C 34.17811682 20.67878068 10.40817750 -0.00074607 -0.00532445 -0.00386799
C 2.22874780 21.95588624 10.87769393 0.00425475 0.00303175 0.00162867
C 8.20597320 26.88066138 7.24490160 -0.00145660 0.00389141 0.00675143
C 1.77973752 26.25334551 7.23713185 0.00349866 0.00690803 -0.00653738
C -4.19813929 21.62885400 10.79073660 0.00108426 0.00186137 -0.00467814
C 1.93668491 21.21132289 12.11280602 -0.00361988 0.00586858 -0.00470794
C 8.52475665 26.09227445 6.16571641 0.00172285 -0.00450681 -0.00671808
C 2.10591542 27.06784404 6.18650025 0.00608433 0.00031278 0.00400634
C -4.38701283 22.35946558 11.98852995 0.00274256 -0.01070612 0.00263338
C 3.58980207 21.30550982 6.45609805 -0.00606363 0.00430459 -0.00175223
C 6.66405813 26.04813678 11.83086414 0.00480136 0.00367883 0.00643521
C 0.49234131 27.09265031 11.82267980 -0.00160846 -0.00276049 -0.00292073
C -2.66821135 22.04687827 6.53523813 -0.00408548 -0.00479600 -0.00397018
C 2.62995550 22.26375481 6.07437638 -0.00001430 -0.00699465 0.00165648
C -5.19918213 26.99402391 11.78295347 -0.00191849 -0.00038346 -0.00180047
C 1.39239204 26.10379346 12.20157092 -0.00668562 0.00176799 0.00659208
C 9.40562888 21.04921152 6.32070140 0.00247250 0.00938768 -0.00890568
C -0.97478354 24.55311934 9.58671231 0.00751663 -0.00331979 -0.00196098
C -1.42913064 19.83448244 8.46322837 -0.00138886 -0.00239220 0.00266228
C 5.15685443 23.90560694 8.62041363 0.00655612 -0.00373835 0.00513767
C 5.50465621 28.63935430 9.73112529 0.00125856 0.00134225 0.00484152
C -2.09675672 25.55247992 9.31793462 -0.00427184 -0.00144024 0.00591662
C -0.05019246 20.49602937 8.67153256 0.00087360 0.00189175 0.00814980
C 6.18408902 22.82257895 8.84025099 0.00814921 0.00588856 -0.00298625
C 4.24044258 27.79782381 9.53170168 0.00835130 -0.00656066 0.00113397
C -2.82867896 23.16991012 17.32416401 -0.00430218 -0.00201831 -0.00399388
C -5.28575574 27.83395903 12.89083455 0.00834178 0.00243720 -0.00121663
C 1.05920101 25.24461216 13.24890613 0.00589136 0.00522859 -0.00011581
C 3.61182515 20.48650458 17.30187219 0.00332861 0.00382775 0.00140848
C -1.61480042 23.12508215 16.56965282 0.00216094 0.00914152 0.00235296
C 6.42472718 27.73305721 13.91419777 0.00235747 0.00055810 -0.00348042
C -0.15469240 25.36457219 13.87251152 -0.00795861 -0.00712103 0.00211513
C -8.12288770 20.57735875 16.58402589 -0.00546934 -0.01065935 -0.00161380
C -0.56601019 22.28587079 16.84840053 -0.00589211 -0.00376514 0.00815472
C 5.37355505 26.87614487 13.61957401 0.00812558 0.00039457 -0.00453418
C -1.10461358 26.29158172 13.50448409 -0.00178849 -0.00102091 -0.00368276
C -7.14047481 21.40667998 17.05911189 -0.00316604 -0.00490104 0.00173062
C -0.65877914 21.42332605 17.95969121 0.00085297 -0.00034742 -0.00392124
C 5.46683346 26.06549881 12.49925967 0.00863719 0.00272204 0.00315004
C -0.76443792 27.20846577 12.45338031 0.00121770 -0.00173179 0.00214462
C -7.24947525 22.20535531 18.18358716 0.00494929 -0.00295514 0.00213219
C 0.73001994 21.44453877 12.77059006 0.00335428 0.00135647 -0.00490170
C 3.53360530 26.02368805 17.80152632 -0.00555710 0.00002258 0.00060510
C -2.88271317 26.95523616 17.67680717 0.00070509 0.00559270 0.00055721
C -5.56425627 22.13767171 12.69315885 -0.00339454 -0.00206988 0.00085309
C -0.21873723 22.34668631 12.23612177 -0.00180716 -0.00291045 0.00194274
C -8.44062601 26.89469548 18.07606764 0.00320699 0.00581466 0.00553395
C -1.90358293 26.18070697 18.24474602 -0.00013074 0.00046362 -0.00625475
C 6.41273516 20.98158564 12.44240577 -0.00169184 0.00721495 -0.00088208
C -4.27408034 24.49036008 15.68455548 -0.00635400 0.00123450 -0.00317022
C -4.41755271 19.54736159 14.67881144 0.00087630 -0.00138557 0.00536714
C 2.24045312 23.86977470 14.78544438 -0.00540171 0.00909086 -0.00427901
C 2.36613885 28.67036383 15.98496045 0.00113761 -0.00023677 -0.00488582
C -5.67085095 25.13598657 15.65752487 0.00161910 0.00191488 -0.00033024
C -3.36541082 20.53278652 15.02497274 0.00298497 -0.00547216 -0.00195137
C 3.23561171 22.74466347 14.97357253 -0.00645648 0.01311625 0.00425856
C 1.19526966 27.78675588 15.82819287 0.00111559 -0.00805430 -0.00426494
C -5.90611778 23.13785602 23.46302139 0.00641559 -0.00395120 0.00486894
C -8.55776002 27.70800916 19.21139139 -0.00363774 0.00933769 -0.00031488
C -2.16121050 25.34941596 19.35383384 0.00359649 -0.00421156 0.00339878
C 0.89234706 20.60826708 23.47142477 0.00757854 -0.00286465 0.00314322
C -4.74786071 22.96023577 22.72869645 -0.00136061 -0.00575875 0.00506318
C 3.30412537 27.49131176 20.14920558 -0.00141629 0.00377544 -0.00226963
C -3.44345194 25.36785592 19.86681775 0.00290767 -0.00791954 -0.00226306
C -11.16480411 20.42853370 22.93217176 -0.00407091 0.00714316 0.00374529
C -3.77153772 22.09775720 23.20590383 0.00317475 0.00279899 0.01297070
C 2.28801619 26.68898230 19.74803772 0.00375372 -0.00194743 0.00325455
C -4.33321956 26.26277259 19.37821858 0.00061146 0.00471716 -0.00383887
C -10.19219177 21.35679946 23.29832460 -0.00008585 -0.00110561 -0.00572842
C -3.97414100 21.33447962 24.34495524 0.00056636 0.00263174 0.00273693
C 2.36727505 25.97990623 18.54572488 -0.00134358 -0.00422768 0.00810191
C -4.15665797 26.99294342 18.17922052 -0.00286293 -0.00885503 -0.00502139
C -10.47298432 22.26489564 24.35552561 0.00223389 -0.00385248 -0.00351334
C -1.79187065 21.52854295 18.82014279 0.00069776 0.00069052 0.00146021
C 0.41119112 26.07921591 23.89838751 -0.00390653 -0.00108283 0.00242788
C -5.76265820 27.01289104 23.65978916 0.00429292 0.01162128 0.00149708
C -8.48183252 22.23457111 18.78133240 0.00016589 0.00211534 0.00320178
C -2.85769829 22.33516715 18.45623707 -0.00396250 0.00632320 0.00337408
C -11.38502476 27.05519899 24.28238801 0.00009503 0.00499360 -0.00253339
C -4.83811521 26.11396500 24.10227166 0.00079719 -0.00867745 0.00020393
C 3.40369820 21.19168426 18.47678842 0.00353815 -0.00217981 0.00322934
C -6.98211636 24.62326819 21.81297259 -0.00039781 0.00471008 0.00984638
C -7.41996158 19.63454587 20.89186493 0.00442052 -0.00334414 0.00017434
C -1.02163017 23.94708068 20.98816694 0.00386410 -0.00086423 -0.00472461
C -0.45142200 28.64776069 21.63332278 0.00378649 0.00049266 0.00150413
C -8.22377569 25.37164117 21.55267932 0.00283375 0.00303883 -0.00719405
C -6.14331468 20.38686805 21.03982049 0.00178524 -0.00111556 -0.00443986
C 0.16474871 23.09150111 21.25092936 -0.00462846 0.00092653 -0.00160625
C -1.74102827 27.91696425 21.33312407 0.00622998 0.00294594 0.00180099
C 16.23620121 3.66166071 5.18803852 0.00088113 -0.00105733 0.00118293
C 13.60194247 8.54579035 1.22426121 -0.00101036 0.00193803 -0.00584381
C 20.09525342 5.96281878 1.03899622 0.00008281 -0.00223299 -0.00969305
C 22.74818860 1.05648322 5.11559022 -0.00832950 0.00042873 -0.00330063
C 17.48448679 3.57343864 4.60211930 -0.00078658 0.00525659 -0.00076253
C 25.42867757 8.26534625 1.50851823 0.00171234 -0.00895660 -0.00418676
C 18.97923266 6.16410287 1.87090615 -0.00383567 -0.00245820 0.00423337
C 10.75031990 1.28386867 4.46373961 0.00060824 0.00312013 0.00342133
C 18.38262875 2.61848499 5.06432157 0.00649729 -0.00241965 -0.00945222
C 24.56479863 7.30120266 1.04210883 0.00632324 0.00256228 -0.01040632
C 17.98487948 7.03825267 1.50160269 0.00601234 -0.00480683 0.00238675
C 11.71390718 2.14950885 4.90939672 0.00107838 -0.00057222 -0.00455096
C 18.12784729 1.94716100 6.27500775 -0.00658020 -0.00500942 -0.00011697
C 12.71773416 6.66207015 24.19595819 0.00505035 0.00808802 0.00050743
C 18.06509293 7.75629437 0.31918216 -0.01138192 0.00240028 0.00448978
C 11.52553201 3.07382309 5.93850024 -0.00302957 -0.00080572 0.00726420
C 20.19390618 2.03312624 0.65589653 -0.00186863 -0.00983425 -0.00680185
C 22.86967456 7.02579119 5.38053583 -0.00593882 0.00617878 -0.00353122
C 16.37310481 7.68289890 5.65494431 0.00405450 -0.00374251 -0.00748310
C 13.46402348 2.65587599 0.62722963 0.00106007 -0.00269845 0.00151200
C 19.12034135 2.77696178 0.24923633 -0.00504320 0.00570941 0.00414479
C 11.01310512 7.77411977 6.13559846 -0.00570002 -0.00156113 0.00195431
C 17.32887762 6.83305394 6.14796283 0.01598129 -0.00301117 0.00202260
C 13.63652264 1.83095052 24.36638260 0.00059277 -0.00099767 -0.00540964
C 15.28178629 5.18259450 3.59153899 0.00348991 0.00448600 0.00293933
C 14.77558208 0.14012035 2.44477610 -0.00005090 0.00332813 0.00327524
C 21.33624828 4.52147229 2.58988692 0.00518833 0.00505528 0.00010863
C 21.57416025 9.37728898 3.50180158 0.00056534 -0.00262012 0.00355355
C 14.28395912 6.27211268 3.39095856 -0.00622796 0.00468188 -0.00072119
C 16.15846939 0.77195624 2.46905297 0.00715644 0.00209306 0.00410900
C 22.58249129 3.67151878 2.67786913 0.00494076 0.00184712 -0.00401782