2880
Time=89000.00000004 pbc="T T T" Lattice="39.17660075 0.00000000 0.00000000 0.00000000 28.84387200 0.00000000 -12.02390763 0.00000000 24.38510710" energy=-18397.35028362 virial="12.27578216 30.39018322 -25.51725467 30.39018322 3.90153817 19.90824755 -25.51725467 19.90824755 -4.41701211" stress="0.00307515 0.00115227 -0.00095327 0.00115227 0.00262242 0.00072609 -0.00095327 0.00072609 0.00228831" Properties=species:S:1:pos:R:3:vel:R:3
C 3.17838582 3.88017955 5.21801227 -0.00004272 -0.00004846 0.00397624
C 0.30759717 8.43818900 0.89541630 0.00321050 -0.00158300 -0.00564821
C 7.07706645 5.89686090 1.03639305 -0.00343472 -0.00278821 -0.00300654
C 9.83901362 1.38169756 5.37281372 -0.00220883 0.00423641 0.00252609
C 4.40750655 3.72645418 4.53343515 -0.00262416 -0.00195542 -0.00630778
C 12.08499915 8.43094415 1.55946806 0.00472668 -0.00112624 0.00491005
C 5.93766293 6.05376621 1.80186355 0.00236834 0.00061890 0.00058552
C -2.07935271 1.35586759 4.56690209 0.00005026 -0.00193258 -0.00242673
C 5.41073616 2.90375085 5.02080714 -0.00378428 0.00541320 -0.00298175
C 11.08723941 7.57984843 0.99772993 0.00105200 0.00242320 -0.00376468
C 4.98262910 6.97788634 1.41554541 0.00309184 -0.01040988 0.00026399
C -1.12027113 2.29966966 4.96485581 0.00075171 0.00186814 0.01061470
C 5.22612256 2.10358054 6.16519531 0.00143788 0.00457880 -0.00245334
C -0.79558996 6.86048733 24.18700603 0.00065274 -0.01160445 0.00267624
C 5.04915521 7.70847859 0.20307264 -0.00536025 0.00411974 0.00121374
C -1.30951421 3.01734037 6.18728622 0.00044487 0.00025087 0.00413440
C 6.84662239 1.88600049 0.79347055 -0.00478672 0.00123728 0.00579349
C 9.85427254 6.73181552 5.62179231 -0.00539632 0.00086667 -0.00109714
C 3.13031960 7.98272845 5.68790956 0.00045789 0.00383216 -0.00874255
C 0.63819006 2.87625142 0.76082763 -0.00233184 -0.00315766 -0.00402387
C 5.94336990 2.81094321 0.32449104 0.00035034 0.00171032 0.00516236
C -2.50325784 7.68307162 5.96399022 0.00126307 -0.00234018 0.00668951
C 4.11583356 7.11743845 5.99182655 0.00372227 -0.00353597 -0.00350570
C 12.46676894 1.49060657 0.35968130 0.00795384 0.00607478 0.00153460
C 2.11692795 5.39872111 3.68582464 -0.00421177 -0.00052854 -0.00053391
C 1.66650308 0.44046175 2.68233664 -0.00552616 -0.00243844 -0.00868547
C 8.24486579 4.65739308 2.70018488 -0.00569963 0.01037072 0.00524549
C 8.47125931 9.37029903 3.65275652 -0.00091377 0.00744550 0.00427991
C 0.94914920 6.31340095 3.38410954 0.00079578 0.00282604 -0.00460320
C 2.78936206 1.35010395 2.82355933 0.00115716 -0.00276907 0.00037192
C 9.62327498 4.11012500 2.96110148 0.00142202 0.00218064 0.00260520
C 7.31657994 8.34238428 3.54032394 -0.00141811 -0.00336004 -0.00543517
C 0.26885726 3.72875063 11.35738937 0.00772636 -0.00401664 0.00269500
C -2.71387746 8.47900399 7.08313542 0.00674301 -0.00404831 0.00720767
C 3.93873987 6.15190744 7.01838153 0.00202101 -0.00203107 -0.00663948
C 6.77940295 1.03749712 11.24272993 -0.00015367 -0.00421459 0.00461787
C 1.54935266 3.80549282 10.69628955 0.00044212 -0.00294032 -0.00099277
C 9.49592987 8.54308009 7.70197944 -0.00540950 0.00636119 0.00285402
C 2.72864869 6.20841094 7.72050565 0.00547803 0.00006393 0.00528498
C -5.23333771 1.31214843 10.64360182 -0.00690724 0.00314997 0.00356894
C 2.52802999 2.88243696 11.08555296 0.00075951 0.00854094 0.00028145
C 8.42817742 7.66791926 7.33837090 0.00429040 0.00155400 -0.00210038
C 1.72109796 7.10142785 7.45556469 -0.00602026 0.00555673 -0.00261179
C -4.21156953 2.16813729 11.05142787 0.00223009 -0.00220050 0.00234627
C 2.30992694 2.02071008 12.17731659 -0.00101314 0.00266776 0.00154739
C 8.59702998 6.82162985 6.25385216 -0.00280599 0.00192695 0.00084054
C 1.87534213 7.97197171 6.33356273 -0.00901569 -0.00045445 -0.00641589
C -4.29138725 2.97260126 12.18069113 -0.00774911 -0.00657030 -0.00079479
C 3.99067076 2.33575700 6.85538210 0.00186105 -0.00425543 0.00206821
C 6.73637546 6.72417631 11.75387292 -0.00188220 -0.00417537 0.00264954
C 0.19124652 7.47532772 11.98549761 0.00089845 -0.00891343 -0.01006407
C -2.56788229 2.86933245 6.78604429 -0.00447289 0.00037621 -0.00410659
C 2.97442089 3.16224459 6.44109878 0.00152539 -0.00055862 0.00190382
C -5.58511571 7.68144911 11.90320061 0.00041719 -0.00000093 -0.00021752
C 1.19123093 6.60597276 12.43901586 -0.00508220 -0.00352674 -0.00206903
C 9.68294017 2.07176476 6.57087972 0.00512581 -0.00304780 -0.00217809
C -0.79293591 5.24278159 9.80373160 -0.00625731 0.00586826 -0.00217164
C -1.54141934 0.54695379 8.83631433 0.00153522 -0.00175303 -0.00119037
C 5.17333993 4.87476618 8.58345477 -0.00003373 -0.00103440 0.00116363
C 5.44626619 9.31399384 9.73110132 0.00398372 0.00572857 0.00771032
C -1.97518183 6.09867780 9.51292120 -0.00018625 -0.00221886 0.00547795
C -0.45038116 1.47945278 9.08491550 0.00731033 -0.00390912 -0.00324999
C 6.44920192 4.15156504 8.97102458 0.00338798 -0.00164212 0.00131160
C 4.23523760 8.48093587 9.73560881 -0.00167091 0.00158204 -0.00570045
C -2.91359629 3.84666690 17.39981556 -0.00139508 -0.00457734 -0.00310440
C -5.76804872 8.51860983 12.99229265 -0.00169655 0.00685360 0.00154523
C 0.93839905 5.77642241 13.55656055 0.00192763 0.00470359 0.00133697
C 3.51879227 0.89054542 17.35848621 0.00034272 -0.00406923 -0.00251249
C -1.76454139 3.62536288 16.67940027 -0.00906870 0.00481770 -0.00140953
C 6.37410733 8.40343940 13.99199431 0.00124638 -0.00209016 -0.00037218
C -0.28663267 5.94823339 14.26039668 0.00025075 0.00035001 0.00102552
C -8.04775123 1.22819805 16.87876037 0.00663128 0.00692159 -0.00597503
C -0.89288866 2.59561779 16.95553594 0.00122696 0.00742898 -0.00018007
C 5.45894405 7.43402510 13.66691796 -0.00335668 -0.00020896 0.00113845
C -1.27352638 6.81083754 13.70299849 0.00330948 -0.00504038 0.00338820
C -7.10231761 2.12640067 17.34736001 -0.00694072 -0.00245026 0.00300171
C -1.08578503 1.74826358 18.01844383 0.00149618 -0.00285280 0.00601841
C 5.58847166 6.56374258 12.55897738 0.00022187 0.00075624 0.00215694
C -1.09222663 7.51055484 12.51306068 -0.00135895 0.00618553 -0.00267840
C -7.23964661 3.00716563 18.45733923 0.00064786 0.00201426 0.00378499
C 1.06179229 2.00572987 12.81539447 0.00142097 0.00291984 -0.00049074
C 3.76454225 6.66680973 17.83424606 0.00438289 0.00498974 0.00986021
C -2.57242415 7.64077884 17.92814673 0.00488507 0.00344855 0.00545853
C -5.59985885 2.90893814 12.84039342 -0.00261545 0.00220080 0.00757723
C 0.03020286 2.79799133 12.41467101 -0.00113574 0.00484924 -0.00370261
C -8.42367641 7.53118525 18.34407691 -0.00185298 0.00057480 -0.00702229
C -1.68942972 6.65026424 18.24633983 0.00071030 0.00013655 0.00251144
C 6.58719725 1.89464743 12.41700017 -0.00352631 -0.00276032 0.00257112
C -4.11140618 5.16521237 15.86791932 0.00587657 0.00196241 -0.00097853
C -4.53732569 0.23903809 14.81783043 -0.00182835 0.00067851 0.00519399
C 1.94124005 4.41007232 15.13300377 -0.00314291 -0.00071618 0.00255061
C 2.69077590 9.63143611 15.83658661 0.00333187 -0.00059973 -0.00143333
C -5.29644384 6.03199120 15.70601521 -0.00376174 -0.00389835 -0.00226006
C -3.26686588 0.95219571 14.99393092 -0.00556836 0.00271320 -0.00314893
C 2.97655976 3.38552328 15.35789455 -0.00308077 -0.00140568 -0.00600339
C 1.52113710 8.69608318 15.63984100 -0.00183117 0.00034121 0.00179212
C -5.87060918 3.64015617 23.66111474 0.00169912 -0.00574909 0.00040785
C -8.63824743 8.42138753 19.44458180 -0.00247507 0.00115282 0.00149892
C -1.98514027 5.81805693 19.37545966 0.00234606 -0.00044879 0.00287429
C 0.63461678 0.77642257 23.53941288 0.00266155 0.00176127 0.00258632
C -4.71514294 3.51120448 22.84576268 -0.00661866 -0.00712099 -0.00081323
C 3.23295078 8.46265364 19.93044043 0.00601819 -0.00727322 -0.00411344
C -3.21387010 5.99373439 20.08675628 -0.00060662 -0.00222495 -0.00359302
C -11.03301264 1.34280324 22.87360844 -0.00373512 0.00561898 -0.00542439
C -3.78768152 2.58101988 23.30039527 0.00139866 0.00153800 -0.00165206
C 2.27020346 7.57236716 19.55593956 -0.00432460 0.00233135 0.00228263
C -4.12159396 6.87171967 19.59085951 -0.00743338 0.00097722 -0.00627196
C -9.97316470 2.12472172 23.34776230 -0.00689231 0.00450181 -0.00078422
C 8.01794550 1.80763920 0.07380946 0.00432275 0.00679182 -0.00372630
C 2.47242132 6.63763053 18.48701758 -0.00046842 -0.00596904 -0.00279655
C -3.81069892 7.81485383 18.58684121 -0.00455565 -0.00017562 0.00006671
C 1.85785871 2.90409814 0.11858281 0.00112715 0.00290689 0.00207233
C -2.20662057 1.93404948 18.83641166 0.00041998 0.00122247 0.00251478
C 0.49890365 6.89395205 23.62244042 -0.00627278 0.00027069 0.00212519
C -5.79085282 7.57390619 23.79367504 -0.00321805 0.00495954 -0.00324664
C -8.49981053 3.02473634 19.07346033 -0.00029150 0.00862464 0.00334164
C -3.08080928 2.96496603 18.48198221 0.00093537 -0.00618257 0.00565402
C -11.45641843 7.38530246 24.30769427 -0.00371509 0.00413310 -0.00107129
C -4.78005185 6.67945975 24.24290142 -0.00312671 -0.00417539 0.00696309
C 3.25754240 1.77395651 18.40857084 0.00870619 0.00047621 0.00012495
C -7.15386778 5.03454167 22.17145466 0.00048038 0.00321612 0.00006589
C -7.21472144 0.40321894 20.91030574 0.00420323 -0.00173153 -0.00671288
C -1.05955661 4.16935905 20.74725936 -0.00584704 -0.00455447 -0.00016403
C -0.45321053 9.22014073 21.88763114 -0.00360051 0.00828534 -0.00168760
C -8.36152277 5.93810350 21.97068539 0.00411890 -0.00642687 0.00404322
C -5.93622594 1.27590502 20.91725204 0.00196378 0.00383085 -0.00049910
C 0.17466795 3.41725599 21.09395251 0.00018771 0.00594444 0.00097503
C -1.78662361 8.54107731 21.70469731 -0.00159017 -0.00216095 -0.00803763
C 3.19847718 13.26728410 4.98917661 -0.00195902 -0.00237965 0.00477312
C 0.27446964 18.20805528 1.07267372 -0.00685174 0.00454644 -0.00329777
C 6.92301128 15.54979678 0.89485418 0.00226206 -0.00210976 0.00189228
C 9.66907742 10.84752805 5.07720862 -0.00083275 0.00097276 -0.00585251
C 4.41566706 13.18624502 4.35970031 0.00045716 -0.00039379 -0.00000440
C 12.01879987 18.04201641 1.50226046 -0.00058502 -0.00124223 0.00102758
C 5.71716006 15.75189362 1.69431303 -0.00040655 0.00407577 -0.00228162
C -2.05929046 10.69777325 4.45444726 -0.00285397 0.00480762 -0.00725433
C 5.42834352 12.36711115 4.74508946 -0.00596525 0.00061226 -0.00114257
C 11.00116616 17.25635198 1.01637465 -0.00300773 -0.00271836 0.00336893
C 4.77051079 16.66373161 1.26991263 -0.00596817 0.00325970 -0.00737501
C -1.08185155 11.55473426 4.84308373 -0.00022665 -0.00631960 -0.00415372
C 5.29154503 11.64351605 5.95021611 -0.00017428 0.00685528 0.00295843
C -0.66578283 16.41689563 24.32734352 -0.00160256 -0.00203997 0.00358628
C 4.95565398 17.37160440 0.06522168 0.00730743 -0.00703094 0.00520305
C -1.26780373 12.30968813 6.00838454 -0.00350940 -0.00387427 0.00019865
C 7.07623991 11.66351715 0.62390419 -0.00359069 0.00195044 -0.00023253
C 9.57907176 16.28986676 5.44090435 -0.00825753 -0.00776455 -0.00231657
C 2.84268922 17.09132507 5.53709198 0.00612701 -0.00055386 -0.00427670
C 0.45169040 12.34450234 0.42592315 -0.00455089 0.00036613 -0.00385927
C 6.08098292 12.48896570 0.16209666 0.00210065 0.00459487 0.00152200
C -2.47199436 17.44742649 6.01306829 -0.00701646 0.00341523 0.00275961
C 3.85858388 16.24337916 5.91078197 -0.00048602 0.01386524 0.00718501
C 12.59284226 11.74994340 0.14530552 -0.00402829 -0.00040255 -0.00111916
C 1.86384730 14.52212143 3.34545368 -0.00316318 -0.00623523 0.00264864
C 1.41293535 9.93979683 2.36406352 -0.00026998 -0.00208035 -0.00116721
C 8.12677550 14.05735371 2.29697515 0.00272570 0.00614333 -0.00032695
C 8.52238299 18.85139751 3.49125812 -0.00056937 0.00045031 0.00094329
C 0.61029939 15.28019342 3.23576991 0.00707370 0.00398671 0.00199824
C 2.61935637 10.84384827 2.48205893 -0.00165304 -0.00843580 0.00589959
C 9.41800179 13.37485443 2.52010622 0.00222088 0.00566705 -0.00007991
C 7.33639087 17.93603665 3.41566692 0.00463648 -0.00252043 -0.00227533
C -0.05017265 13.36716261 11.33853087 0.00500609 -0.00357440 -0.00545451
C -2.69306773 18.25184426 7.12748131 0.00121268 0.00207858 -0.00238440
C 3.81178574 15.58935726 7.12961483 -0.00750556 -0.00203705 0.00109835
C 6.70418869 10.75011919 11.18146381 -0.00157536 0.00463107 0.00282163
C 1.10221357 13.11658689 10.63070283 -0.00088924 0.00340136 0.00193844
C 9.10797481 18.06701631 7.49240773 0.00226308 -0.00188387 -0.00624755
C 2.70984128 15.68008384 7.98013853 -0.00701340 0.00469557 -0.00075341
C 33.87951511 10.90702701 10.48571022 0.00512575 0.00391133 0.00783292
C 2.11428761 12.26686061 11.05270045 0.00161357 0.00542767 0.00647934
C 8.16666460 17.13932757 7.15132230 0.00191972 -0.00721472 0.00004404
C 1.64224923 16.46535711 7.61602624 0.00306778 -0.00232387 0.00383763
C -4.39854200 11.83565135 10.96651050 -0.00298451 -0.00477750 0.00330460
C 1.89846253 11.46898032 12.24243102 0.00922764 0.00626753 0.00022730
C 8.27218652 16.40437663 6.02090454 -0.00634625 -0.00553333 -0.00834077
C 1.70408211 17.21843025 6.40354654 0.00337293 0.00451276 -0.00863518
C -4.63016721 12.67205000 12.10163477 -0.00594568 0.00242313 -0.00203179
C 4.03881395 11.80467766 6.67176275 -0.00102424 0.00269469 -0.00251160
C 6.85515711 16.25156931 11.68368480 -0.00220670 -0.00220982 0.00445767
C 0.23806595 17.26040100 11.81417086 -0.00394900 0.00092223 -0.00215471
C -2.47859754 12.29748343 6.70564728 -0.01041729 0.00318366 0.00070135
C 2.96410815 12.48295825 6.12184989 0.00158345 0.00326896 0.00794631
C -5.52774402 17.25001778 12.24393416 0.00204838 -0.00256871 -0.00111572
C 1.18093915 16.34514146 12.21227099 -0.00545514 -0.00199777 -0.00162963
C 9.57242583 11.70206612 6.18469028 0.00648431 -0.00423421 -0.00123091
C -1.01688012 14.83673053 9.78420052 0.00358539 -0.00244794 0.00060890
C -1.32362807 9.71607226 8.74369581 -0.00084663 -0.00228487 -0.00157092
C 5.20123997 14.18090868 8.45549898 0.00001733 0.00161895 -0.00255269
C 5.54924642 18.74280400 9.47219156 0.00424387 0.00316528 0.00418936
C -2.11282394 15.81935034 9.51028304 -0.00739052 0.00891054 -0.00194159
C -0.03578309 10.54357774 8.87811826 0.00118416 -0.00202863 -0.01076571
C 6.35710183 13.17863279 8.43041980 -0.00689161 -0.00418158 -0.00113707
C 4.65915925 17.62595633 9.27368114 0.00990672 -0.00310392 -0.00271579
C -2.80155627 13.10784871 17.37636791 0.00335002 -0.00424988 -0.00640794
C -5.78039499 18.10175379 13.29226902 -0.00773149 -0.00416693 -0.00283641
C 1.02920068 15.39379222 13.24123541 0.00072195 0.00377181 0.00029339
C 4.02442315 10.84857689 17.45085387 0.00288205 0.00159653 0.00322303
C -1.52687422 12.95920146 16.69216487 0.00066143 0.00757382 -0.00745051
C 6.28551471 17.96448709 13.81635700 0.00957657 0.00238715 -0.00306940
C -0.20683462 15.46358482 13.93901176 -0.00096235 -0.00035936 0.00216095
C 30.97102440 10.61320134 16.54465457 0.00905121 -0.00212309 0.00086796
C -0.55773103 12.13420295 17.17699681 0.00137799 0.00292601 0.00007929
C 5.37566114 17.01986345 13.35753429 -0.00210357 -0.00378370 -0.00201882
C -1.14684687 16.44017784 13.61829717 -0.00374267 -0.00315646 -0.00833731
C -7.18171441 11.40286866 17.03371832 0.00855812 0.00115571 0.00092511
C -0.72893211 11.44128064 18.42943552 -0.00304416 0.00287609 -0.00375253
C 5.65090081 16.10457995 12.35069646 -0.00545934 -0.00012685 -0.00224089
C -1.01772714 17.29541292 12.46597614 0.00567399 -0.00490387 -0.00321077
C -7.34367215 12.23862737 18.18319029 0.00877819 0.00176233 0.00237140
C 0.56115052 11.54614610 12.83194102 0.01171162 -0.00215544 -0.00214623
C 3.82121018 16.55084906 17.60920879 -0.00645460 -0.00211319 -0.00241451
C -3.01004650 17.17405467 17.53094565 0.00184664 -0.00629242 -0.00100850
C -5.88690846 12.53804294 12.70907264 -0.00212485 -0.00019584 0.00027993
C -0.31129649 12.47901373 12.41612093 0.00074325 -0.00221825 -0.00404258
C -8.43684661 17.18382399 18.30950818 0.00131470 -0.00168680 0.00422940
C -1.96737055 16.36473506 17.91682734 -0.00567968 -0.00005611 -0.00383814
C 6.49906355 11.62668800 12.26127728 0.00173204 0.00213433 -0.00292362
C -3.98783205 14.52069938 15.73829119 0.00079482 0.00448249 -0.00380799
C -4.46314127 9.70471420 14.64369317 0.00345558 0.00523311 -0.00110291
C 2.23020247 13.90432664 14.83411406 0.00317325 0.00088522 -0.00732902
C 2.38253512 18.95549075 15.68656456 0.00079874 0.00231658 0.00036541
C -5.19351959 15.42113091 15.55514808 0.00093859 -0.00496995 -0.00065423
C -3.36387322 10.66262629 14.74777832 -0.00724030 0.00124978 -0.00928462
C 3.51970409 13.16677029 15.00896216 0.00654544 -0.00462628 -0.00130144
C 1.08499060 18.19876383 15.39660033 0.00254403 0.00112309 -0.01074126
C -5.88663149 13.13786215 23.28628324 -0.00336162 -0.00105798 -0.00300194
C -8.74576659 18.07664887 19.32554214 0.00188841 0.00245850 0.00264388
C -2.05757258 15.48472913 19.02433960 0.00877367 0.00491439 0.00161902
C 0.67811566 10.91652830 23.33075045 0.00654853 -0.00423926 -0.00256609
C -4.61848531 13.05909620 22.65444338 0.00972182 0.00123458 -0.00197913
C 3.31113004 18.15347388 19.87652524 -0.00287661 0.00822427 0.00407553
C -3.27784865 15.60301203 19.81501424 0.00124572 -0.00357618 -0.00179744
C 27.70919575 10.70420342 22.66091133 0.00216347 0.00333630 -0.00120169
C -3.61613332 12.23534769 23.16395512 -0.00427830 -0.00147765 0.00781074
C 2.35356271 17.18886118 19.48537033 -0.00157604 0.00009665 -0.00285448
C -4.25461203 16.49291645 19.50195234 0.00082154 0.00281257 0.00057421
C -10.39248619 11.50365846 22.97120590 -0.00331195 0.00057016 -0.00296441
C 8.31289752 11.58194616 0.01011983 0.00158149 0.00031474 0.00022028
C 2.59002697 16.44338727 18.33324819 -0.00612990 -0.00080901 0.00472157
C -4.17784477 17.27610287 18.33325350 -0.00370527 -0.00066692 0.00182788
C -10.39160071 12.31773567 24.10171228 -0.00916505 0.00220948 0.00128358
C -1.96113855 11.56212870 19.06395572 -0.00564931 -0.00425678 0.00266216
C 0.53476131 16.49763136 23.67467081 0.00145204 -0.00110606 -0.00874274
C -5.92324440 17.08454283 23.66318485 -0.00260107 0.00191992 -0.00026594
C -8.60423865 12.22553083 18.83241921 0.00159713 -0.00174016 0.00457978
C -2.98174458 12.35797495 18.51589591 -0.00102639 0.00344143 0.00103832
C -11.49185357 17.39905343 24.33574533 -0.00250996 -0.00120983 0.00425853
C -4.96788238 16.18420650 24.01615963 -0.00657941 0.00170765 -0.00999932
C 3.93517355 11.60228784 18.63155238 0.00076953 0.00376129 -0.00361933
C -7.09395939 14.67022753 21.77180765 -0.00107997 -0.00038344 0.00332748
C -7.43394874 9.79021682 20.95280822 0.00050020 -0.00159104 0.00046102
C -0.82264364 14.20031730 20.54938799 0.00569355 0.00396557 -0.00254660
C -0.69735248 18.79929726 21.71553122 0.00346804 0.00283431 0.00081113
C -8.10347425 15.79412691 21.65872237 -0.00142334 0.00858834 0.00399448
C -6.28670156 10.70496537 21.07949838 0.00041502 0.00636697 0.00200166
C 0.42304447 13.42164612 20.78515230 0.00665461 0.00641313 0.00587775
C -2.02953983 18.17086136 21.43519574 -0.00201848 0.00313405 -0.00365294
C 3.17926198 22.95694043 5.06604245 0.00201705 0.00474780 0.00092969
C 0.50356787 27.82035056 1.12148542 -0.00129991 0.00475483 0.00645773
C 6.92317062 25.30337911 1.23126830 -0.00268904 -0.00008450 0.00397371
C 9.54906498 20.42286971 5.01794740 -0.00328397 0.00681245 -0.00488028
C 4.34468914 22.79374839 4.30223788 0.00365073 -0.00231835 0.00265819
C 12.39946014 27.47409052 1.64237789 0.00045381 0.00448315 -0.00629469
C 5.68992249 25.34696042 1.91056587 0.00084606 0.00270868 0.00208041
C 36.73940759 20.37554610 4.55737824 -0.00651331 0.00720089 -0.00126518
C 5.25644406 21.84610741 4.63424809 0.01006481 -0.00046163 -0.00642968
C 11.34069067 26.73247070 1.27561353 0.00518657 0.00022545 0.00139993
C 4.72715252 26.23332072 1.42560519 -0.00674893 0.00299881 0.00568710
C -1.37683502 21.18519724 4.91832420 0.00218552 -0.00436127 0.00010528
C 5.14294491 21.06030587 5.77434423 0.00044846 -0.00113639 -0.00432497
C 11.50505667 25.81838990 0.24190082 -0.00476123 0.01033221 -0.00522640
C 4.91136977 27.04171057 0.28437962 -0.00138240 -0.00551485 -0.00441644
C -1.48317233 22.09989830 6.02756236 -0.00012145 -0.00474142 -0.00332128
C 6.94370316 21.10957880 0.49401775 -0.00552013 -0.00256483 -0.00087445
C 9.65590508 26.29888759 5.43739775 0.00499677 -0.00480819 0.00127810
C 3.22220638 27.11845221 5.67692834 0.00617041 0.00181681 -0.01053500
C 0.50535336 22.12810794 0.60418805 0.00269735 0.00519813 -0.00143685
C 6.02712802 22.11782302 0.28899173 -0.00531177 -0.00395442 0.00386142
C -2.32136889 27.16583601 6.08219196 -0.00639090 -0.00647446 -0.00689173
C 4.18219687 26.21102613 5.96972866 -0.00146246 0.00419070 0.00273962
C 0.29562334 21.12240688 24.30888951 -0.00311956 0.01050453 -0.00962597
C 1.84812429 24.38758628 3.53955647 0.00190831 0.00295289 0.00593280
C 1.49451049 19.36113395 2.78055963 0.00319889 0.00593685 -0.00297044
C 7.86318104 23.65430554 2.71980669 0.00366088 0.00064453 0.00318890
C 8.70814225 28.80569242 3.72747292 0.00580819 0.00597856 0.01087625
C 0.52248003 25.04409558 3.44789801 -0.00771001 0.00009816 0.00794350
C 2.59765239 20.39888559 2.94186166 -0.00328589 -0.00611848 -0.00776187
C 8.98471671 22.69668068 2.97967654 -0.00234000 -0.00187199 0.00314169
C 7.48288842 27.76701571 3.57375630 -0.00255199 0.00006466 0.00086166
C 0.21640007 22.97942032 11.13943548 -0.01019544 0.00201927 0.00217617
C -2.55124626 27.94048848 7.26615671 0.00095887 -0.00825434 -0.00250586
C 3.87955480 25.28435470 7.00568465 -0.00466739 0.00616601 -0.00039651
C 6.60001862 20.17205538 11.10828280 -0.00059689 -0.00409867 -0.00119376
C 1.41074350 22.79199701 10.41384522 0.00427119 0.00208526 -0.00630856
C 9.30014823 27.67671909 7.83643857 0.00354950 0.00254096 0.00297138
C 2.60486318 25.23516218 7.61188122 0.00139078 -0.00384762 -0.00180264
C -5.03049892 20.66503151 10.57204185 -0.00472904 -0.00096600 -0.00085578
C 2.23572524 21.79427599 10.84196040 0.00327862 -0.00650946 -0.00606823
C 8.25142398 26.91002233 7.32344365 -0.00502664 -0.00267405 -0.00689468
C 1.65162217 26.14773991 7.34334639 0.00076286 0.00109905 -0.00241421
C -4.12069127 21.66223585 10.94900833 -0.00011070 0.00103840 -0.00633136
C 2.05370177 21.07490606 12.10570993 0.00195595 0.00257715 -0.00013957
C 8.42796728 26.20781716 6.06859303 0.00472870 0.00445133 -0.00103042
C 1.94674365 27.03330575 6.28116706 0.00288845 0.00340176 -0.00373892
C -4.26119161 22.48717792 12.05318846 0.00229352 0.00464579 -0.00056357
C 4.06585182 21.31512755 6.60391096 -0.00890908 -0.01208582 0.00861233
C 6.55199794 26.07129431 11.56391424 -0.00258267 -0.00321738 -0.00172194
C 0.06425464 26.85956312 11.67158157 0.00988248 -0.00213449 0.00081487
C -2.68968150 22.15549824 6.74358396 -0.00502573 0.00612902 0.00263736
C 3.02600517 22.18626730 6.23517859 -0.00032326 -0.00053057 -0.00314762
C -5.60622187 26.85520437 12.10634499 0.00559288 -0.00039967 0.00375488
C 1.02759081 25.90939229 12.12087135 0.00088942 0.00227921 0.00101252
C 9.29882641 21.34629614 6.08037164 -0.00426299 -0.00838862 -0.00555459
C -0.93847152 24.55669661 9.63602141 -0.00166761 -0.00578778 -0.00549427
C -1.45433240 19.53053124 8.81339469 0.00129785 -0.00166543 -0.00078568
C 5.25634959 24.03320392 8.63658425 0.00942379 -0.00295367 -0.00150139
C 5.72322296 28.54555612 9.52572036 -0.00185188 -0.00340089 0.00069054
C -2.18682322 25.39511390 9.53319616 0.00323206 0.00009887 -0.00274240
C -0.32152418 20.52395694 9.11132263 -0.00816338 0.00541534 -0.00954602
C 6.51628664 23.36787070 8.95808697 -0.00456290 -0.00251084 0.00409381
C 4.49342874 27.69459461 9.30137085 0.00099092 0.00112517 0.00463183
C -3.20773511 22.77893180 17.38217162 -0.00303907 0.00109311 -0.00069085
C -5.80162604 27.75208669 13.23706148 -0.00276502 -0.01028108 -0.00096275
C 0.83173038 25.07332028 13.19083647 0.00362421 -0.00012930 0.00078072
C 3.55070648 20.20392923 17.33638758 0.00633750 -0.00125517 -0.00309824
C -2.00583118 22.63951821 16.67268428 0.00514210 -0.00042914 0.00215658
C 6.14297184 27.63721339 13.76755260 0.00278557 -0.00154903 -0.00551629
C -0.44330794 25.19580247 13.81248718 -0.00419692 0.00288440 0.00431983
C 30.85086677 20.66402334 16.51287528 -0.01073697 0.00189852 0.00774422
C -0.97608704 21.82288120 17.07831524 0.00410520 -0.00348647 0.00885347
C 5.21367284 26.65175828 13.43239045 -0.00165423 -0.00253324 0.00692993
C -1.48184861 25.93750092 13.31751396 -0.00448884 -0.00273865 0.00010211
C -7.43779237 21.67667453 16.95593150 0.00478724 -0.00229486 -0.00270227
C -1.02214881 21.15224170 18.25575884 -0.00697188 0.00414687 -0.00516514
C 5.36310445 25.94655560 12.24899808 0.00232021 0.00213405 0.00615152
C -1.19639403 26.81591248 12.25639551 -0.00056102 0.00215821 -0.00123711
C -7.62382972 22.28859588 18.22717915 0.00217030 0.00113658 -0.00232427
C 0.87365701 21.36731720 12.85298365 -0.00553587 -0.00394526 0.00111848
C 3.77551235 25.97422436 17.58896168 0.00198530 -0.00845261 0.00175487
C -3.05043071 26.55997139 17.49415553 0.00341896 -0.00775094 0.00428897
C -5.49348572 22.34870972 12.68552068 -0.00144767 -0.00421218 -0.00213722
C -0.03430063 22.26587986 12.28620930 0.00276201 0.00475516 0.00723605
C -8.61514919 27.12652361 18.18691466 -0.00061228 0.00586032 0.00187811
C -2.12882914 25.61422578 17.87021758 -0.00855434 -0.00117460 0.00207670
C 6.36765013 20.86333515 12.26006839 -0.00432012 0.00547740 -0.01238870
C -4.44037228 24.04108895 15.78113326 0.00891256 0.00507872 0.00166018
C -4.61780468 19.50989574 14.83189021 0.00832321 0.01398158 0.00011907
C 1.93006259 23.67285666 14.78690250 -0.00576590 0.00076249 -0.00647381
C 2.24505443 28.38614793 15.81287730 -0.00310814 0.00484295 -0.00565854
C -5.61296522 24.93281793 15.56705451 0.00241289 -0.00073637 -0.00177997
C -3.46255270 20.47105255 14.98005987 0.00595942 0.00388574 0.00630999
C 3.23913057 22.99210064 15.01375039 -0.00117674 0.00445620 -0.00989729
C 1.08015214 27.53506416 15.74886191 0.00314624 -0.00505071 -0.00788315
C -5.80548338 23.04773713 23.57800584 0.00492783 0.00404836 0.00288190
C -8.59185670 27.87014180 19.37696677 -0.00002179 -0.00237630 -0.00510869
C -2.06348365 25.05638033 19.15918382 0.00175740 -0.00009989 -0.00236013
C 0.49089283 20.23462452 23.28004316 -0.00033457 0.00182634 -0.00489106
C -4.65852251 23.00287154 22.77803033 0.00342529 -0.00346318 -0.00085742
C 3.34732532 27.56496666 19.85984241 0.00212716 -0.00902238 0.00350583
C -3.24869112 25.14738086 19.92830874 0.00202369 0.00077710 -0.00015779
C 27.96684926 20.59631365 22.72238387 -0.00107931 0.00258271 0.01152886
C -3.57200513 22.11922605 23.13681412 0.00042622 0.00057652 -0.00002475
C 2.35131481 26.67473293 19.42365682 -0.01397685 -0.00305616 -0.00001106
C -4.23840884 26.03736217 19.47531770 -0.00129099 0.00381602 -0.00737262
C -10.16643189 21.34309554 23.19506962 0.00185896 0.00524949 -0.00321680
C -3.80140302 21.18903541 24.24964478 0.00690807 0.00145197 0.00190754
C 2.57226508 25.78315920 18.32880412 0.00481325 -0.00270319 -0.00204000
C -4.21444556 26.74595839 18.25757358 -0.00872843 -0.00127682 0.00066579
C 1.77674634 22.02968560 0.00343320 0.00066210 0.00650097 0.00151826
C -2.15221018 21.41239655 19.08992732 0.00606097 -0.00225229 0.00603343
C 0.72419402 25.87103779 23.91496107 0.00656752 0.00005728 0.00209676
C -5.84634077 26.99180381 24.04778955 0.00960061 -0.00090903 0.00966990
C -8.81053541 22.03991254 18.91225649 -0.00141069 -0.00740573 -0.00201607
C -3.21698168 22.14335806 18.59553156 -0.00325620 0.00076620 0.00175389
C -11.33911779 27.09700501 24.33552535 0.00214829 0.00313595 -0.00333733
C 7.16157230 26.12020049 0.13950334 0.00081077 0.00049466 0.00664002
C 3.29564419 21.01989389 18.50104357 -0.00779978 -0.00967448 0.00878326
C -7.17161482 24.31424992 22.11391260 -0.00016472 -0.00244960 -0.00537886
C -7.57121274 19.65134744 20.76448561 -0.00643627 -0.00233990 0.00397187
C -0.80311113 23.80099944 20.78210435 -0.00151687 0.00272184 0.00318733
C -0.72911382 28.52396069 21.92761610 0.00075053 -0.00397904 0.00002428
C -8.52541993 25.00289103 22.17182963 0.00585017 0.00357898 0.00112841
C -6.27226953 20.27809531 20.91166542 -0.00707974 -0.00139006 -0.00095600
C 0.35856366 22.86465346 21.01559198 0.00119883 -0.00170313 -0.00054254
C -1.94451672 27.70491233 21.65532017 0.00890418 0.00322956 0.00180251
C 16.23255118 3.89793823 5.03121576 -0.00474282 -0.00016383 0.00175328
C 13.31250254 8.52169339 0.89660227 0.00193425 0.00843293 -0.00674508
C 19.92109317 5.97683277 0.96146849 0.00321926 -0.00523905 0.00633403
C 22.82676337 1.48030001 4.98358832 0.00792429 -0.00336789 0.00381003
C 17.43465454 3.76832920 4.41669418 0.00218172 -0.00428908 -0.00326939
C 25.30124699 8.41497583 1.80021278 -0.00213989 0.00514187 -0.00287527
C 18.71627955 6.06302642 1.72161257 0.00236952 0.00173356 0.00438720
C 11.07943369 1.46434602 4.64412105 -0.00170976 0.00352819 0.00470135
C 18.41837504 2.90253721 4.85551012 0.00535389 0.00081784 -0.00291613
C 24.50377336 7.38422660 1.43997521 -0.00373563 0.00400096 0.00324077
C 17.76449966 6.95695178 1.33622106 0.00505383 0.00231303 0.00015144
C 12.03423777 2.38963005 5.03585366 0.00351213 -0.00150308 -0.00164212
C 18.16474836 1.91541653 5.81970599 -0.00235171 -0.00152915 -0.00028689
C 24.78761770 6.53039734 0.34397345 -0.00074825 -0.00004368 -0.00212895
C 17.92710874 7.64300136 0.14721947 0.00119820 0.00163376 0.00121250
C 11.76682964 3.26795966 6.16576656 0.00431667 0.00359211 -0.00082128
C 20.00479102 2.03959186 0.51694445 -0.00576583 -0.00437620 -0.00292067
C 22.78799129 6.72489424 5.61659012 -0.00511432 -0.00202617 -0.00004885
C 16.54582243 7.67364907 5.69033160 0.00393248 -0.00322422 -0.00532382
C 13.43332743 2.48192830 0.67073114 -0.00192780 0.00215466 0.00413278
C 18.98878378 2.86466009 0.20367291 0.00584182 0.00153362 0.00157175
C 10.86515129 7.58077604 5.94837258 -0.00285030 -0.00046755 -0.00028175
C 17.45076602 6.68751752 6.07923329 -0.00238681 -0.00811300 0.00315002
C 13.56839389 1.79496159 24.37018575 0.00147123 -0.00181806 -0.00301827
C 14.97324383 5.10302888 3.37486265 0.00330022 -0.00362297 0.00214941
C 14.70705544 0.41537558 2.40188234 0.00413332 -0.00643221 0.00001139
C 21.31465285 4.66266805 2.41040044 0.01003645 -0.00086383 0.00093430
C 21.69753884 9.39176416 3.69981017 -0.00187667 -0.00346214 0.00121057
C 13.72617020 5.87465009 3.08961272 0.00668960 -0.00353691 -0.00612680
C 15.96580172 1.15729453 2.64321566 0.00153043 0.00130014 -0.00058507
C 22.38180812 3.61223628 2.49697402 0.00641691 0.00287089 0.00302283