2880
Time=87000.00000006 pbc="T T T" Lattice="39.22478308 0.00000000 0.00000000 0.00000000 28.86307312 0.00000000 -12.01881181 0.00000000 24.36444231" energy=-18400.17787850 virial="8.85315692 6.10411333 -22.83476604 6.10411333 38.09088347 -5.61603903 -22.83476604 -5.61603903 -15.42523899" stress="0.00284891 0.00030105 -0.00085655 0.00030105 0.00388429 -0.00019147 -0.00085655 -0.00019147 0.00207802" Properties=species:S:1:pos:R:3:vel:R:3
C 3.01460749 3.46894640 5.11670825 -0.00141427 -0.00226707 -0.00442206
C 0.53259420 8.42243948 1.21095452 -0.00610002 -0.00054068 -0.00431157
C 6.95420794 5.90455133 0.98389375 0.00132798 -0.00112913 0.00460505
C 9.57350247 1.02255241 5.10238598 -0.00942539 -0.00464499 0.00384141
C 4.27040134 3.35432851 4.46046148 0.00189895 -0.00262102 0.00361606
C 12.20286961 8.48817675 1.63486441 -0.00178424 0.00518192 -0.00059991
C 5.77475457 6.01431705 1.68277205 -0.00732114 0.00128817 0.00628885
C -2.15576520 1.32628094 4.50948065 -0.00469956 0.00593254 -0.00606994
C 5.24991269 2.48101239 5.06857796 0.00031898 0.00346850 -0.00692644
C 11.30400814 7.53645106 1.28466441 -0.00126876 -0.00541269 0.00430486
C 4.76376790 6.88595561 1.24357612 -0.00840896 0.00092949 0.00102903
C -1.08670593 2.15579826 4.96948858 0.00270147 -0.00392592 -0.00440879
C 4.92320115 1.69815440 6.15165996 -0.00587860 -0.00086416 0.00321190
C 11.49129315 6.84368218 0.08004174 0.00456926 -0.00250875 -0.00445550
C 4.98665920 7.73585711 0.18039678 -0.00108311 0.00435378 -0.00285194
C -1.19788378 2.85557501 6.17499458 -0.00431004 -0.00573553 -0.00337340
C 6.90645935 2.14586444 0.49872542 0.00127751 0.00253755 0.00182982
C 9.74260658 6.89751543 5.31074511 0.00432083 0.00567006 -0.00017017
C 2.95838184 7.54902578 5.51486298 -0.00324376 -0.00367769 0.00745710
C 0.28075088 2.84213891 0.68316326 0.00275167 0.00115224 0.00136408
C 5.90940359 2.97806434 0.16282544 -0.00512301 0.01006314 0.00872808
C -2.14626589 7.49703741 6.14107212 0.00128549 -0.00225420 0.00235610
C 3.95129346 6.72162040 5.93066355 -0.00392733 -0.00030469 0.00664079
C 0.35913098 2.11510086 24.22205159 0.00479866 0.00340537 0.00318552
C 1.92393325 4.82435324 3.46342495 -0.00525137 -0.00479388 -0.00084841
C 1.58584856 0.31250488 2.33946805 -0.00253535 -0.00291166 0.00628172
C 8.11320485 4.39701834 2.56761670 -0.00369405 0.00159658 -0.00588229
C 8.23418249 9.40090962 3.88781647 0.00893935 -0.01276670 -0.00202888
C 0.57820195 5.36616977 3.11284179 0.01131549 -0.00179342 -0.00249846
C 2.68516046 1.30708288 2.69653222 0.00025117 0.00196541 -0.00092072
C 9.29891036 3.52114923 2.85461345 0.00422760 -0.00131693 -0.00007068
C 6.91990540 8.64279023 3.94667042 0.00247501 0.00180976 0.00093821
C 0.23830188 3.74172136 11.42904524 0.00759433 -0.00052171 0.00059051
C -2.40920619 8.29065394 7.27747780 -0.00166795 0.00714729 0.00216289
C 3.75669289 5.86262770 6.99222824 -0.00416699 -0.00537292 -0.00710741
C 6.72042788 1.28248872 11.30754614 0.00041959 -0.00663126 -0.00764061
C 1.38496656 3.60748851 10.63513461 -0.00179912 -0.00407853 0.00186920
C 9.41445117 8.18133195 7.76069669 0.00531607 0.00198346 -0.00155554
C 2.55973950 5.89068188 7.66617249 0.00279313 0.00537846 0.00183109
C -5.15905334 1.14928352 10.46742832 0.00255682 0.00223341 0.00006911
C 2.40171624 2.82113543 11.06852613 0.00098377 0.00115178 0.00676513
C 8.58344131 7.12501726 7.44146436 0.00177296 -0.00646496 0.00387421
C 1.50045466 6.78416532 7.29180433 -0.00002857 -0.00010541 0.00187264
C -4.12573816 1.95015846 10.98232407 0.00241893 -0.00155262 -0.00784090
C 2.19140874 1.93277051 12.20092138 0.00027270 0.00018568 0.00206321
C 8.58483559 6.63066337 6.15814392 -0.01000994 0.00556154 -0.00708241
C 1.68977316 7.67806615 6.25119122 0.00110155 0.00404993 0.00193939
C -4.27881684 2.68794628 12.15859711 0.00183449 -0.00830186 0.00753895
C 3.68398513 1.86597997 6.81166130 0.00100672 0.00322918 0.00118367
C 6.44947779 6.80898104 11.46200439 -0.00595582 0.00098694 -0.00277572
C 0.29166915 7.78782871 11.84840200 -0.00558051 0.00098016 0.00354046
C -2.43614180 2.89082645 6.81937372 0.00143976 0.00148938 0.00203312
C 2.75875201 2.70070484 6.27288168 -0.00025340 -0.00191922 0.00551079
C -5.55346068 7.61099587 12.07706656 -0.00061284 -0.00079701 -0.00568863
C 1.27711353 6.89918113 12.17178293 0.00124083 0.00222650 -0.00440294
C 9.33370222 1.82810607 6.10793141 0.00108942 0.00274460 0.00207293
C -1.12367188 5.07453682 9.83396228 -0.00498152 -0.00179726 -0.00224076
C -1.19506953 0.28840754 8.69517337 -0.00108465 0.00238863 0.00361204
C 4.92246322 4.47342079 8.60188647 0.00644955 -0.00090452 -0.00926512
C 5.05077345 9.20772034 9.76211324 -0.00028723 -0.00050653 -0.00035543
C -2.32019620 5.83326800 9.50455123 0.00058604 -0.00184085 -0.00257752
C 0.06168113 1.00450363 9.08307406 0.00009844 0.00624936 0.00053022
C 6.08765294 3.53079371 8.83919537 0.00458989 -0.00398046 0.00417978
C 3.63823856 8.75220341 9.61844920 -0.00232749 0.00124014 0.00771799
C -2.96360619 3.35677082 17.35659428 -0.00080210 0.00039280 0.00029636
C -5.70634964 8.49045973 13.16964348 -0.00167039 0.00202701 0.00516751
C 1.11131953 6.01835372 13.23291971 0.00618083 0.00428252 0.00263297
C 3.55765316 0.98410844 17.34482502 0.00003853 0.00372058 0.00286399
C -1.69493208 3.35124055 16.73032988 -0.00655188 -0.00404643 0.00905756
C 6.09810330 8.30222276 13.84568991 -0.00159867 0.00187634 0.00246469
C 0.03687449 6.16154993 14.03086454 -0.00227313 0.00044482 0.00240280
C -8.05735735 1.10010188 16.49741464 0.00039320 0.00005512 -0.00284594
C -0.73596320 2.44101083 17.04677647 -0.00321703 -0.00233116 -0.00037439
C 5.16808532 7.34281067 13.50067503 -0.00195892 0.00124012 0.00354012
C -1.01893704 6.96472802 13.69415647 0.00183651 0.00287931 -0.00499290
C -7.09941641 1.99835692 16.96293808 -0.00845033 0.00145773 -0.00027576
C -0.92361233 1.56179141 18.12364668 -0.00211315 0.00043572 -0.00250174
C 5.32565424 6.59508352 12.34675930 -0.00423672 0.00044321 -0.00341274
C -0.92871013 7.78904724 12.53146950 -0.00094207 -0.00104641 0.00442518
C -7.39420937 2.98897419 17.98996023 0.00124786 0.00427529 0.00030867
C 0.96140055 1.97091141 12.84563430 0.00220737 -0.00256815 0.00132200
C 3.62621659 7.02744340 17.54928144 0.00386027 -0.00366369 0.00779232
C -3.13189058 7.49757896 17.70529035 0.00119152 -0.00148429 0.00612605
C -5.54340052 2.63827271 12.79066758 0.00008533 0.00450116 -0.00679962
C 0.03080408 2.93934234 12.53743141 -0.00429731 0.00054089 0.00608443
C -8.49889222 7.78152077 18.16198628 0.00044391 -0.00669265 0.00554279
C -2.22139003 6.54639521 18.06078679 0.00243040 -0.00039691 0.00686596
C 6.63409305 2.00808678 12.54343444 0.00640907 -0.00091979 -0.00507482
C -4.02969856 4.92773932 15.88847325 -0.01292726 0.00068487 0.00326451
C -4.40591686 0.10846990 14.70625676 0.00049926 0.00491084 0.00099736
C 2.21414394 4.49800949 14.81754495 0.00482228 0.00465173 0.01334423
C 2.22905017 9.51305313 15.91426418 -0.00262897 -0.00181384 -0.00782552
C -5.16707376 5.94271327 15.74622799 0.00612596 -0.00262516 -0.00440575
C -3.16771543 0.97446530 14.75813501 -0.00015226 -0.00295271 0.00280965
C 3.62170805 3.99729734 15.19313720 0.00042408 0.00784797 0.00218121
C 0.98068069 8.69608351 15.92145464 -0.00118837 0.00006591 0.00293565
C -5.92413781 3.86000239 23.47828609 -0.00513625 0.00348899 0.00120130
C -8.69521030 8.66596006 19.27981756 -0.00129651 -0.00959808 0.00096042
C -2.39726358 5.68731607 19.16742009 0.00198877 0.00235760 0.00338536
C 0.58407590 1.23335385 23.22022830 0.00166381 -0.00259375 -0.00839439
C -4.68908838 3.81347676 22.75988932 0.00365046 0.00454066 0.00222473
C 3.28839612 8.59552142 19.80387479 0.00486201 -0.00096740 -0.00054680
C -3.61903074 5.77286052 19.83724078 -0.00520093 0.00853337 -0.00826474
C 28.01512409 1.36585188 22.65635843 0.00484742 0.00064462 0.00331717
C -3.76995896 2.84180294 23.08346175 0.00312823 -0.00223030 -0.00301853
C 2.23917228 7.77240467 19.33289047 -0.00039655 0.00671965 -0.00651482
C -4.51096204 6.78649654 19.53712275 0.00441779 0.00107992 0.00205609
C -10.28572696 2.30966241 23.13295623 0.00257760 -0.00054975 0.00496616
C -3.96098175 1.98447509 24.13326716 0.00493593 -0.00205176 0.00546958
C 2.41945173 6.87773123 18.28878154 0.00562232 0.00205072 0.00447924
C -4.31346382 7.65581730 18.45422657 0.00762219 0.00366249 0.00195370
C -10.59212196 3.11249707 24.27938298 0.00040913 -0.00386265 0.00128601
C -2.06215133 1.71441817 18.88470079 0.00396661 0.00588338 0.00238913
C 0.56648170 7.08764137 23.68178046 0.00003043 0.00692036 0.00017621
C -5.77672528 7.65208780 23.89392968 -0.00238898 0.00174473 0.00123915
C -8.72854207 2.95857731 18.51558081 0.00070649 0.00045901 -0.00370634
C -2.99968325 2.61935547 18.52810281 0.00520925 -0.00265126 -0.00096276
C 0.76149214 7.56405741 0.09455421 0.00469121 0.00279756 -0.00711215
C -4.88990076 6.70042109 24.20846875 -0.00577680 0.00180429 -0.00514344
C 3.26435585 1.81525008 18.43531559 -0.00084049 -0.00132089 0.00088930
C -7.12025501 5.30884721 21.79750526 0.00472457 0.00471478 -0.01174878
C -7.39520284 0.39312540 20.84344221 -0.00245141 -0.00628598 0.00035660
C -1.02969363 4.56335250 20.83925836 -0.00541276 -0.01130348 0.00248866
C -0.47758857 9.41479733 21.76390603 0.00842328 0.00176730 -0.00068494
C -8.20830071 6.26426721 21.79954389 -0.00125390 0.00104690 -0.00202258
C -6.27230801 1.29464204 21.09106572 0.00004684 0.00278543 -0.00612813
C 0.21361695 3.81731765 21.16370889 0.00587515 0.00408544 0.00001095
C -1.70370202 8.61180724 21.56373568 -0.00599514 0.00104092 -0.00043063
C 3.30599641 13.39185707 5.13383899 0.00065874 -0.00460382 -0.00049316
C 0.39226666 18.02899991 1.00760685 -0.00135633 -0.00468040 -0.00422195
C 7.02380702 15.68158523 1.13490234 0.00009103 0.00196694 0.00427344
C 9.61948116 10.77523811 5.27222597 -0.00589132 0.00202979 0.00228318
C 4.57554416 13.21520666 4.61346317 0.00080271 -0.00078281 -0.00114731
C 12.40063065 18.26603887 1.70221645 0.00211716 0.00547161 -0.00082782
C 5.82980676 15.66937999 1.84442406 -0.01124253 0.00112128 0.00202189
C -1.93513650 10.72238926 4.62506659 -0.00290988 -0.00152365 0.00332892
C 5.53992057 12.34007813 5.17104372 -0.00534876 -0.00146440 -0.00265261
C 11.38148217 17.36537064 1.33931240 0.00585844 -0.00149136 -0.00291213
C 4.76981276 16.48258494 1.38773504 0.00132228 -0.00378087 0.00838535
C -1.03743326 11.59005832 5.13155210 0.00309907 -0.00252247 0.00575503
C 5.18762143 11.57312291 6.29607223 -0.00579389 0.00686836 0.00224244
C 11.55017318 16.51652858 0.20320242 -0.00496186 -0.00302391 -0.00154421
C 4.92950520 17.44466634 0.37163924 -0.00097598 -0.00042262 -0.00547150
C -1.25461983 12.34608951 6.25768972 -0.00377305 0.00029118 0.00278833
C 7.00095386 11.58070772 0.66428857 -0.00474318 -0.01008676 0.00702667
C 9.59255836 16.67480468 5.54239447 -0.00077675 -0.00161419 -0.00409411
C 3.32266324 17.27718560 5.49854102 -0.00268317 -0.00833782 0.00320047
C 0.21719316 12.18370570 0.66714530 0.00014769 0.00103928 -0.00505101
C 6.04334334 12.47611821 0.21030646 0.00222554 0.00231242 -0.00969842
C -2.09120037 17.44687370 6.01933719 0.00213223 -0.00836102 0.00726683
C 4.26396876 16.33844835 5.93053001 0.00029730 -0.00376161 -0.00356498
C 12.65848939 11.53449949 0.17681267 0.00154442 -0.00000141 0.00556361
C 2.11800799 14.49439013 3.31160791 -0.00376970 0.00291812 0.00621872
C 1.55431455 10.02144269 2.68126655 -0.00153186 -0.01415952 -0.00100736
C 8.40580249 14.18719042 2.53559370 -0.00091059 0.00493085 0.00544642
C 8.39124794 19.06943784 3.55909946 -0.00426997 -0.00161276 -0.00100534
C 0.72315067 15.16100242 3.01168463 -0.00235189 -0.00009388 0.00630365
C 2.63391775 11.01759193 2.99205543 -0.00247636 0.00517948 0.00046449
C 9.74358072 13.49777164 2.70983881 0.00023494 0.00443349 -0.00209832
C 7.10902523 18.50055683 3.16456200 -0.00110697 -0.00604146 -0.00111857
C 0.02057457 13.40783710 11.29167553 0.00355634 0.00091566 -0.00214942
C -2.45963239 18.30507604 7.01411077 0.00852531 -0.00411075 0.00030358
C 4.02156410 15.62007161 7.12773286 0.00317454 0.00678096 0.00504704
C 6.42421166 10.58352352 11.29269754 0.00394294 -0.00089269 0.00093511
C 1.27986892 13.35223072 10.63897999 0.00135015 -0.00706865 -0.01114555
C 9.14465251 18.18037961 7.74921708 -0.00256027 0.00169499 0.00245336
C 2.71538265 15.64032233 7.68407727 -0.00397873 -0.00440246 -0.00301746
C -5.07876405 11.01581612 10.48979279 -0.00801512 0.00255096 0.01006244
C 2.29872348 12.51950046 11.10278709 0.00295309 0.00800822 0.00041766
C 8.12315112 17.37375434 7.31054967 -0.00125798 0.00371714 0.00755501
C 1.74639655 16.48536045 7.19487271 -0.00167020 -0.00207634 0.00275866
C -4.17484440 12.00751400 10.89659826 -0.00235125 -0.00916952 -0.00284645
C 2.13137158 11.70485249 12.25493146 0.00337003 -0.01014963 -0.00493244
C 8.32866089 16.59163726 6.14004137 0.00279498 -0.00271318 -0.00126453
C 2.09262417 17.31084373 6.11350866 -0.00277802 -0.00147897 0.00050669
C -4.46935771 12.77080101 12.11708500 0.00539238 0.00357898 0.00484794
C 3.91856087 11.84695394 6.93700977 -0.00633876 -0.00450762 0.00810355
C 6.66595784 16.57943123 11.67938738 0.00207273 0.00494817 0.00592953
C 0.09912785 17.18987478 11.51619671 0.00026685 -0.00532916 -0.00199311
C -2.44489943 12.08310157 6.99492624 0.00938489 0.00359230 -0.00691181
C 3.02974595 12.71184949 6.33585797 0.00488257 -0.00043619 0.00637075
C -5.32077071 17.35698422 12.02183044 -0.00003948 0.00718730 0.00242368
C 1.15239677 16.38669098 11.96992681 0.00325050 0.00039160 0.00139592
C 9.29129028 11.72904764 6.23017059 -0.00133039 0.00798913 0.00488965
C -0.97094251 14.99755820 9.77563645 -0.00630503 -0.00166379 -0.00043419
C -1.39250207 9.79941106 8.89381032 0.00026174 0.00133364 -0.00088595
C 5.00218584 14.19722744 8.82346140 -0.00090233 0.00174957 0.00501412
C 5.34252154 18.89587230 9.67745321 0.00763570 -0.00156744 0.00250214
C -2.20142421 15.93475912 9.43840773 0.00258402 -0.00312553 -0.00553583
C -0.15779561 10.74643162 9.01811267 0.00274274 0.00180955 -0.00148149
C 6.11134190 13.31913618 9.27431811 0.00052307 -0.00089067 0.00541026
C 4.20054067 17.97963380 9.32989037 -0.00749144 0.00280247 0.00120295
C -2.80544221 13.36629170 17.37998090 -0.00593393 -0.00318287 -0.00392298
C -5.56273703 18.23387016 13.15781815 -0.00159671 0.00683015 0.00116649
C 0.94833752 15.65947038 13.20724696 0.00555716 -0.00984419 -0.00376938
C 3.60043463 10.96235488 17.28992873 -0.00033911 -0.00823404 0.00839807
C -1.64770917 13.35185066 16.61248063 0.00251084 0.00183502 -0.00252769
C 6.11051640 18.14406777 13.86297650 -0.00196666 0.00206502 -0.00109067
C -0.28586072 15.78992748 13.85993020 -0.00006729 -0.00463763 -0.00497763
C 30.80979195 10.77315565 16.76862363 -0.00387414 -0.00391502 0.00261124
C -0.53279368 12.63650575 17.05191074 0.00428654 -0.01011904 0.00246357
C 5.25001264 17.18941350 13.49312304 -0.00087377 0.00083212 0.00199414
C -1.24731863 16.56148470 13.44324185 -0.00519507 -0.00355044 -0.00338118
C -7.40468517 11.66504044 17.05749889 -0.00279728 -0.00319056 -0.00605302
C -0.64049786 11.85047750 18.17457565 -0.00228945 -0.00663323 -0.00427144
C 5.43504999 16.36258456 12.33915841 -0.00175099 0.00623259 0.00391814
C -1.03546963 17.36842322 12.22952244 0.00116904 -0.00198943 0.00796681
C -7.53679112 12.54448544 18.12181744 0.00978611 0.00293849 -0.00090460
C 0.88410488 11.77991460 12.89899973 -0.00159818 0.00142660 -0.00012832
C 3.78598384 16.22167432 17.93504655 -0.00220764 0.00568045 0.00210503
C -3.00480574 17.29627979 17.66286229 0.01088842 -0.00014883 0.00269559
C -5.64971541 12.59696322 12.80958697 -0.00093677 -0.00463452 -0.00221491
C -0.08984092 12.54501189 12.36795706 -0.00176464 -0.00322913 -0.00487637
C -8.38866803 17.47026966 17.98502060 0.00029275 -0.00227773 0.00123468
C -2.02360855 16.52730670 18.21491653 -0.00880392 -0.00369908 0.00245657
C 6.32185053 11.47408763 12.38527347 0.00448507 0.00554111 0.00162125
C -3.99630846 14.85340499 15.84318976 0.00274550 -0.00487496 -0.00196163
C -4.49190332 9.88479943 14.73586723 0.00237417 0.00649995 0.00501138
C 1.99802179 14.21216945 14.78785938 0.00127377 -0.00298337 0.00037111
C 2.38010047 19.34068331 15.69988016 -0.00640972 -0.00685002 -0.00285048
C -5.30113775 15.57311957 15.71110808 0.00621377 -0.00992271 0.00343652
C -3.50146178 10.98291760 14.99727234 0.00261192 0.00653633 -0.00414277
C 3.10123701 13.23965115 15.03353218 -0.00133695 0.00354597 0.01104851
C 1.26408389 18.39305785 15.49708215 0.00274068 0.00259880 -0.00377064
C -5.65184262 13.31766461 23.46105966 0.00259438 0.00545953 0.00545563
C -8.65276020 18.25420405 19.14345344 -0.00024564 0.00226085 -0.00796695
C -2.26184924 15.61626334 19.35100569 -0.00079343 0.00156290 0.00383092
C 0.74963426 10.77935689 23.35052249 -0.00134974 0.00458254 0.00318164
C -4.42447244 13.20449095 22.86210532 -0.00647717 0.00248798 0.00634668
C 3.41843094 17.89325944 20.08948793 -0.00583353 -0.00060326 -0.00253975
C -3.53701620 15.67402242 19.91299243 0.00336627 0.01082925 0.00268765
C 27.84330844 10.57133497 22.78719274 -0.00621974 0.00258417 0.00048162
C -3.47070575 12.32189008 23.33601093 0.00625336 -0.00300273 -0.00400818
C 2.38195132 17.11019997 19.64592213 -0.00395934 -0.00521278 0.00121536
C -4.51260601 16.47777127 19.36799253 -0.00299912 -0.00273035 0.00560200
C -10.43166876 11.46312597 23.17490222 0.00208583 -0.00306426 -0.00769807
C 8.30465258 11.42749477 0.03175553 -0.00003341 0.00718511 -0.00354166
C 2.49260117 16.28691179 18.52292438 0.00080316 -0.00882620 -0.00045138
C -4.26503171 17.31106321 18.24921981 0.00349570 -0.00562890 0.00342354
C -10.61181766 12.36348190 24.27898358 -0.00253298 -0.00051225 -0.00562828
C -1.86081281 11.74442256 18.82798601 0.00447072 -0.00380403 -0.00313051
C 0.79088434 16.54916533 23.97086360 0.00093638 0.00428455 0.00337817
C -5.84887248 17.46947299 24.09911601 -0.00220007 0.00618675 0.00495717
C -8.75413578 12.59033502 18.81670776 0.01039952 -0.00801265 0.00392410
C -2.92885521 12.44331582 18.43384826 -0.00124216 -0.00322956 0.00560667
C -11.47397687 17.09494690 24.35521776 0.00473013 -0.00253262 0.00379482
C 7.11608178 16.52006775 0.01731092 -0.00042665 -0.00220987 -0.00145935
C 3.54482040 11.80476070 18.49430954 -0.00088758 -0.00190216 -0.00035028
C -6.86907124 14.65355148 21.76471149 -0.00592615 -0.00311316 -0.00242084
C -7.32456426 9.85603857 20.90368852 -0.00189599 0.00040152 0.00379189
C -1.14528649 14.29870704 20.99423995 -0.00101563 -0.00536666 0.00173223
C -0.34552722 18.83951995 21.90062831 -0.00132670 -0.00267831 0.00894688
C -8.02746764 15.60857099 21.55519284 -0.00285294 -0.00209853 0.00171052
C -5.97313892 10.56138339 21.12916187 -0.00390291 -0.00341417 0.00445385
C -0.12584264 13.28164859 21.29130212 -0.00557110 -0.00243524 0.00944846
C -1.46920455 17.81957526 21.64216846 0.00130581 0.00356209 0.00005913
C 3.05155123 22.97436900 4.90326125 0.00552096 -0.00023908 -0.00280929
C 0.56871019 27.62929316 0.75282525 -0.00167768 0.00024257 -0.01007025
C 7.02108307 25.22432578 0.91946752 0.00077377 -0.00675707 0.00209748
C 9.49837992 20.37046112 5.25316831 -0.00418134 -0.00316322 -0.00330260
C 4.29425004 22.89455068 4.38258937 0.00000835 0.00427388 -0.00293589
C 12.22520392 27.98202838 1.57765785 0.00658533 0.01029233 -0.00406693
C 5.80403028 25.16423846 1.55070754 -0.00287789 0.00595956 -0.00071155
C -2.05804006 20.65743853 4.37628201 -0.00105547 -0.00378222 0.00060784
C 5.29231941 22.08385097 4.82826920 0.00020366 0.00133125 0.00500311
C 11.26030050 27.05729407 1.25360148 0.00454052 0.00126879 -0.00326031
C 4.76200315 26.00652955 1.16119694 -0.00616939 -0.00484743 -0.00320799
C -1.11311491 21.53216907 4.72860843 -0.00023394 -0.01140553 0.01029299
C 4.96269020 21.27771276 5.95401538 0.00697804 0.00320433 0.00334219
C 11.50893373 26.04249025 0.30050220 -0.00093054 0.00286614 -0.00296433
C 4.93047563 26.82261190 0.04152942 -0.00025535 0.00211719 -0.00130398
C -1.27302647 22.35134081 5.93454093 -0.00485327 -0.00364580 0.00054327
C 7.04849256 21.46815148 0.85280095 0.00332639 0.00416881 0.00589209
C 9.57670338 26.06742304 5.40234415 -0.00110174 -0.00115963 0.00339052
C 2.98038910 26.86814315 5.18997462 0.00470542 -0.00406946 -0.00566607
C 0.48677576 21.91540818 0.63235504 0.00411188 0.00305417 -0.00637977
C 6.01994506 22.26853993 0.38702025 0.00287792 -0.00476785 -0.00164040
C -2.31122075 27.32936328 5.71663797 0.00874433 0.00498420 0.00586070
C 4.01456146 26.01621007 5.68635173 0.00054167 -0.00308442 0.00507016
C 12.51350361 21.07220164 0.26245122 0.00498092 0.00623401 0.00424757
C 1.91799530 24.41811385 3.22891794 -0.00818614 -0.00217996 -0.00514957
C 1.59217156 19.52725642 2.49830632 0.00189904 0.00622360 -0.00069769
C 8.33012601 23.75807678 2.42495811 -0.00129845 0.00561879 0.00160086
C 8.28700603 28.61714260 3.45448602 -0.00308510 -0.00933332 0.00236451
C 0.89650480 25.38119551 2.79886414 -0.00381882 -0.00137032 -0.00066507
C 2.77755176 20.42008845 2.64503272 0.00510958 0.00226709 0.00271526
C 9.55573558 22.96299663 2.43226949 -0.00557437 -0.00142878 -0.00056646
C 7.06971502 27.71565175 3.35223077 0.00214644 0.00184869 -0.00282719
C -0.02443979 23.05041443 11.19536433 -0.00165947 0.00032579 0.00265072
C -2.45554508 28.09445131 6.88696308 -0.00292482 0.00048617 -0.01318006
C 3.72609415 25.22187965 6.79717586 0.00722665 0.00176021 0.00196224
C 6.54640456 20.27958414 11.24624143 0.00184290 -0.00038374 0.00202414
C 1.14955623 22.96950637 10.48190995 -0.00834701 -0.00157693 -0.00011719
C 9.13663415 27.68949726 7.72211719 0.00354239 -0.00064671 0.00263642
C 2.50134499 25.22457577 7.44294918 0.00224672 -0.00888232 -0.00476061
C 33.97097094 20.23624522 10.56452923 -0.00025190 -0.00372860 -0.00015499
C 2.16409945 22.12635316 10.88133026 0.00254670 0.00209125 0.00593080
C 8.09185359 26.91095624 7.21111954 -0.00733160 0.00015402 0.00300667
C 1.55185225 26.10463118 7.06374239 0.00097719 0.00119795 0.00394709
C -4.26065604 21.06092826 11.01469864 0.00027155 -0.00231469 -0.00039300
C 1.92909631 21.22511384 11.91495578 -0.00052311 -0.00984207 -0.00473083
C 8.31493298 26.04215910 6.06115402 0.00970878 0.00312528 -0.00120127
C 1.78654502 26.99547086 5.97178633 0.00591519 0.00216817 -0.00695130
C -4.43969017 21.90792094 12.05074273 -0.00121124 -0.00289201 0.00142701
C 3.64162648 21.31864014 6.51435408 -0.00554348 0.00511812 0.00047284
C 6.60628648 26.23317399 11.62693873 0.00271726 0.00029341 -0.00477229
C 0.23070605 26.79032049 11.56971984 0.00329739 -0.00099456 0.00442608
C -2.43420440 22.12015507 6.68229969 0.00550884 0.00625491 -0.00561045
C 2.70851689 22.20176891 6.01459238 -0.00552752 0.00609526 0.00103831
C -5.37421781 26.83512214 11.89334122 -0.00373159 -0.00258240 0.00048313
C 1.20332449 25.89556334 11.99610152 0.00265480 0.00023481 -0.00207396
C 9.31762891 21.21366345 6.33585295 0.00133941 0.00840581 0.00350185
C -1.18768436 24.47593857 9.66443660 -0.00515773 -0.00216019 0.00424818
C -1.27415217 19.59834850 8.67623058 0.00221132 0.00255452 0.00458339
C 5.26920539 24.21403741 8.52497486 -0.00177441 -0.00688582 -0.00650394
C 5.44254010 28.68271895 9.81424522 0.00214833 0.00364495 0.00161081
C -2.49491149 25.17854450 9.52528802 -0.00305586 0.00051655 0.00025675
C 0.02813371 20.34506346 8.88827715 -0.00810854 0.00191680 0.00685469
C 6.48230870 23.33209377 8.82449275 0.00388503 0.00231433 -0.00067348
C 4.11159668 28.09606631 9.60252331 -0.00169952 0.00053213 0.00147373
C -2.72402868 23.02486033 17.41955844 0.00433543 -0.00152316 0.01076956
C -5.58666543 27.57112898 13.07487415 0.00273375 0.00149723 0.00730294
C 1.01583291 25.05635043 13.06435390 -0.00071373 -0.00265554 -0.00621387
C 3.73185306 20.30391125 17.48071137 0.00037819 0.00175478 0.00162202
C -1.51504606 22.92951842 16.73695345 0.00030483 0.00669614 -0.00649376
C 6.28934157 27.75430084 13.96605011 -0.00238317 0.00339764 0.00277065
C -0.25108321 25.16161359 13.76094288 -0.00175498 -0.00476384 -0.00043573
C -7.97621836 20.56409606 16.68054469 0.00478235 -0.00425666 0.00088028
C -0.58422921 21.97823734 17.03458057 0.00418311 -0.00259547 0.00341765
C 5.30748333 26.92263263 13.53332695 -0.00627402 -0.00199807 0.00445408
C -1.14752787 26.13132504 13.38451721 0.00271985 -0.00016421 0.00134173
C -6.94322029 21.39408154 17.17822622 0.01128770 -0.00183858 0.00991800
C -0.72897894 21.20353244 18.22283467 -0.00743654 -0.00436893 0.00147294
C 5.42375141 26.13998218 12.38826128 0.00808809 0.00705109 -0.00269073
C -1.01456386 26.93417037 12.20542166 -0.00692119 0.00731848 0.00401356
C -7.21133301 22.19352958 18.29043336 -0.00557249 0.00207229 0.00025303
C 0.69776974 21.16168736 12.55276754 0.00150101 -0.00094083 -0.00189866
C 3.62014681 25.95621624 17.77399270 -0.00622433 -0.00352852 -0.00062615
C -2.62005003 26.53882221 17.82342007 0.00128052 -0.00193681 0.00272660
C -5.66820364 21.97863649 12.68211099 0.00121118 0.00205250 0.00378511
C -0.27155273 22.10012816 12.23231747 0.00172847 -0.00017285 -0.00575583
C -8.26365800 27.16478098 18.03531480 -0.00099540 -0.00122000 -0.00566370
C -1.66824519 25.70654148 18.29511547 -0.00081731 0.00760531 0.00082633
C 6.27625045 21.17655097 12.33642287 -0.00220444 -0.00835303 0.00161590
C -3.95702581 24.40960502 15.76458634 -0.00529560 0.00017463 0.00137731
C -4.53386124 19.75164444 14.78112207 0.00547069 -0.00110906 0.00703766
C 2.13642837 23.83759672 14.88251403 0.00155320 -0.00172779 0.00202448
C 2.37584175 28.57809752 15.67742101 0.00376082 0.00154225 -0.00782508
C -5.28175131 25.13365848 15.57619504 -0.00511891 0.00166537 -0.00531868
C -3.35053805 20.74726775 14.96074743 -0.00105575 0.00446481 0.00255847
C 3.52019160 23.22827071 15.22590909 -0.00004511 -0.00522963 0.00311641
C 1.08294258 27.77961077 15.51296417 0.00830555 -0.00335213 -0.00323600
C -5.88544397 22.93960261 23.49915314 -0.00336290 0.00295199 -0.00631821
C -8.55491009 28.02588471 19.18059959 0.00679822 -0.00104859 -0.00259287
C -1.85666092 24.93591943 19.46891260 -0.00478708 0.00591730 0.00052946
C 0.72446251 20.19375863 23.55083480 0.00179836 -0.00097482 -0.00233812
C -4.62481650 22.90575767 22.78438092 -0.00153324 0.00222498 0.00636706
C 3.09232923 27.59636737 19.97142898 0.00054480 0.00240286 -0.00227123
C -3.13659851 25.00769053 20.07889772 -0.00088205 -0.00366577 0.00273040
C -11.06754477 20.31191717 22.81309898 0.00153674 -0.00884015 0.00232942
C -3.68053456 22.01721423 23.19843539 0.00110256 0.00182767 0.00066959
C 2.22113327 26.55845063 19.59928203 -0.00586049 0.00303589 -0.00441256
C -4.09851924 25.89500504 19.64082957 -0.00518112 -0.00184127 -0.00025519
C -10.05727248 21.17553695 23.14757835 -0.00086302 0.00080449 0.00221078
C 8.22897477 21.39531804 0.09143356 -0.00771480 -0.00509150 -0.00101933
C 2.41360503 25.73215614 18.43658736 -0.00197623 -0.00189288 -0.00295438
C -3.85276827 26.65875017 18.49170243 0.00075463 0.00029447 0.00258619
C -10.29506701 21.99880262 24.29324854 0.00590051 -0.00438739 0.00348531
C -1.93915717 21.33572919 18.95352253 0.00665201 0.00309006 -0.00142045
C 0.78618121 26.12038800 23.98963555 0.00088734 -0.00508995 -0.00985098
C -5.88711171 26.78623639 23.72752926 0.00034833 0.00226723 0.00187812
C -8.54644576 22.12136957 18.87142315 -0.00794794 0.00420171 0.00498186
C -2.94187654 22.18439483 18.52859924 -0.00073178 0.00011100 0.00070482
C -11.44555579 26.86975565 23.94119571 0.00291496 0.00493358 0.00220217
C -4.83903803 26.12364592 24.23126140 -0.00173385 -0.00683869 -0.00289637
C 3.43485574 21.11308493 18.58122444 -0.00027049 -0.00021553 0.00461062
C -7.03526703 24.40491403 21.93367406 -0.00563366 -0.00867122 0.00962770
C -7.33292846 19.40382992 20.86826926 -0.00080016 0.00340972 -0.00840058
C -0.67176428 23.69776325 21.11054781 -0.00622059 0.00395937 -0.00262339
C -0.57895111 28.49224530 21.76711196 0.00008082 -0.00710620 -0.00277054
C -8.28768953 25.23619691 21.67581475 -0.00719424 0.00460931 0.00250105
C -6.02662447 20.16947935 21.02932996 -0.01022619 0.00392495 -0.00053315
C 0.56060333 22.88605805 21.23010242 0.00030760 0.00141265 0.00151225
C -1.78093278 27.62902843 21.77895248 0.00165746 -0.00050325 -0.00453190
C 16.08586499 3.73963818 5.06593840 0.00496668 -0.00452579 0.00100058
C 13.38621939 8.61314260 0.92061255 -0.00127127 -0.00674735 0.00115198
C 19.98338751 6.02738334 0.92787252 0.00287920 -0.00382194 0.00303381
C 22.80454888 1.25609908 5.23723746 -0.00226347 0.00369424 0.00485596
C 17.34530590 3.71011054 4.45138281 0.00540389 0.00055186 0.00028353
C 25.50591591 8.42889315 1.71034237 -0.00030868 -0.00183921 -0.00828848
C 18.67485488 6.00886732 1.51067589 0.00132273 0.00401467 -0.00226728
C 10.86484287 1.14673856 4.44062287 -0.00140922 0.00320736 0.00055875
C 18.36801396 2.83479453 4.82621007 0.00414863 0.01300755 0.00420015
C 24.55084731 7.53244687 1.29848732 0.00260958 0.00119795 -0.00016188
C 17.77509809 6.95811595 1.15528420 -0.00313919 0.00614568 -0.00391688
C 11.73701962 2.03115697 4.91826683 0.00010202 0.00077635 -0.00816610
C 18.12483117 1.97835378 5.90327635 -0.00640820 0.00005658 0.00478801
C 24.77416948 6.60059323 0.22886980 -0.01127412 -0.00571285 -0.00513402
C 18.04467788 7.82120870 0.07031596 0.00180743 -0.00268995 -0.00286730
C 11.48120236 2.90304780 6.01338429 0.00146037 -0.00067209 -0.00842285
C 20.03964104 2.17109744 0.64599331 -0.00550851 -0.00277114 -0.00236536
C 22.76307760 6.88179183 5.37926463 0.00552686 -0.00307856 -0.00346272
C 16.13481505 7.51374501 5.58110519 -0.00252596 0.00365825 -0.00250582
C 13.29410329 3.00327580 0.29477324 -0.00466450 -0.00296959 -0.00011881
C 19.04776224 3.02158641 0.16463618 0.00016618 0.00897552 -0.00624531
C 10.78146179 7.74999883 5.82691176 0.00116020 0.00085832 -0.00079191
C 17.11439629 6.69046456 6.01524838 -0.00110946 0.00072629 0.00574245
C 25.66980582 1.76357763 0.34042580 0.00033650 0.00030926 -0.00567141
C 14.80813521 5.00375127 3.40911187 0.00258576 0.00370927 -0.00436632
C 14.70742979 0.43658249 2.57519632 -0.00478412 0.00061440 0.00265163
C 21.27094909 4.68303662 2.58619696 0.00130762 -0.00665198 0.00239701
C 21.63422025 9.16631827 3.71740360 -0.00411294 0.00094117 -0.00562705
C 13.50198504 5.58611910 3.13456677 -0.00243070 0.00036817 0.00160792
C 15.94416782 1.27862640 2.77608503 0.00045289 0.00282520 -0.00085973
C 22.63905707 4.08394833 2.85078451 -0.00365072 0.00293309 0.00328939