2880
Time=56000.00000004 pbc="T T T" Lattice="39.38319385 0.00000000 0.00000000 0.00000000 28.82309560 0.00000000 -12.04173236 0.00000000 24.45745964" energy=-18400.38813889 virial="-18.49643550 -37.33564765 4.29522460 -37.33564765 7.00184122 -31.65818742 4.29522460 -31.65818742 -74.93332027" stress="0.00180197 -0.00129416 0.00008987 -0.00129416 0.00271901 -0.00110691 0.00008987 -0.00110691 -0.00012540" Properties=species:S:1:pos:R:3:vel:R:3
C 3.20748889 3.74711012 5.40333788 0.00657025 0.00273365 0.00233291
C 0.22259711 8.35516032 0.99356845 -0.00144684 -0.00030943 -0.00553546
C 6.99486985 6.02058576 1.23032513 -0.00461111 0.00039547 -0.00517642
C 9.85598305 1.11479702 5.14075531 -0.00036395 0.00251902 -0.00562754
C 4.48881118 3.73168449 4.80032392 -0.00210358 0.00008279 -0.01069271
C 12.30605707 8.58545973 1.69914577 -0.00228255 0.00114939 -0.00183336
C 5.82234264 6.22443180 1.97226635 0.00034972 -0.00490625 -0.00824356
C 37.17471262 1.16528013 4.47200088 0.00349325 -0.00407430 0.00123283
C 5.46861413 2.88485704 5.17584050 -0.00050471 -0.00197413 -0.00108596
C 11.31166481 7.71807772 1.30607155 0.00839047 -0.00342293 -0.00409559
C 4.86071238 7.12116522 1.57880193 0.00134585 -0.01016095 -0.00152907
C -1.19010406 2.02654660 4.87209260 0.00304073 -0.01216767 0.00620343
C 5.36949697 2.01829577 6.24993388 0.00061632 -0.00464175 -0.00306313
C 11.42236305 6.90649503 0.17686261 0.00479613 0.00639619 0.00002574
C 5.01184032 7.88855676 0.34398623 0.00491598 -0.00204771 -0.00201258
C -1.40623479 2.86755900 5.95301488 -0.00528990 0.00143582 0.00285035
C 7.10756911 2.26101127 0.67536196 0.00660957 -0.00040868 0.00201753
C 9.65671845 7.03880076 5.40822022 -0.00064869 0.00260553 -0.00256020
C 3.18981057 7.70743309 5.69408037 -0.00258481 0.00171007 -0.00772763
C 0.30018267 2.95525776 0.59836715 0.00217030 0.00251501 -0.00024047
C 6.05544540 2.99745583 0.15189070 -0.00151949 0.00930721 -0.00490399
C -2.55464058 7.18206653 5.83408007 -0.00179409 -0.00216435 0.00561926
C 4.13241188 6.75825745 6.02507739 -0.00033020 0.00537497 -0.00428560
C 12.67416032 1.95119836 0.21964429 -0.00358884 0.00434943 0.00181758
C 2.14761606 5.06496431 3.65475225 -0.00133220 -0.00018174 -0.00170292
C 1.68059386 0.41610107 2.52238447 0.00854659 -0.00495797 -0.00060253
C 8.12436093 4.56101492 2.78495102 0.00115150 0.00250044 -0.00532093
C 8.20526500 9.67206452 3.60208991 0.00174569 0.00060769 0.00245388
C 0.91787672 6.00847022 3.40406869 -0.00524243 0.00420220 -0.00532587
C 3.03215071 0.94581875 2.86633055 -0.00146415 0.00649334 0.00031114
C 9.30976075 3.72295289 2.99187083 0.00409177 0.00209329 -0.00126007
C 6.80566814 9.07949627 3.49064953 -0.00262518 -0.00191535 0.00483758
C 0.02323134 3.75486228 11.29807276 0.00089729 -0.00325506 -0.00298241
C -2.47468001 8.00983838 7.05602782 -0.00064747 0.00399488 -0.00332328
C 4.07319056 5.93180884 7.13818103 0.00416967 0.00237857 -0.01041126
C 6.63520864 1.22130613 11.23175317 0.00196257 0.00415715 -0.00037492
C 1.22193043 3.56218658 10.54056911 -0.00137953 -0.00360521 -0.00264517
C 9.31793449 8.68570330 7.65557337 -0.00643493 -0.00211249 0.00623108
C 2.81468302 5.89876318 7.83655823 -0.00559097 -0.00225219 0.00146152
C -5.01370113 1.33709506 10.49252040 0.00744420 0.00310086 0.00078413
C 2.16688180 2.64798701 10.86661524 -0.00253784 -0.00455013 0.00141243
C 8.27920876 7.95089297 7.15362529 -0.00329781 0.00547858 0.00042440
C 1.76729016 6.74954172 7.42883944 0.00138254 -0.00067518 0.00777525
C -3.91543994 2.02694999 11.08343156 -0.00615480 0.00178779 -0.00673286
C 2.08385328 1.87535157 12.02060910 -0.00149266 -0.00429729 -0.00159118
C 8.39551004 7.10936124 6.04204874 -0.00263036 -0.00450804 -0.00871695
C 1.92751461 7.62658774 6.30548100 -0.00115902 -0.00164808 -0.00154389
C -4.11148219 2.78887300 12.24087303 0.00423883 0.00265590 -0.00211226
C 4.14353803 2.12356697 6.95831275 -0.00508908 -0.00252439 -0.00355342
C 6.76533491 7.07025603 11.41408666 0.00601097 -0.01199886 -0.00917545
C 0.26354018 7.67451712 11.71555607 -0.00381838 0.00883720 -0.00156966
C -2.64859217 2.79013916 6.64995219 0.00150702 0.00705069 0.00032644
C 3.06672857 2.82451357 6.46296085 -0.00711300 -0.00457961 0.00257288
C -5.41816279 7.51283793 12.22949364 0.00440990 0.00241368 0.00468826
C 1.20303003 6.77870967 12.09670921 -0.00064060 -0.00675046 0.00052024
C 9.59268479 1.98389043 6.18847309 0.00307494 0.00372910 -0.00106964
C -1.28033401 5.11634347 9.75086561 0.00306921 -0.00243122 0.00159345
C -1.63856760 0.44162387 8.72098661 0.00804438 0.00672253 -0.00074440
C 5.34742382 4.59147664 8.64041980 -0.00485807 0.00395747 0.00105390
C 5.45709227 9.53561086 9.78371384 -0.00894591 -0.00068141 0.00137020
C -2.62960552 5.70469931 9.63068097 0.00890941 -0.00272469 -0.00390624
C -0.42462269 1.29477284 8.88232148 -0.01236483 -0.00316727 -0.00067480
C 6.61885140 3.85656505 8.84392362 0.00064837 0.00374038 0.00914708
C 4.17638948 8.74402755 9.59490340 0.00071246 0.00318267 -0.00118145
C -2.72313311 3.58185831 17.50179095 -0.00781332 -0.00385635 0.00361876
C -5.68544651 8.35606276 13.30586209 0.00266630 -0.00426589 0.00292221
C 1.03090127 5.92489004 13.18821627 -0.00653227 0.00014017 0.00038901
C 3.76525931 1.01932118 17.54008131 0.00719528 -0.00013940 -0.00629293
C -1.57142901 3.44347231 16.73912456 -0.00538084 0.00019016 -0.00179192
C 6.43949751 8.50203463 13.78563973 0.00123240 0.00374948 0.00263044
C -0.10354288 6.04334469 13.96815245 0.00634924 0.00173901 0.00410547
C -8.23259243 1.04556203 16.75049659 0.00059967 0.00982795 0.00162476
C -0.52337444 2.68372289 17.12825536 -0.00282894 0.00183917 -0.00241600
C 5.43054874 7.71346237 13.29579142 -0.00219363 -0.00020546 0.00656141
C -1.11836255 6.92974517 13.60039596 0.00089477 -0.00322418 -0.00027767
C -7.20397114 1.89612519 17.16988924 0.00014694 -0.00810409 -0.00441058
C -0.61570173 1.77089895 18.20635100 -0.00444764 -0.00200194 0.00118502
C 5.53402808 6.98693454 12.09525641 -0.00485845 0.00143538 -0.00059702
C -1.00931093 7.62716362 12.38675779 0.00498534 0.00366380 -0.00982587
C -7.41043998 2.80229654 18.21453295 0.00574761 -0.00132146 0.00481712
C 0.88180666 1.99329601 12.77849988 -0.00171695 0.00175001 0.00062363
C 3.93484309 6.75357563 17.78902806 -0.00001844 0.00723877 -0.00207066
C -2.66897860 7.54078337 17.93381318 -0.00335315 -0.00711456 -0.00440703
C -5.30832165 2.68695796 12.92133844 -0.00412220 -0.00249238 0.00038243
C -0.12645870 2.87017405 12.35709196 0.00248329 -0.00265059 0.00331163
C -8.24508901 7.63413421 18.40319201 0.00362882 -0.00067839 -0.00270293
C -1.69898179 6.61882746 18.38106316 0.00689375 -0.00547598 -0.00264398
C 6.40221454 2.05105717 12.35256590 -0.00190062 -0.00327997 0.00772310
C -4.03315309 4.93278741 16.04745039 -0.00038199 -0.00099637 -0.00272260
C -4.41110991 0.25638080 14.76532475 0.00704799 -0.00569279 -0.00304680
C 2.31606791 4.46210526 14.64427984 0.00060311 -0.01028462 -0.00371489
C 2.49394476 9.32258172 15.82531412 -0.00081794 -0.00679342 0.00262464
C -5.31273102 5.68903196 15.94308739 0.00165359 0.00710232 0.00723571
C -3.38836369 1.28797158 14.91672746 -0.00674091 -0.00605904 0.00285423
C 3.53989656 3.54018470 14.68150878 -0.00877469 0.00063782 0.00942440
C 1.54116594 8.24569241 15.66865219 0.00162914 0.00070507 -0.00032901
C -5.79350341 3.71447734 23.48748729 -0.00142694 -0.00123941 -0.00126302
C -8.51154540 8.56540926 19.42402335 -0.00016812 0.00333449 0.00070059
C -1.90761985 5.83174484 19.49291221 0.00249868 -0.00051422 0.00331476
C 0.77767747 1.16403481 23.61481794 0.00186837 0.00073693 0.00470803
C -4.63114857 3.73495087 22.73352141 0.00414100 -0.00732520 -0.00225156
C 3.55377723 8.40865260 19.98489944 0.00429332 -0.00615891 -0.00466542
C -3.18769142 5.92439103 20.16704472 0.00158535 0.00397695 -0.00321052
C -11.11709351 1.35018977 22.81249116 0.00501365 -0.00409873 -0.00562270
C -3.70354652 2.83480481 23.19721414 0.00731327 -0.00082985 0.00275541
C 2.53988526 7.57206610 19.58939105 -0.00215794 -0.00047822 0.00166836
C -4.17225671 6.76606815 19.73816404 0.00104590 0.00098287 -0.00154896
C -10.25037172 2.23391747 23.24585583 -0.00844006 -0.00146132 -0.00149009
C -3.75491317 2.16185180 24.40860646 0.00017454 -0.00118253 -0.00618582
C 2.70112610 6.69299927 18.53280478 -0.00637990 -0.00128168 -0.00086726
C -3.90100626 7.60004154 18.59268514 0.00034736 0.00189716 0.00425650
C -10.51120830 3.06465094 24.36341204 -0.00570011 0.00084473 0.00215926
C -1.88730382 1.74750211 18.85736573 -0.00542320 -0.00424772 0.00741404
C 0.70134988 6.92957466 23.94315328 -0.00352816 0.00481897 -0.00375422
C -5.83724891 7.63345862 24.10911502 0.00534038 -0.00410708 0.00020949
C -8.69124925 2.70441364 18.92974305 -0.00012883 -0.00583783 -0.00258470
C -2.83564577 2.65934382 18.56097347 0.00299883 -0.00100192 0.00674967
C -11.56007829 7.55376760 24.33429596 0.00364110 -0.00181041 0.00371758
C 7.13908851 6.75744278 0.02526748 -0.00838080 -0.00096485 0.00242992
C 3.51766812 1.91079447 18.61819618 0.00223028 -0.00578171 0.00021762
C -7.14112682 5.01762328 21.90986001 -0.00792489 0.00032097 -0.00253328
C -7.42260061 0.36268895 20.89178897 -0.00098509 0.01226416 0.00633359
C -0.68562378 4.39077532 21.01301888 -0.00016424 -0.00295057 -0.00306573
C -0.49642674 9.37266814 22.04481206 0.00106177 -0.00203918 -0.00568473
C -8.36365193 5.88232984 21.81258205 -0.00258776 -0.00656869 -0.00439398
C -6.26640187 1.29609546 21.16320877 0.00657929 0.00254751 -0.00448731
C 0.44535848 3.46396850 21.12231723 -0.00150892 0.00571103 -0.00127152
C -1.68962722 8.50536466 21.94716064 -0.00494147 -0.00442747 0.00504837
C 3.03624594 13.32381747 5.11364884 -0.00165107 -0.00526280 0.00965191
C 0.37693681 18.22846512 0.93507088 -0.00061274 -0.00541201 0.00685499
C 7.03499820 15.47969339 1.06514172 -0.00934483 0.00208715 -0.00018291
C 9.62683308 10.78517307 5.23579883 0.00584579 -0.00169161 0.00257944
C 4.33644856 13.51983459 4.64595983 -0.00192322 -0.00032376 -0.00105592
C 12.43218306 18.02680600 1.80397067 -0.00558791 0.00112059 0.00376658
C 5.77495016 15.57661132 1.74366195 -0.00258690 -0.00139952 -0.00970622
C 37.09573858 10.65300389 4.60623117 -0.00072203 0.00526987 0.00937502
C 5.37201899 12.77479699 5.09659060 0.00772567 -0.00329615 -0.00776501
C 11.40703762 17.05469587 1.42318122 0.00455215 -0.00165539 -0.00614367
C 4.88385199 16.57351110 1.41721767 0.00790176 0.00311291 0.00333161
C -1.34958247 11.54206117 5.11347253 -0.00408571 0.00234080 0.00812049
C 5.10228462 11.85900634 6.14182511 0.00019256 -0.00342763 0.00233417
C 11.54242112 16.20214375 0.27686810 0.00456525 -0.00327082 -0.00294531
C 5.16388322 17.43665425 0.38605100 0.00127150 0.00285555 -0.00030486
C -1.51675617 12.10267966 6.47065487 0.00108864 -0.00237057 0.00101996
C 6.96039231 11.36955164 0.35382772 0.00594749 0.00266658 -0.00628504
C 9.51265293 16.27683571 5.64690976 -0.00138303 -0.00143905 0.00104422
C 2.98662752 17.22574906 5.52715518 -0.00561357 -0.00428679 -0.00254744
C 0.27840799 12.37359684 0.37962806 -0.00174327 -0.00058278 0.00047879
C -6.04502700 12.30021873 24.43228001 0.00144932 -0.00160396 0.00323719
C -2.42452518 17.03381192 5.97560114 0.00451823 -0.01256865 -0.00694534
C 3.97308505 16.34678431 5.99398859 -0.00389682 -0.00462957 0.00535299
C 12.50938125 11.78418674 0.05348794 -0.00414609 0.00585491 -0.00499742
C 1.79045087 14.69992022 3.55963833 -0.00230541 -0.00291788 -0.00691710
C 1.39114639 9.81162357 2.60321127 -0.00984070 0.00401972 0.00789099
C 8.19469670 14.17721782 2.69503562 -0.00225352 -0.00810495 -0.00277093
C 8.57872889 19.00041651 3.17645696 0.00218863 0.00254707 -0.00165275
C 0.64221694 15.53026219 3.35778410 -0.00220624 0.00261306 0.00235131
C 2.45108090 10.90380935 2.87465109 -0.00089607 0.00485159 0.01071091
C 9.51240505 13.36031684 2.93694596 -0.00358461 0.00477847 -0.00455704
C 7.43766311 18.08795500 2.99869227 0.00286836 -0.00003804 0.00661267
C 0.09715167 13.13831747 11.14894199 -0.00037053 -0.00371310 0.00461047
C -2.67435832 17.89276716 7.09852674 -0.00910140 -0.00723879 -0.00475817
C 3.73936874 15.60923412 7.13639129 -0.00385765 0.00569918 -0.00053961
C 6.81766599 10.75246069 11.36251510 0.00247175 -0.00265129 -0.00430107
C 1.28905891 13.13575417 10.41154463 0.00555195 -0.00432032 -0.00083562
C 9.05005960 18.17493906 7.63821983 0.01044873 0.00315883 -0.00191577
C 2.47271532 15.63766115 7.76063479 0.00196413 0.00238599 0.00171363
C 33.91407511 10.50318685 10.61319234 0.00610886 -0.00101329 -0.00688203
C 2.29530175 12.28829036 10.86194065 -0.00056700 0.00314424 -0.00557738
C 8.07412004 17.23450792 7.33491706 -0.00137855 0.00537085 -0.00482209
C 1.49949190 16.51536780 7.28571005 -0.00139186 -0.00606193 -0.00243791
C -4.47722372 11.44840748 10.99801463 -0.00397943 0.00100998 0.00303085
C 2.20169101 11.49754040 12.01115477 0.00597480 -0.00144627 -0.00032524
C 8.24673506 16.29316724 6.35913348 -0.00326888 -0.00746121 -0.00464930
C 1.75055751 17.36999004 6.13009627 -0.00105315 -0.00013355 -0.00217535
C -4.59257541 12.25402913 12.13004782 -0.00724271 0.00313569 -0.00472084
C 3.82345444 11.63278886 6.64053901 0.00169409 0.00241738 -0.00291030
C 6.66660527 16.60226453 11.63226254 -0.00205536 -0.00468176 0.00221828
C 0.38204010 16.89844471 11.53119361 0.00660882 -0.00106401 0.00087279
C -2.81576877 11.89281790 7.02118448 0.00157724 -0.00605243 0.00602490
C 2.79696343 12.39700907 6.16483845 -0.00030602 0.00457142 0.00276610
C -5.41256918 17.03714020 11.88587412 0.00093988 -0.00739586 -0.00332870
C 1.26764170 16.04143517 12.05483102 -0.00012028 -0.00137479 0.00524328
C 9.51603071 11.56769354 6.37562226 -0.00662802 0.00423711 0.00637266
C -1.09436056 14.63116473 9.65953367 -0.00304188 -0.00566529 -0.00647412
C -1.25872289 9.46342927 8.44364464 0.00118800 -0.00528467 0.00236633
C 4.73663161 14.18897900 8.85897633 0.00142641 -0.00315027 -0.00190531
C 5.49295539 19.02142158 9.37114595 0.00278847 -0.00251762 0.00392110
C -2.44397554 15.26270142 9.47451969 -0.00160674 -0.00791091 0.00843895
C -0.07937702 10.28998993 8.69212296 -0.00485978 0.00064003 0.01035079
C 6.04346274 13.53996410 9.29621251 -0.00177463 -0.00406443 0.00201827
C 4.35849226 18.19912261 9.28397562 -0.00535865 0.00754793 0.00257096
C -2.98487695 13.21572562 17.31777777 -0.00161963 -0.00478188 0.00883262
C -5.59648110 17.86293939 13.01547270 0.00059481 -0.00117120 -0.01081294
C 0.96800063 15.26021170 13.22257459 -0.00611166 0.00197432 0.00717983
C 3.74865241 10.63137833 17.44195777 -0.00841070 0.00161067 -0.00264663
C -1.73459419 13.09754441 16.62203918 0.00310193 -0.00190781 -0.00114775
C 6.04489082 18.07709738 13.84852604 0.00121362 0.00426436 0.00701918
C -0.25717390 15.47202433 13.90751250 0.00460033 -0.00274343 0.00191135
C -8.00239335 10.73514380 16.78115770 -0.00342727 -0.00205543 0.00525113
C -0.79733257 12.16623826 16.99696497 -0.00094018 0.00141806 0.00086441
C 5.12008357 17.20213661 13.42386524 -0.00246146 0.00202568 0.00528075
C -1.09209053 16.42149132 13.44442834 -0.00012974 -0.00047057 -0.00270681
C -7.00977222 11.59188810 17.18985817 -0.00167663 -0.00972935 -0.00183124
C -0.96177354 11.39329105 18.11030189 -0.01107342 -0.00076263 -0.00352035
C 5.39248585 16.52687732 12.22459249 0.00328202 0.00843095 -0.00482413
C -0.83742347 17.10891316 12.18477423 -0.00214973 0.00315932 0.00465358
C -7.29868468 12.34143937 18.36972286 0.00889614 0.00430503 0.00320832
C 0.96823642 11.46572530 12.66732420 -0.00232511 -0.00227563 0.00677334
C 3.86143362 16.28703028 17.94405688 0.00350767 -0.00153438 -0.00009609
C -2.87809796 17.16128103 17.82499493 0.00021095 0.00669152 0.00203047
C -5.82735292 12.20955638 12.85131093 0.00244000 -0.00155324 -0.00226731
C -0.10012886 12.17087403 12.19874899 -0.00124610 0.00382383 -0.00495888
C -8.51809871 17.15915668 18.29578585 -0.00398709 -0.00044231 -0.00803655
C -1.94328107 16.19238930 18.19584052 -0.00344166 0.00134695 -0.00579442
C 6.69155504 11.46209640 12.59475128 -0.00075359 0.00991829 0.00345591
C -4.10174482 14.70108462 15.80895167 0.00391639 -0.00261768 0.00391940
C -4.35895601 9.73865716 14.84957322 -0.00475407 -0.00122266 0.00173419
C 2.07625547 13.85444669 14.86600421 0.00356663 0.00301434 -0.00426622
C 2.65744989 18.84934878 15.76623843 0.00991453 -0.00023206 0.00213303
C -5.18138093 15.68437737 15.79468171 -0.00986208 0.00295384 -0.00492017
C -3.17966921 10.65281605 14.97948077 0.00366399 0.00129608 0.00007904
C 3.19622091 12.78648277 15.02201648 0.00392683 -0.00084841 -0.00892986
C 1.55163256 17.87036134 15.56716113 -0.00303720 -0.00576002 -0.00203575
C -5.88791174 13.24867508 23.44271574 -0.00638807 -0.01230697 -0.00392060
C -8.66981385 18.01255447 19.36691615 -0.00730046 0.00343769 0.00324184
C -2.10172133 15.43023034 19.34676043 0.00123026 -0.00141717 -0.00566563
C 0.64290875 10.87260170 23.44686162 0.00118726 -0.00401449 -0.00145773
C -4.71431242 13.23565505 22.65376435 0.00062407 0.00205250 0.00551100
C 3.29754802 18.21433504 19.91521963 0.00023147 0.00029493 -0.00213639
C -3.28832546 15.61315190 20.13823392 -0.01104593 -0.00149654 0.00053549
C 28.12470925 10.81962053 22.56421773 0.00997937 0.00394673 0.00086002
C -3.67825677 12.50534991 23.10251094 0.00409050 0.00111341 -0.00871453
C 2.33065181 17.35706385 19.47887766 -0.00265678 0.00733828 -0.00474975
C -4.25802156 16.55357506 19.73821965 0.00389091 0.00290513 0.00505714
C -10.31980149 11.72239106 23.03440672 0.00809386 0.00020817 0.00703041
C -3.79209921 11.65205163 24.31281832 -0.00435620 -0.00258443 -0.00086568
C 2.60303218 16.38987096 18.49177729 0.01151935 -0.00300130 0.00571392
C -4.02899387 17.42929027 18.61882282 0.00148749 -0.00256966 0.00080593
C -10.53100554 12.50642858 24.19586147 -0.00082773 0.00812511 -0.00197563
C -2.15491390 11.42881840 18.80616479 0.00298537 0.00125933 0.00433261
C 0.77311738 16.33047980 24.11004044 -0.00473022 0.00249190 -0.00069970
C -5.64901779 17.34404891 24.22059884 -0.00227021 0.00109091 -0.00035760
C -8.63267717 12.28789391 18.89286964 0.00169600 0.00084580 0.00243640
C -3.17348241 12.29866781 18.40790792 -0.00710960 -0.00098524 -0.00190306
C -11.50669897 17.42938406 24.31376474 0.00585579 0.00426181 0.01081196
C 7.33389844 16.43895704 0.09035267 -0.00058927 -0.00033603 0.00034420
C 3.50927572 11.36499588 18.58392490 -0.00346335 -0.00266095 -0.00211946
C -7.21489501 14.77466724 22.09550329 0.00270110 0.00088156 -0.00431831
C -7.08834493 9.91106070 20.91453695 -0.00107829 -0.00325832 0.00047788
C -0.62716109 14.14968590 20.87908039 -0.00347449 -0.00996320 0.00385910
C -0.34530984 18.83107473 21.94097965 -0.00672872 0.00777527 -0.00056928
C -8.40582648 15.67181183 22.02696900 0.00578599 0.00003225 0.00002850
C -5.81734718 10.83090918 20.82060759 0.00026982 -0.00212739 0.00279224
C 0.56017934 13.17935738 20.99393249 -0.00749933 -0.00755336 0.00051990
C -1.36335619 17.80888373 21.67958188 0.00168245 -0.00032823 0.00112560
C 3.15433905 23.07081947 5.05696597 0.00309477 -0.00518981 -0.00289353
C 0.33567396 27.93559793 0.99601460 -0.00697745 0.00032397 0.00367922
C 6.82533149 25.14042962 0.96695200 -0.00768317 -0.00792447 0.00159108
C 9.68034170 20.25395192 4.97227012 0.00155104 0.00163683 -0.00653523
C 4.30614035 23.01219028 4.29876128 0.00692180 -0.00197216 -0.00367505
C 12.44481105 27.73671285 1.79106840 -0.00290047 -0.00292485 -0.00482901
C 5.66511031 25.20697964 1.71253578 -0.00016751 0.00362871 0.00167533
C -2.22508343 20.22009177 4.52846622 -0.00461183 0.00077490 -0.00484357
C 5.39031922 22.16684822 4.65571399 0.00071350 -0.00161562 -0.00166322
C 11.38433732 27.04232463 1.25357231 -0.00174059 0.00107387 0.00012714
C 4.73177334 26.14403585 1.39817932 -0.00203938 0.00052341 0.00431589
C -1.25390799 21.14117767 4.89208515 0.00422667 -0.00840691 0.00055224
C 5.28368614 21.22443277 5.69671304 0.00180975 0.00133549 -0.00059965
C 11.51057597 26.16407715 0.09931432 0.00152081 0.00389610 -0.00319016
C 4.93652467 26.97562231 0.23286874 0.00529147 0.00772233 0.00241809
C -1.44017455 21.94011442 6.05117803 0.00125395 -0.00044760 -0.00160694
C 7.01479257 21.39733587 0.68282140 -0.00106025 0.00736776 0.00175207
C 9.75094799 26.00846246 5.52759134 -0.00068173 0.00288068 0.00116933
C 2.96694850 26.92200493 5.39745201 0.00698703 0.01107128 0.00810161
C 0.25813070 22.03994413 0.50144708 -0.00574587 -0.00168132 -0.00690486
C 5.94679497 22.13545248 0.22192494 -0.00086855 -0.00371550 0.00461812
C -2.27437301 26.87600903 5.99782118 -0.00466793 0.00216035 -0.00061068
C 3.98535708 26.12812234 5.82048437 -0.00107743 -0.00796072 -0.00377140
C 12.51235287 20.93070252 0.35504488 0.00569357 0.00206283 -0.00770817
C 1.72316002 24.40587482 3.58316401 -0.00272542 0.00530003 -0.00307741
C 1.64089343 19.59092370 2.49345202 0.00003964 -0.00084597 0.00061323
C 8.15370656 23.79097799 2.47940964 0.00512121 0.00186505 0.00490168
C 8.54677677 28.68052475 3.57390418 0.00642771 -0.00077856 -0.00713578
C 0.31541579 25.08121930 3.42929158 -0.00544451 -0.00030402 0.00148746
C 2.99067125 20.30332207 2.66401884 -0.00357744 -0.00681339 -0.00121005
C 9.41938129 23.04555624 2.58865625 0.00442913 -0.00187487 -0.00012729
C 7.29635232 27.94856940 3.14967769 0.00170113 -0.00027525 0.00049165
C 0.15464944 22.84837185 11.30201154 -0.00023879 0.00363204 -0.00563336
C -2.55053339 27.62557483 7.14803306 0.01036649 0.00025576 0.00827182
C 3.89339869 25.31343809 6.96532635 -0.00394162 0.00076715 0.00375954
C 6.71952486 20.37822454 11.01453948 0.00313579 0.00694052 -0.00379543
C 1.44594534 23.04454576 10.78438441 0.00016216 0.00657005 0.00283332
C 9.39508365 27.63049692 7.82273127 -0.00273227 0.00049004 -0.00007356
C 2.60256400 25.18364478 7.55967756 -0.00409127 0.00489055 0.00861271
C -5.17301556 20.39584129 10.53493646 0.00062948 -0.00471212 -0.00273265
C 2.44848956 22.12239148 11.06602379 0.00166263 0.00192881 -0.00317694
C 8.30288010 26.82251748 7.33020540 0.00525429 0.00213516 -0.00315367
C 1.59575932 26.01470406 7.14894819 0.00469612 -0.00933689 0.00429899
C -4.36200743 21.38935869 10.96753285 -0.00156126 -0.00332666 -0.00552391
C 2.29262211 21.18778002 12.09201076 0.00071647 0.00703250 0.00584465
C 8.50591811 25.94485243 6.26326839 0.00293896 0.00006321 0.00388500
C 1.71459497 27.02179131 6.12065508 -0.00800174 0.00699657 0.00177446
C -4.49401583 22.04986485 12.19016997 0.00528034 0.00506788 -0.00314685
C 4.13411084 21.29218186 6.51722291 0.00610236 0.00208292 0.00438207
C 6.70063621 26.27875625 11.56421416 0.00696498 0.00413121 0.00274190
C -0.05926003 26.66499979 11.54169615 0.00185962 -0.00818761 0.00266115
C -2.74864064 21.88165677 6.61058265 0.00811200 -0.00206895 -0.00642260
C 3.10430887 22.16776738 6.15802738 -0.00541071 -0.00061580 -0.00244341
C -5.52212191 26.97952922 12.00694484 -0.00525658 0.00201537 -0.00415292
C 0.98639181 25.87695541 11.96750560 -0.00332711 -0.00284159 0.00795225
C 9.36537631 21.05192822 6.13570406 0.00137106 -0.00022464 0.00097374
C -1.37599795 24.17267291 9.91315177 -0.00305050 -0.00038617 -0.00361012
C -1.51303260 19.35968133 8.63119987 -0.00079663 0.00131509 0.00057166
C 4.95969643 23.83463757 8.56567277 -0.00310901 -0.00831197 -0.00132895
C 5.33605197 28.70617055 9.71471676 0.00864568 0.00167693 0.00122622
C -2.63920202 24.99923839 9.79153815 0.00411249 -0.00791477 0.00427657
C -0.27339581 20.14938966 8.83567313 -0.00359996 -0.00190325 0.00016858
C 6.06916818 22.90469109 8.67065055 -0.00144477 -0.00315604 -0.00919270
C 4.09773400 27.84864516 9.62833127 0.00552258 -0.00288789 0.00493294
C -2.69694833 22.77975322 17.38386522 -0.00359715 -0.00362801 0.00200430
C -5.70073455 27.70821228 13.19693625 0.00003408 -0.00273169 -0.00994287
C 0.94836860 25.13561164 13.15298333 0.00190849 0.00767791 0.00267394
C 3.69203453 20.37529200 17.40617170 0.01070507 0.00542232 0.00851998
C -1.47069001 22.64838239 16.62161691 0.00142763 0.00504189 -0.00733599
C 6.20975645 27.71096486 13.84194073 0.00314006 0.00393385 0.00665358
C -0.27231301 25.24225466 13.91844640 -0.00660690 0.00095546 -0.00144545
C 31.13015980 20.40364657 16.64037952 0.00938172 0.00137272 0.00063702
C -0.42757035 21.78819449 17.00092372 0.00215248 0.00065705 0.00052627
C 5.26249372 26.90474744 13.34403829 -0.00002755 0.00003979 -0.00581040
C -1.27192619 26.04443722 13.49475276 0.00000153 -0.00704160 0.00022791
C -7.17771714 21.15587411 17.16254116 0.00150431 -0.00670119 -0.00025957
C -0.64273127 21.07593030 18.18489275 0.00090947 -0.00125290 0.00421218
C 5.50568989 26.12391608 12.22342608 -0.00137020 -0.00049517 -0.00529009
C -1.16768486 26.80942721 12.32834664 0.00519967 -0.00178185 0.00222729
C -7.21223081 21.84624812 18.45412592 -0.00939372 -0.00997099 -0.00719254
C 0.99602158 21.04958390 12.65853017 0.00621034 -0.00761000 0.00453220
C 4.09065308 25.95524072 17.93405856 0.00468766 -0.00568814 0.00478141
C -2.53613184 26.70531766 17.85930498 0.00445149 -0.00950152 0.00074431
C -5.61675899 21.67361637 12.96660474 0.00658808 -0.00099047 0.00164010
C -0.00621181 21.89902539 12.33923615 0.00003320 0.00132013 0.00240099
C -8.38830348 26.94000150 18.20960471 -0.00570832 0.00306063 -0.00631940
C -1.59534211 25.86639241 18.27253311 0.00353751 -0.00138751 0.00163832
C 6.42886924 21.20696305 12.09036650 0.00341754 -0.00611472 0.00109979
C -3.99072262 24.29317534 15.93811224 -0.00470055 0.00210736 -0.00293433
C -4.15759510 19.34338459 14.50630280 0.00367091 0.00130998 0.00321234
C 2.12863834 23.59420352 14.62772901 0.00102031 -0.00427097 -0.00617611
C 2.72263548 28.36198075 15.77859046 0.00096707 -0.00233911 -0.00153899
C -5.19092261 25.10006960 15.82810328 -0.00033000 0.00224936 0.00447360
C -2.86143439 20.10193013 14.50223453 0.00186702 -0.00345698 0.00274729
C 3.20357545 22.53506191 14.68862059 0.00499540 -0.00962700 -0.00572262
C 1.55609293 27.46981188 15.53513598 0.00038363 0.00248041 0.00078707
C -5.94625770 22.91976841 23.50813777 -0.00275366 -0.00050608 -0.00134877
C -8.59458661 27.87066416 19.26443421 -0.00408559 0.00147949 -0.00311400
C -1.77406581 25.08627521 19.40402582 0.00336173 -0.00242673 -0.00075972
C 0.66828649 20.16412788 23.68710518 0.00174815 -0.00396662 -0.00451673
C -4.81145000 22.91261318 22.74699945 0.01417783 -0.00068928 -0.00161767
C 3.51008503 27.61291278 20.07441975 0.00159022 0.00344172 -0.00309830
C -3.05092139 25.13231335 20.05956931 -0.00222635 0.00037651 0.00253796
C 28.15349326 20.53099788 22.65982734 -0.00430889 0.00875130 0.00133800
C -3.72790963 22.16507889 23.17274712 0.00581137 0.00402066 -0.00512391
C 2.50436191 26.82515806 19.50579229 -0.00603499 -0.00017547 -0.00329117
C -3.97420000 26.05783407 19.63312921 0.00586389 0.00261617 0.00248154
C -10.28886685 21.46848212 23.12742378 -0.00621568 -0.00767956 -0.00228479
C -3.84506710 21.35511896 24.33857587 0.00685886 -0.00389791 -0.00180055
C 2.78542763 25.96486452 18.45719281 0.00487217 -0.00617259 0.00217130
C -3.75333906 26.89745203 18.52573449 0.00388547 -0.00162496 -0.00102160
C -10.54584155 22.29036012 24.29619890 0.00248418 -0.00354873 -0.00007698
C -1.92160029 20.98962839 18.79662766 -0.00367899 -0.00201454 -0.00132519
C 0.75110112 26.02292362 23.98324816 -0.00303205 0.00019739 -0.00183249
C -5.96336667 26.81782029 23.91888116 -0.00077650 0.00103065 0.00213766
C -8.50910711 21.87356663 19.01298962 0.00549632 -0.00285901 0.00076482
C -2.94821187 21.87236134 18.42024261 0.00231084 0.00215763 -0.00110351
C -11.39795662 27.06431396 24.39441280 -0.00033922 -0.00069683 0.00425447
C -5.01135631 25.96290253 24.32261098 -0.00362217 -0.00110713 0.00409646
C 3.47192689 21.13727401 18.58233043 0.00122458 -0.00136957 -0.00606046
C -7.23534760 24.26324581 21.99719778 -0.00164538 -0.00149921 0.00638035
C -7.40669905 19.44324739 20.85716190 0.00308573 0.00050817 -0.01160042
C -0.67365348 23.75782190 20.99275650 0.00689236 -0.00390910 -0.00772809
C -0.28278494 28.52506928 21.99685403 -0.00049404 -0.00005303 -0.00363732
C -8.46145119 25.04963020 22.00223848 -0.00294526 -0.00289036 0.00204839
C -6.15781709 20.19172020 21.19526650 0.00164767 -0.00354310 0.00676384
C 0.64781509 23.04607752 21.34877392 -0.00175214 0.00371761 -0.00235287
C -1.51489628 27.76469177 21.79508057 0.00031665 -0.00094490 -0.00595627
C 16.15056690 3.63920948 5.19786681 -0.00410755 0.00143306 0.00334904
C 13.49381194 8.63940862 1.01979005 -0.00737580 0.00950095 0.00504516
C 20.01857741 5.80230614 1.18781583 -0.00007467 -0.00224686 -0.00181331
C 22.76775207 1.00018008 5.28852247 -0.00027599 0.00162451 -0.00585229
C 17.35561461 3.57224379 4.51342905 0.00685438 0.00074586 -0.01348742
C 25.20082421 8.33778151 1.55451406 -0.00219958 0.00749441 0.00202674
C 18.70000353 5.88004438 1.77296327 0.00793659 0.00198037 -0.00138415
C 11.09485225 1.12371710 4.59875182 0.00186706 -0.00097047 -0.00417567
C 18.34748263 2.64935606 4.83442986 -0.00270364 0.00235472 0.00208419
C 24.15293624 7.62820566 1.03609316 -0.00658635 -0.01000752 0.00843324
C 17.70032273 6.68531986 1.28792971 -0.00387156 0.00794380 0.00587338
C 12.11923730 2.00926964 5.02456708 0.00295472 0.00590477 0.00158141
C 18.28294481 1.81249924 5.95045889 -0.00209194 0.00228074 -0.01030417
C 12.39777137 6.72637053 24.38785045 -0.00650120 -0.00143917 0.00293532
C 18.01818466 7.49696934 0.21402922 0.00719190 0.00449489 0.00215395
C 11.89997952 2.80439451 6.11775292 -0.00063067 -0.00289899 -0.00848684
C 20.12820175 2.04027969 0.78462382 0.00109472 -0.00006918 0.00509481
C 22.90234775 6.63259255 5.56509618 -0.00938307 0.00264787 -0.00394893
C 16.45246814 7.47495845 5.55831108 0.00121596 0.00692367 -0.00036121
C 13.72232039 2.75824486 0.70142868 -0.00445065 0.00009841 -0.00002177
C 19.07385533 2.75000941 0.34535617 -0.00190917 0.00092812 -0.00343355
C 10.73626590 7.76840655 5.92683361 0.00519140 0.00122161 0.00776529
C 17.44437770 6.65894887 6.04660129 0.00118207 0.00283163 -0.00288563
C 25.83533511 1.84016485 0.25111498 -0.00008341 0.00475889 0.00391180
C 14.95386801 5.02898274 3.67439562 -0.00337548 -0.00199539 -0.00644815
C 14.97882007 0.31223232 2.51718101 0.00261322 -0.00040937 -0.00292743
C 20.99574060 4.39759220 2.79758847 -0.00737752 0.00106985 0.00126629
C 21.56740118 9.40762985 3.58135977 0.00672809 0.00500940 0.00269778
C 13.78781379 5.96541944 3.68914240 0.00305649 0.00251125 0.00401960
C 16.31231462 0.94598004 2.79097722 -0.00267606 -0.00620044 -0.00244093