2880
Time=68000.00000006 pbc="T T T" Lattice="39.34364034 0.00000000 0.00000000 0.00000000 28.81378124 0.00000000 -12.01121016 0.00000000 24.33363205" energy=-18397.64798713 virial="25.61416481 -16.60135434 -49.95915150 -16.60135434 16.73350079 19.34852743 -49.95915150 19.34852743 36.41546572" stress="0.00337060 -0.00067020 -0.00182464 -0.00067020 0.00318373 0.00063529 -0.00182464 0.00063529 0.00391104" Properties=species:S:1:pos:R:3:vel:R:3
C 3.23138677 3.66060789 5.13511652 -0.00231808 0.00055519 -0.00127747
C 0.22530853 8.35083048 0.94060153 0.00634402 -0.00213994 -0.00229786
C 6.99632642 6.06098869 0.80002345 -0.00390015 0.00095835 -0.00377026
C 9.69708700 1.42835192 4.99798906 0.00324936 0.00221933 -0.00100671
C 4.42192278 3.60015630 4.47816905 0.01173778 0.00265092 0.00576108
C 12.39435488 8.52829317 1.68971454 0.00247517 0.00098737 0.00112167
C 5.84562572 6.04766189 1.54476405 -0.00826156 0.00572685 -0.00321097
C -2.04245289 1.15056854 4.47650091 -0.00294614 -0.00036735 -0.00613832
C 5.38844603 2.71085150 4.83534889 0.00283667 -0.00124350 -0.00520635
C 11.45035747 7.64791197 1.16218458 -0.00371325 0.00005159 0.00158868
C 4.78561545 6.82068785 1.14614313 0.00218023 -0.00974661 -0.00040539
C -1.21389884 2.23666922 4.79231040 0.00062929 -0.00794094 0.00162178
C 5.29338847 1.90534858 5.99851297 0.01163291 -0.00737465 -0.00603123
C 11.70541724 6.84964203 0.07892565 -0.00434322 -0.00439788 0.00713612
C 4.86456852 7.69320911 0.02944963 -0.00394765 -0.00195142 0.00631696
C -1.36188803 2.96434650 5.99299620 0.00655259 -0.00698415 -0.00390677
C 6.93093198 2.18423947 0.50332762 -0.00586347 -0.00268138 -0.00727129
C 9.58174860 7.09166829 5.11993942 -0.00075450 0.00303949 -0.00036252
C 3.19194206 7.88483256 5.48671642 0.00305197 0.00068666 -0.00012406
C 0.35649274 2.72132711 0.61535657 -0.00217520 -0.00308773 0.00367661
C 5.95647867 3.11993291 0.14177104 -0.00309385 -0.00051388 -0.00466185
C -2.19032203 7.82134277 6.19650019 0.00046756 0.00475118 -0.00059073
C 4.12872792 6.91557540 5.89132304 -0.00215543 0.00249802 0.00045445
C 12.56750408 1.88656653 0.05134166 0.00076751 -0.00278639 -0.00193979
C 1.96476850 4.98624046 3.59097498 0.00011756 -0.00315574 -0.00373676
C 1.24218210 0.19641728 2.52804345 0.00499833 0.00593061 0.00376382
C 8.36396802 4.57882261 2.23078218 0.00216682 0.00463084 -0.00452723
C 8.44445028 9.39193459 3.38991580 0.00171433 0.00751204 0.00202196
C 0.60300327 5.57595467 3.50453585 -0.00007164 0.00142377 -0.00908049
C 2.38738303 1.10853994 2.80587683 0.00665621 -0.00257656 0.00314352
C 9.60490411 3.68705202 2.32319023 0.00388825 0.00470169 0.00080381
C 7.12917766 8.73712056 3.17213467 -0.00710384 0.00572700 -0.00817517
C 0.20229310 3.87006870 11.18754022 0.01177564 -0.00295058 -0.01330260
C -2.47851724 8.67657773 7.26732412 0.00338241 -0.00936725 -0.00397253
C 3.92380176 6.12501779 6.99651306 0.00506898 -0.00491801 -0.00163972
C 6.76438321 1.10593538 11.01548356 -0.00031277 -0.00854381 -0.00466809
C 1.41580814 3.67452425 10.49690403 0.00527902 -0.00307815 -0.00072398
C 9.29263106 8.48832582 7.47254641 0.00625274 -0.00263592 0.00363396
C 2.76113762 6.22545897 7.70602039 0.00347200 -0.00030941 0.00135345
C 34.02672063 1.08208124 10.66041625 0.00582605 0.00120537 -0.00545519
C 2.28273625 2.82824450 11.08455252 0.00410465 0.00556536 -0.00082568
C 8.23184925 7.72163944 6.99334305 0.00447083 -0.00442324 0.01364923
C 1.75581901 7.08456481 7.28905876 -0.00356890 -0.00368896 0.00689519
C -4.37506619 2.07643563 10.87786035 -0.00486090 -0.00747444 0.00077082
C 1.96292512 1.91308120 12.10607824 -0.00353876 0.00151797 0.00313587
C 8.34988678 7.06503379 5.73730766 -0.00078893 0.00019334 0.00122059
C 1.99113090 8.00383341 6.21120253 -0.00773475 0.00225950 0.00695920
C -4.43459939 2.95118114 11.96365802 0.00415196 0.00356011 -0.00224193
C 4.16017605 2.13269722 6.83975932 0.00128650 -0.00242210 -0.00063864
C 6.90295812 6.72330719 11.48681600 -0.00320419 -0.00486213 -0.00051411
C 0.44624372 7.65312075 11.76256518 -0.00575796 0.00282314 -0.00504527
C -2.55273602 2.81458985 6.72954351 0.00113883 0.00285459 -0.00768704
C 3.03261204 2.75797293 6.28212696 0.00140098 0.00855780 0.00106178
C -5.48251829 7.41799873 12.22505613 -0.00602327 0.00397059 -0.00122620
C 1.41177706 6.80957755 12.19418287 0.01057168 -0.00486184 0.00393886
C 9.60981268 2.33093784 6.06877643 -0.00100041 0.00834401 -0.00436285
C -0.60702441 5.44437153 9.53684753 0.00421827 0.00859808 0.00278287
C -1.35719898 0.11965539 8.66066119 -0.00505196 0.00132057 0.00449895
C 5.20412564 4.80475025 8.54361935 0.00226751 -0.00158742 -0.00510078
C 5.45134336 9.24004019 9.77021239 0.00295839 -0.00465360 0.00656170
C -1.58153293 6.50105550 9.30229689 0.00076049 0.00151321 0.00212810
C -0.22899446 1.08479272 8.81117386 -0.00600564 -0.00407014 -0.00377799
C 6.50538957 4.06763014 8.66931259 -0.00106003 -0.00418144 0.00015256
C 4.29318081 8.29104734 9.64545564 0.00116620 -0.00670173 0.00300580
C -2.61147450 3.64611616 17.37612444 0.00300262 0.00290869 0.00817859
C -5.64764330 8.27508291 13.26712216 0.00341017 -0.00141435 -0.00609170
C 1.20601045 5.85812410 13.21044744 -0.00285470 -0.00495527 0.00974130
C 3.60401469 1.12160228 17.16427369 0.00525028 0.00443839 -0.00123652
C -1.45702626 3.59269476 16.61274540 -0.00385507 -0.00133408 0.00391711
C 6.55439856 8.29500250 13.87532402 -0.00138338 -0.00229484 -0.00223215
C -0.04745314 5.88878166 13.84885002 0.00047772 0.00014091 -0.00858721
C -7.94782579 1.57571051 16.60017712 -0.00223984 0.00426868 0.00370879
C -0.44435780 2.66781153 16.91836497 -0.00465029 0.00387861 0.00084526
C 5.59384226 7.37822353 13.47938787 0.00046617 0.00565327 0.00191097
C -1.02040395 6.76134541 13.44170793 -0.00255932 0.00268982 0.01430958
C -6.84782303 2.24284091 17.09951161 -0.00226416 0.00158274 -0.00380633
C -0.53484547 1.88965993 18.10849570 0.00490531 0.00528478 0.00386205
C 5.72423736 6.66788020 12.26730426 -0.00358437 -0.00179964 -0.00215782
C -0.84936818 7.65150073 12.37191072 0.00106198 0.00270082 0.00677588
C -6.96706641 2.83977632 18.42142067 -0.00435264 0.00668518 0.00389605
C 0.73506512 2.09052443 12.73039423 -0.00433537 -0.00356633 -0.00612799
C 3.76869777 6.76848558 17.63197420 -0.00052634 0.00073855 -0.00190551
C -2.61112806 7.63506573 17.92317050 0.00542194 0.00312061 0.00851723
C -5.64432257 2.95597601 12.65183489 0.00580558 -0.00091400 -0.00018990
C -0.15501983 3.10950115 12.28381769 0.00135416 0.00078097 -0.00395553
C -8.36644376 7.54518078 18.10238498 -0.00044572 -0.00418241 -0.00007454
C -1.60058018 6.76948303 18.32911941 0.00135758 -0.00795673 0.00002609
C 6.51885138 1.96333971 12.06682311 -0.00071501 -0.00293044 -0.00874369
C -3.73214485 5.13775348 15.83809934 0.00169075 -0.00270393 0.00137609
C -4.06832882 0.38313158 14.85594172 0.00420966 0.00316251 -0.00185896
C 2.31420040 4.32304071 14.65451602 0.00159516 -0.00149093 -0.00315584
C 2.33043540 9.16519472 15.49992859 0.00066545 -0.00443391 0.00206005
C -4.66798661 6.23323032 15.70492197 0.00299812 -0.00424417 0.01002081
C -2.74135297 1.03568400 15.12927130 0.00536413 0.00056745 -0.00273744
C 3.47661056 3.36025839 14.77413749 0.00126763 -0.00095363 0.00079297
C 1.02848028 8.52805647 15.37395180 0.00325715 -0.00011535 0.00803992
C -5.87255490 3.95471813 23.34485099 0.00806561 0.00683554 -0.00162409
C -8.52824973 8.33929458 19.19209264 0.00536884 0.00109024 0.00149176
C -1.79852872 5.93005701 19.46927949 -0.00564651 -0.00211568 0.00480042
C 0.78221083 1.12554022 23.25788630 -0.00203440 -0.00214349 -0.00048883
C -4.66510908 3.88903602 22.64306660 -0.00509167 -0.00924292 0.00432793
C 3.45493816 8.29643167 19.86222902 -0.00334832 0.00051467 0.00238664
C -3.01665645 6.09632803 20.20733755 -0.00803145 -0.01137322 0.00176410
C 28.12477087 1.20262966 22.67213068 0.00097892 -0.00408013 -0.00068060
C -3.78448001 2.84525792 22.98644764 0.00462269 0.00194303 -0.00310233
C 2.40322390 7.46070489 19.50735874 0.00213951 -0.00707250 0.00375942
C -4.05346439 6.94520185 19.77326152 0.00326087 -0.00646220 -0.00616767
C -10.29921874 2.19959698 23.00796183 -0.00431563 0.00230071 -0.01155348
C -3.94223610 1.98745379 24.08419798 0.00392823 0.00255428 -0.00274916
C 2.63771244 6.60454785 18.40705436 0.00317958 0.00220885 0.00304230
C -3.83768769 7.72964459 18.59504460 0.00108892 0.00484132 0.00400442
C -10.46550829 2.90172182 24.19749407 -0.00025484 -0.00026472 0.00141775
C -1.74232466 1.99122464 18.82223552 -0.00196355 0.00131115 0.00040804
C 0.99818901 6.92148778 23.85905233 0.00020639 0.00175612 0.00275025
C -5.90760038 7.83145923 23.74730712 0.00477123 -0.00344926 0.00339899
C -8.13982345 2.62076754 19.16629141 0.00353562 0.00215250 0.00205475
C -2.80692225 2.76499923 18.44667205 -0.00403660 0.00105985 0.00245702
C -11.64618681 7.63479768 24.02539835 0.00685515 0.00383782 0.00201732
C -4.86785850 7.02495531 24.08936796 -0.00509286 0.00379337 0.00088898
C 3.40247026 1.91499057 18.25559916 -0.00305935 0.00031884 -0.00551735
C -7.23310280 5.15123271 21.77572769 -0.00300167 -0.00054890 0.00304658
C -7.10677917 0.16527439 20.85484065 0.00094933 0.00385606 0.00339798
C -0.59525804 4.38556990 20.87509414 -0.00087983 -0.00665184 -0.00107375
C -0.16739804 9.34988985 21.67804600 -0.00004745 -0.00037671 -0.00006835
C -8.56174644 5.80114433 21.58302297 0.00212079 -0.00031006 0.00195824
C -5.88978247 1.02598634 20.98733497 -0.00164564 0.01022946 -0.00495158
C 0.58484077 3.50923759 20.98368416 -0.00250577 -0.00309151 0.00430189
C -1.41230164 8.52395512 21.52015791 -0.00066081 0.00823045 -0.00119372
C 3.27028276 13.17922818 5.04108330 0.00252756 0.00168236 -0.00827203
C 0.56354646 18.40350411 0.93175036 -0.00396614 -0.00048094 0.00508261
C 7.06237280 15.39242704 1.00811154 0.00544424 -0.00510444 -0.00283038
C 9.74224011 10.75672976 5.01113050 -0.00985983 0.00747759 -0.00075121
C 4.42092390 13.10187639 4.38048011 0.00340896 0.00053770 -0.00511554
C 12.28896182 17.92671954 1.47779528 -0.00312213 0.00300869 0.00298703
C 5.82730359 15.43583587 1.68700826 -0.00442017 -0.00152662 0.00298381
C -2.04984563 10.91404259 4.42736749 0.00166370 -0.00195800 0.00354086
C 5.38248551 12.25459735 4.83076810 -0.00064088 0.00563385 0.00461358
C 11.33352530 17.00278824 1.12713041 0.00059762 0.00255871 0.00653523
C 4.79904795 16.20410316 1.29124173 -0.00070342 0.00075483 -0.00507621
C -1.00739158 11.77121147 4.81399345 -0.00059755 -0.00587050 0.00430494
C 5.17575444 11.42584936 5.96706130 0.00292445 -0.00283588 -0.00570113
C -0.49166347 16.25469726 24.30684843 0.00026121 0.00128097 -0.00339171
C 4.94088608 16.96326285 0.15955246 0.00096765 0.00718375 -0.00338113
C -1.11559865 12.62403478 5.94109537 -0.00596473 0.00033074 -0.00264600
C 7.14293774 11.38984840 0.54753256 0.00470308 0.00875959 0.00112908
C 9.53653682 16.35809121 5.37176936 0.00144499 -0.00765883 0.00085470
C 3.07896506 17.05509316 5.53619278 0.00038860 0.00066612 -0.00292468
C 0.30324916 12.65722023 0.32865093 -0.00196460 -0.00261800 -0.00518122
C 6.10448002 12.23121159 0.15257179 -0.00248062 -0.00306957 -0.00267157
C -2.58818204 17.28835099 5.92203740 -0.00088272 -0.00641836 -0.00714854
C 4.14162620 16.29967901 6.07737659 0.00963432 -0.00062828 -0.00251879
C 0.73021990 11.81143047 24.26650248 -0.01363832 0.00678794 0.00541897
C 2.00482792 14.54439061 3.40779827 0.00210343 -0.00285062 0.00516530
C 1.45743597 9.77983168 2.44145073 -0.00535206 0.00376395 -0.00309284
C 8.33598861 14.03827276 2.53717097 0.00485845 0.00372177 -0.00094069
C 8.32303662 18.70255793 3.74703025 -0.00060760 -0.00437541 -0.00767374
C 0.76530634 15.37697200 3.18740745 0.00383009 0.00976661 0.00468659
C 2.63509584 10.72752274 2.64586350 0.00233419 0.00253477 -0.00420292
C 9.55785840 13.17000293 2.55596181 -0.00029869 -0.01129132 0.00781019
C 7.16258678 17.73573399 3.62622269 0.01093761 -0.01009785 0.00306179
C 0.08193009 13.44583212 11.32180503 0.00765494 0.00419663 -0.00205541
C -2.66429982 18.03604195 7.07357868 0.00273548 0.00217703 -0.00186866
C 3.88193837 15.40728459 7.11839907 -0.00148098 0.00221560 0.00835833
C 6.55346514 10.69400868 11.38202023 0.00533165 -0.00325736 -0.00071036
C 1.28842430 13.30533435 10.59027348 0.00165192 -0.00090132 0.00024539
C 9.11915052 17.86986199 7.79922502 0.00097756 -0.00309848 -0.00894136
C 2.59852940 15.43123478 7.70684720 0.00094651 -0.00178194 -0.00198627
C 34.04017868 10.58474429 10.71616875 0.00707157 0.00251146 -0.00281046
C 2.28369907 12.43060475 10.99215227 0.00286780 0.00154765 0.00439032
C 8.18803624 17.04281025 7.27535744 0.00093856 -0.01116609 0.00469128
C 1.60233310 16.29203827 7.23191251 -0.00037960 0.00339392 0.00193712
C -4.33189865 11.48696733 11.09674860 0.00214752 0.00244093 0.00259278
C 2.16898074 11.58197178 12.16505104 -0.00043021 -0.00114562 -0.00040457
C 8.37346183 16.29416640 6.08360622 -0.00064930 0.00071671 0.00236971
C 1.80567371 17.05192158 6.05662093 -0.00342621 0.00348914 -0.00298760
C -4.50617265 12.34862908 12.16997986 0.00492663 0.00284866 -0.00337784
C 3.97057888 11.54638500 6.66324327 -0.00414816 -0.00181290 -0.00184630
C 6.76834928 16.50177960 11.57558002 0.00352481 -0.00449015 -0.00049994
C 0.33721713 17.19169059 11.71544897 -0.00203066 -0.00352708 -0.00186368
C -2.30469248 12.52581734 6.69517106 -0.00149837 0.00991263 0.00868563
C 2.97264897 12.41494462 6.17765010 -0.00095936 0.00104495 -0.00045111
C -5.25998088 16.89160533 12.10193451 0.00295192 0.00569541 0.00060190
C 1.36922364 16.44065983 12.16572938 0.00485543 -0.00499975 0.00004425
C 9.66400874 11.57139900 6.15985917 0.00291438 0.00120523 0.00195631
C -1.01249958 14.79320677 9.74292070 0.00750319 -0.00279300 -0.00492926
C -1.45463363 10.04910505 8.92801598 0.00151223 -0.00234122 -0.00295662
C 5.04376793 14.00950714 8.65150874 -0.00231933 -0.00508905 -0.00077426
C 5.60410377 18.93989116 9.62326735 0.00085545 0.00920062 0.00268349
C -1.98369832 15.82176184 9.34265165 -0.00264514 -0.00136672 -0.00823206
C -0.26776458 11.01920207 9.16479760 0.00511247 0.00181574 -0.00010474
C 6.22328608 13.03175621 8.82544282 -0.00307871 0.00480155 -0.00360770
C 4.44704439 18.04017075 9.43337705 0.00253503 -0.01171754 0.00931111
C -2.90274459 13.14709670 17.20840490 0.00297874 0.00207106 -0.00218846
C -5.49001831 17.90154883 13.12384622 0.00069083 0.00676066 0.00592408
C 1.08333529 15.52076722 13.22120850 0.00707641 -0.00480465 0.00348157
C 3.64798680 10.62836783 17.04956415 0.00613688 0.00292184 0.00502808
C -1.73891680 13.07814089 16.47504406 -0.00031707 -0.00603809 -0.00031582
C 6.44691170 18.13996630 13.72897985 -0.00095749 -0.00506509 -0.00047470
C -0.13608292 15.47197573 13.86882240 0.00330457 -0.00325933 -0.00106201
C 31.16713082 10.72656642 16.50430196 0.00272152 -0.00298579 -0.00581874
C -0.77164028 12.21760567 16.97217948 0.00573575 -0.00188638 0.00751998
C 5.44360106 17.25691054 13.41043224 -0.00169162 -0.00070131 0.00602454
C -1.13294339 16.32659282 13.52031495 0.00967031 0.00181499 -0.00378530
C -7.13702064 11.54175982 16.91570735 -0.00294163 -0.00114425 0.00153227
C -0.90150934 11.47914309 18.15359932 0.00511411 -0.00482124 -0.00856066
C 5.50800149 16.39890150 12.23753384 0.00438913 0.00436826 -0.00224520
C -0.92414720 17.14443201 12.34959115 0.00150106 0.00355103 -0.00060970
C -7.30798390 12.31974877 18.12023182 0.00262551 0.00016464 -0.00373991
C 0.91087894 11.70963206 12.82913327 -0.00229628 -0.00625186 0.00043836
C 3.30907698 16.64976403 17.49939379 0.00615344 0.00190213 0.00945243
C -3.23142722 16.98580431 17.38475443 -0.00151695 -0.00625621 0.00408441
C -5.77052468 12.34792153 12.81550348 0.00171397 -0.00453715 0.00629265
C -0.09877091 12.54010157 12.37896726 0.00442351 -0.00618147 -0.00244493
C -8.72112981 17.16943523 18.12193372 -0.00185218 -0.00486748 0.00317758
C -2.18210977 16.22399940 17.79158478 0.00120193 0.00007944 -0.00359184
C 6.29472505 11.55153089 12.42684974 0.00634002 -0.00760058 -0.00548401
C -4.21542321 14.53700852 15.69565417 -0.00366124 0.00192720 -0.00289295
C -4.32241149 9.73208806 14.76083489 0.00298239 -0.00406566 -0.00074352
C 2.32733047 14.06857720 14.79458328 0.00093861 -0.00247006 -0.00591898
C 2.70491208 19.13078223 15.60545717 -0.00016754 -0.00692404 -0.00475904
C -5.58696243 15.18076927 15.40816610 0.00496701 0.00605305 0.00183193
C -3.11249196 10.60096944 14.73051280 -0.00053740 -0.00294894 0.00883648
C 3.55435411 13.28176112 14.96864875 -0.00499589 0.00336618 -0.00555666
C 1.39490390 18.35519883 15.30739565 0.00057185 -0.00387221 -0.00295329
C -5.67984047 13.13973363 23.49632488 0.00085887 -0.00033826 -0.00009784
C -8.92921259 17.91674330 19.26280164 -0.00488145 -0.00039336 -0.00302643
C -2.21500657 15.49371068 19.02124385 -0.00534755 0.00341283 0.00050857
C 0.93646785 10.88187131 23.16825300 0.00121460 0.00696974 -0.00321383
C -4.46562758 13.13959409 22.76656760 -0.00920761 0.00199886 -0.00317299
C 3.17333038 18.00860832 19.84192338 -0.00464790 0.00352658 -0.00919286
C -3.42226075 15.57018592 19.73260908 -0.00839238 0.00588241 -0.00491007
C 27.99148160 10.84019807 22.65426883 0.00023496 0.00176823 0.00063965
C -3.44047108 12.29012067 23.19516320 0.00741746 0.00161089 0.00090875
C 2.12154814 17.25056372 19.43113061 0.00408011 0.00222375 0.00164847
C -4.45591671 16.40616357 19.31164757 0.00647960 -0.00825623 -0.00298507
C -10.35697784 11.68678362 22.99269616 0.00434539 0.00903028 0.00017003
C -3.54879454 11.39455406 24.30633361 -0.00203191 0.00282844 -0.00259390
C 2.19720783 16.50232225 18.26290718 0.00113935 0.00107761 0.00550314
C -4.36248787 17.14248850 18.14446372 0.00338475 0.00276075 0.00233005
C -10.40855267 12.60814959 24.00499867 0.00241159 0.00695757 -0.00068744
C -2.12193698 11.56483992 18.84296503 0.00255389 -0.00600170 -0.00622982
C 0.81949293 16.24311862 23.69854912 -0.00085397 -0.00032731 -0.00047329
C -5.87057213 17.07185425 23.83988173 -0.00742723 0.00493865 -0.00374340
C -8.59207272 12.25780229 18.78922572 0.00033323 0.00081164 0.00301387
C -3.08207657 12.45423506 18.41828937 0.00030798 0.00068823 0.00698903
C -11.25929078 17.48631074 24.20221952 0.00436465 0.00585170 -0.00020810
C -4.82535401 16.20147620 24.18209674 -0.00160098 -0.00527529 -0.00219371
C 3.40047217 11.48309574 18.16663717 0.00064279 0.00766350 0.00530325
C -6.97166128 14.46122938 21.87388697 -0.00197731 -0.00062895 -0.00423882
C -7.36796345 9.97778138 20.65338805 0.00309922 0.00719801 -0.00040388
C -1.10387478 14.04391337 20.57039689 -0.00361480 0.00202326 -0.00692983
C -0.88026808 18.95895104 21.79930238 0.00457635 0.00045502 -0.00076249
C -8.14459142 15.36698430 21.54565669 -0.00813751 0.00439978 0.00253690
C -6.13760133 10.86681696 20.77679004 -0.00335641 0.00051456 -0.00081505
C 0.11788813 13.19482226 20.70778491 -0.00052155 -0.00041979 0.00607083
C -2.13932590 18.15840730 21.72861289 -0.00235340 0.00188534 -0.00752318
C 3.18427046 22.84360244 5.24091584 -0.00540122 0.00073141 0.00324711
C 0.15293573 27.50457349 1.00263244 0.00526096 -0.00359600 0.00604147
C 6.69362533 25.35822611 0.91882774 0.00278481 0.00096359 0.00193863
C 9.64447675 20.16779516 5.22862470 -0.00385254 -0.00159939 0.00333027
C 4.33391622 22.61342544 4.49074236 0.01393422 0.00350779 0.00308067
C 12.08513833 27.75146130 1.45009537 -0.00107568 0.00263322 0.00596854
C 5.43004705 25.37017980 1.61834520 -0.00868157 -0.00141332 0.00468119
C -2.14070282 20.41708645 4.68370402 0.00227201 -0.00162979 -0.00328288
C 5.36071579 21.74169659 4.81691177 0.00366020 -0.00261261 0.00117550
C 11.07330229 26.86869101 1.00516086 0.00954949 0.00658196 0.00011285
C 4.33362197 26.12199354 1.26305682 0.00510333 0.00598011 -0.00429101
C -1.10407831 21.12059922 5.22820004 -0.00170790 -0.00214560 -0.00466075
C 5.30634948 21.06905479 6.02795500 -0.00382867 -0.00195703 -0.00893597
C -0.63917197 26.07111874 24.20581841 0.00154874 -0.00172114 0.00464738
C 4.46188611 26.93921973 0.10128197 -0.00183306 -0.00299461 0.00012456
C -1.40946213 22.08673713 6.20482082 -0.00367463 -0.00156727 -0.00543237
C 6.71015267 21.18284538 0.71873866 -0.00776284 0.00483297 -0.00242909
C 9.87359518 26.04508545 5.21701421 0.00076235 0.01031270 -0.00012357
C 3.10082924 26.87735483 5.41076762 -0.00539499 -0.00000424 -0.00072625
C 0.12546963 22.13844779 0.45249992 -0.00224498 -0.00056591 -0.00464539
C 5.73383751 22.00656202 0.20281892 0.00206481 0.01007930 0.00229734
C -2.38850220 26.58876260 6.10717467 -0.00204859 -0.00033682 0.00011608
C 4.10854562 26.04950578 5.82357159 0.00145519 0.00521444 -0.00020179
C 12.29822962 21.02909131 0.19702062 -0.00482823 -0.00197431 0.00543473
C 1.77369175 24.12550580 3.74343906 0.00799588 -0.00276440 -0.00007140
C 1.69807043 19.71810817 2.59597094 -0.00318969 -0.00146348 -0.00222524
C 7.78932874 23.74675625 2.36818078 0.00106328 0.00442481 -0.00195953
C 8.60957877 0.05779165 3.32081376 -0.00173535 0.00170721 -0.00548923
C 0.31815655 24.71308248 3.60907553 0.00239914 -0.00453094 0.00800855
C 2.96599998 20.50227242 2.79495906 -0.00004722 0.00404802 -0.00279567
C 9.08373420 23.06523430 2.53737194 0.00531811 -0.00615928 0.00472787
C 7.30674135 28.18448669 3.03693904 0.00396530 -0.00461303 0.00166244
C 0.21955989 22.74211044 11.26503051 0.00552721 0.00238934 -0.00044308
C -2.60375193 27.59805166 7.08995602 -0.00297337 -0.00230098 -0.00282601
C 4.13056516 25.31648707 6.98575513 0.00006921 0.00088352 -0.00641075
C 6.76669117 20.42993834 11.13144846 0.00376800 0.00101290 -0.00174156
C 1.43672762 22.61904852 10.53310651 -0.00590645 -0.00488653 0.00215868
C 9.23166085 27.68749350 7.42996153 0.00109900 -0.00632328 -0.00394268
C 2.98464093 25.33860993 7.76350936 0.00040422 0.00607795 0.00706344
C 34.07377615 20.41061486 10.60526878 0.00498440 0.00368138 0.00486552
C 2.50545986 21.86205020 10.86146722 0.00115046 -0.00938600 0.00654440
C 8.30716269 26.73810086 6.94446161 -0.00576985 -0.00317301 -0.00140873
C 1.94122038 26.14854618 7.42888302 0.00589180 0.00736412 0.00479705
C -4.33604073 21.34456353 10.95161026 -0.00424709 -0.00439809 0.00801293
C 2.45215972 21.06093620 11.92520347 0.00690890 -0.00688217 -0.00207570
C 8.59261280 25.92643352 5.81136580 -0.00442807 0.00465724 0.00107796
C 1.99807226 27.00096627 6.26635063 -0.00294192 0.00591144 -0.00505387
C -4.43653382 22.09390500 12.10253874 0.00016801 0.00063069 0.00044491
C 4.16050906 21.34345987 6.84838335 0.00129715 0.00104852 -0.00064980
C 6.90502822 26.06496248 11.39130694 -0.00168406 0.00025302 0.00142251
C -0.00164316 26.54237392 11.53715220 -0.00174824 -0.00340330 0.00077329
C -2.75813506 22.18682514 6.71791856 0.00125725 0.00432312 0.00884124
C 3.05712813 22.05161064 6.36501228 -0.00016446 -0.00087049 0.00171278
C -5.24055014 26.95009992 12.25258766 -0.00227430 -0.00790987 -0.00470121
C 1.11504052 25.93055849 12.04604028 -0.00415784 0.00559203 0.00165766
C 9.50171618 21.03727975 6.32306729 -0.00725334 -0.00001979 -0.00041947
C -1.05052763 24.17942853 9.84369424 0.00107852 0.00420999 -0.00210836
C -1.29994506 19.37847621 8.65961230 -0.00051956 0.00894472 0.00561386
C 5.56616026 23.91887569 8.37154449 0.00642477 -0.00100411 0.00461202
C 5.57011229 28.55816378 9.43489809 -0.00154436 -0.00437431 -0.00364058
C -2.31640260 24.92817158 9.56344573 0.00162967 -0.00302044 0.00024612
C -0.00939378 20.07851173 8.87018493 -0.00317112 -0.00355517 0.00186732
C 6.76952390 23.04786918 8.35398729 0.00283266 -0.00919674 0.00422762
C 4.34352783 27.74641435 9.22417141 -0.00164999 -0.00392067 -0.00232002
C -2.91450739 22.71133349 17.24391536 -0.00525251 0.00159777 0.00217271
C -5.42471327 27.84891639 13.28173394 -0.00247574 0.00667137 0.00371707
C 1.01044000 25.01444070 13.13649730 -0.00348224 0.00740228 -0.00069181
C 3.88271660 20.42891583 17.20709611 -0.00100467 -0.00864428 0.00433699
C -1.70003946 22.86854372 16.60724290 -0.00236532 0.00363239 -0.00216504
C 6.43335396 27.69566554 13.62901116 0.00161319 -0.00572971 0.00417765
C -0.10881784 25.12499610 13.95539567 0.00503278 0.00013086 -0.00207020
C 30.77446232 20.34251103 16.39277750 -0.00271420 -0.00184573 0.00681424
C -0.64298310 21.96622632 16.93095420 0.00071212 -0.00026368 -0.00232580
C 5.41324249 26.90486425 13.14408980 -0.00601174 0.00424707 -0.00087631
C -1.12096186 25.98907085 13.57819591 0.00062861 0.00483805 0.00001905
C -7.54654871 21.18832854 16.80944710 -0.00875104 -0.00109387 -0.00433601
C -0.81799221 21.04960970 18.00926785 0.00155605 -0.00489961 -0.00333904
C 5.62048362 26.08892863 11.99708268 -0.01331970 0.00215071 0.00073339
C -1.16064297 26.67056820 12.32389388 -0.00143497 0.00581479 -0.00029914
C -7.61760013 21.97057008 18.02928913 0.00298438 -0.00408833 -0.00174569
C 1.25530632 20.94375945 12.63440760 0.00345296 -0.00990268 -0.00562118
C 3.71118289 25.87701198 17.50449071 -0.00295258 -0.00114400 0.00211975
C -2.89577686 26.40981965 17.51183151 0.00165097 0.01013076 0.00158122
C -5.60122748 21.92400420 12.89855573 -0.00212506 -0.00022890 -0.00939330
C 0.19945077 21.77380025 12.24802841 -0.00109745 -0.00027442 0.00627699
C -8.29183903 26.64864850 18.30936054 0.00727083 0.00210674 -0.00103536
C -1.91122413 25.59338965 18.01526594 0.00465088 -0.00046838 -0.00319159
C 6.57858195 21.34999580 12.15968170 0.00668510 -0.00220259 0.00125113
C -4.18153505 24.15689502 15.83247298 -0.00261330 0.00602260 0.00673113
C -4.38587728 19.51731351 14.53198545 -0.00412979 -0.00593323 0.00646012
C 2.45514180 23.58567308 14.49531516 0.00000938 -0.00376769 0.00549629
C 2.41140995 28.51591209 15.62859878 -0.00247615 0.00106057 -0.00452901
C -5.55312375 24.80422045 15.68297293 -0.00553800 -0.01127456 0.00215240
C -3.08504286 20.29759093 14.56966654 -0.00051146 -0.00599036 -0.00063360
C 3.83846324 22.94046432 14.43122406 -0.00385153 -0.00223068 0.00605181
C 1.17604966 27.72297806 15.49562546 -0.00071953 0.00442770 -0.00013145
C -6.04895868 22.85712836 23.44851717 -0.00311429 -0.00544710 -0.00422652
C -8.37404417 27.58317134 19.34605723 0.00108220 -0.00039134 0.00276074
C -2.18635975 24.85607587 19.15583448 0.00701313 -0.00103463 0.00845574
C 0.48493347 20.25833094 23.38341312 -0.00267446 -0.00058753 -0.00498537
C -4.78314836 22.77187069 22.79029518 -0.00192073 0.00007145 0.00495436
C 3.38020689 27.54351728 19.65526025 0.00062910 -0.00371247 -0.00585558
C -3.42834382 24.94327852 19.74635538 -0.00100845 -0.00085471 -0.00203558
C 27.96554598 20.45977422 22.71515006 -0.00383008 0.00814534 -0.00128326
C -3.88459198 21.84462413 23.21948286 -0.00256824 0.00230534 0.00472198
C 2.33260564 26.69326870 19.32502800 -0.00257983 -0.00411289 0.00049193
C -4.33052768 25.87177293 19.28134336 0.00594436 0.00197171 0.00686245
C -10.36104516 21.25401094 23.15434946 0.00141697 -0.00229192 -0.00456658
C 7.94983908 21.17584496 0.08891157 0.00762833 -0.00476871 -0.00258210
C 2.41900632 25.83655608 18.20122073 -0.00040607 0.00237174 0.00144136
C -4.14609314 26.67940011 18.19317984 0.00104755 -0.00869562 -0.00683954
C -10.60362071 22.14019117 24.27600838 -0.00212246 -0.00041713 0.00553710
C -2.03768484 20.96436026 18.70321702 -0.00225936 0.00149316 -0.00526293
C 0.64712995 26.11942230 23.60746284 -0.00505608 -0.00202391 0.00597605
C -6.31219020 26.98260390 23.80231261 0.00054190 0.00069151 0.00112240
C -8.81390005 21.91515708 18.73124669 0.00021748 -0.00996087 0.00144466
C -3.06825756 21.74646163 18.25399928 -0.00250808 0.00296058 -0.00007693
C -11.75192896 26.63869157 24.20826627 0.00349290 0.00318508 0.00152210
C -5.26534619 26.20235794 24.14860408 0.00176250 -0.00170369 -0.01184638
C 3.61769927 21.22518613 18.35274895 -0.00132187 -0.00292247 0.00027013
C -7.23196093 24.05854974 21.79422065 0.00196448 -0.00868125 0.00032160
C -7.53702286 19.15943179 20.86091010 -0.00238489 0.00221095 0.00075448
C -0.94154228 23.63727958 20.76191473 -0.00398952 0.00256262 0.00949037
C -0.25767250 28.55197890 21.51780508 -0.00573708 -0.00292669 -0.00193135
C -8.52534783 24.75744482 21.54311117 -0.00017279 0.00169487 0.00674216
C -6.34719800 20.01958906 20.95692161 0.00496828 -0.00274429 0.00148031
C 0.41244362 23.05038405 21.00929097 -0.00125786 0.00600332 0.00234982
C -1.45251468 27.67852128 21.17668578 0.00012060 -0.00528564 -0.00155448
C 16.31687435 3.75581100 5.00432414 -0.00124318 0.00231692 -0.00544252
C 13.63858410 8.68546228 1.01028704 0.00600031 0.00629602 0.00222469
C 20.20479775 6.02374587 1.02207253 0.00527176 0.00019445 0.00725849
C 22.96076243 1.11436045 5.18770878 -0.00139072 -0.00181161 -0.01022353
C 17.54979168 3.64924053 4.34621216 0.00094861 0.00447744 -0.00121513
C 25.51563285 8.36786204 1.72007910 0.00311005 0.00312642 0.00281686
C 18.99816359 6.25788331 1.63466853 -0.00500914 0.00554475 -0.00038500
C 10.92534504 1.36015398 4.33427126 -0.00227742 0.00131944 -0.00253993
C 18.44508477 2.65838509 4.77096836 0.00136224 -0.00697770 -0.00075609
C 24.58534086 7.42237331 1.31137836 0.00789598 -0.00218541 -0.00052765
C 18.03718220 7.15049400 1.22994468 0.00709185 0.00327633 -0.00085447
C 11.92215386 2.29958563 4.69935774 -0.00657170 -0.00341991 -0.00246471
C 18.25750539 1.96578074 5.98517433 0.00462893 0.00084014 0.00074180
C 24.82596899 6.61170569 0.17715139 0.00250113 -0.00048481 -0.00249507
C 18.19790776 7.88058194 0.03222355 0.00414517 0.00266364 -0.00473358
C 11.83959679 3.09039432 5.81193801 -0.00060330 0.00435575 0.00544761
C 20.13213411 2.07136665 0.53718773 -0.00213991 -0.00771926 0.00485062
C 23.10877341 6.51438920 5.64003903 0.00317976 0.00568139 -0.00370541
C 16.26225839 7.80601982 5.69437265 -0.00528371 0.00640567 -0.00398775
C 13.47393773 2.82049302 0.50610641 -0.00437144 -0.00324785 0.00190324
C 19.18988571 2.91421642 0.04082317 -0.00184919 -0.00079536 0.00097659
C 10.70889187 7.69588180 5.70307401 -0.00051776 -0.00598961 0.00224876
C 17.29996623 6.85934723 6.00483022 -0.00179650 0.00642545 -0.00170831
C 25.83079491 1.93582836 0.23361592 -0.00792266 -0.00021279 -0.00027066
C 15.22415395 5.18624056 3.33675416 -0.00988338 -0.00234076 0.00649995
C 14.54928971 0.39225880 2.47719101 0.00105960 -0.00025638 -0.00135214
C 21.18419414 4.44374680 2.61102714 0.00161512 0.00190948 -0.00363451
C 21.86315982 9.30171406 3.56259248 -0.00229274 0.00100490 -0.00173517
C 14.03387962 5.93495309 2.80750084 0.00009349 -0.00286976 -0.00617760
C 15.76989110 1.24802423 2.69433978 -0.00377622 0.00288616 0.00184150
C 22.38746168 3.52149052 2.74918837 -0.00251540 0.01342457 -0.00216961