2880
Time=95999.99999999 pbc="T T T" Lattice="39.35373832 0.00000000 0.00000000 0.00000000 28.83492511 0.00000000 -12.03090111 0.00000000 24.41348163" energy=-18395.97408473 virial="16.79129906 2.25516639 -45.28539192 2.25516639 37.28610593 -27.77271765 -45.28539192 -27.77271765 53.67200565" stress="0.00310169 0.00018472 -0.00160520 0.00018472 0.00381966 -0.00102994 -0.00160520 -0.00102994 0.00446925" Properties=species:S:1:pos:R:3:vel:R:3
C 2.92656563 3.77686831 5.07198866 -0.00265464 0.00309102 -0.00192896
C 0.43221057 8.35826207 0.94792423 -0.00252411 -0.00162260 -0.00166779
C 6.67105657 5.88059545 0.97071164 0.00036898 -0.00423863 0.00096773
C 9.60874565 0.99188322 5.10873732 -0.00459298 0.00139484 0.00278241
C 4.13589397 3.63611847 4.41568673 -0.00769907 0.00272832 -0.00278470
C 12.19533211 8.14285340 1.58267444 0.00360237 -0.00375298 0.00119088
C 5.43289198 6.06966824 1.62786155 -0.00017521 -0.00494495 -0.00217823
C 37.05137454 1.22044620 4.35363649 -0.00050872 0.00370431 -0.00319815
C 5.14177059 2.77873290 4.83780577 -0.00172062 -0.00365634 0.00096937
C 11.25314708 7.26479675 1.14150069 0.00776112 0.00030325 -0.00266497
C 4.67519513 7.08957419 1.15842320 0.00072453 0.00356304 -0.00629862
C -1.34403684 2.07203841 4.85086089 0.00087125 0.00385216 0.00189544
C 4.95127341 2.10292641 6.01932746 0.00652696 -0.00174829 0.00303449
C -0.50867019 6.49527784 24.38028299 -0.00503114 0.00165422 0.00712535
C -7.17147854 7.79682698 24.37813778 0.00120637 0.00574505 -0.00471089
C -1.57446224 2.91546064 5.91841294 0.00129758 0.00153793 -0.00043053
C 6.57839955 2.04424190 0.58044067 -0.00075310 0.00760860 -0.00451508
C 9.77073096 6.91028020 5.56810695 0.00083983 -0.00216619 -0.00520828
C 3.10413763 7.61742961 5.29414117 -0.00040419 -0.00476915 -0.00924912
C 0.16261150 2.62191248 0.35765394 -0.01220549 0.00467263 0.00003954
C 5.61139169 2.85646829 0.03669807 0.00137563 -0.00474582 -0.00641746
C -2.35450298 7.73682397 5.94932299 0.00746255 -0.00631847 0.00195256
C 4.05982517 6.76861499 5.76143337 -0.00564348 0.00461471 0.00375860
C 12.42155216 1.88853566 0.05294849 -0.00120024 0.00064586 0.00628961
C 1.89716290 5.12825479 3.37927238 -0.00592240 -0.00433779 0.00407120
C 1.56450110 0.28604327 2.53959443 0.00228721 -0.00757641 0.00349262
C 8.00592853 4.46237346 2.61156794 0.00280176 0.00129515 -0.00136923
C 8.49955024 9.23453043 3.44443954 0.00046674 -0.00593315 -0.00082822
C 0.91080509 6.26013326 3.10991567 0.00387546 -0.00165632 0.00572197
C 2.82415356 1.05773202 2.74011187 0.00277550 -0.00849034 0.00160687
C 9.33322945 3.84380419 2.83104977 -0.00015918 -0.00141731 0.00440976
C 7.24402608 8.57164062 3.11706070 0.01172861 0.00724544 0.00236396
C 0.10005920 3.83089554 11.18487590 -0.01283104 -0.00135321 -0.00067237
C -2.52061120 8.67317048 7.01789060 0.00394669 0.00290520 -0.00482201
C 3.80317585 5.93427837 6.89001202 -0.00244521 0.00174207 0.00648036
C 6.74304028 1.24486633 11.20715190 -0.00014281 0.00276110 0.00570011
C 1.24651995 3.70828635 10.41632574 -0.00038190 -0.00628268 0.00547810
C 9.29173623 8.42492097 7.77746763 0.00520474 -0.00024504 -0.00419662
C 2.59989129 6.03287540 7.52273979 -0.00718516 0.00672410 -0.00089293
C 34.13963390 1.05703449 10.42380613 0.00858212 -0.00288263 -0.00245608
C 2.21776424 2.79171736 10.78088982 0.00748285 0.00468329 -0.00277480
C 8.30404657 7.59965047 7.28129770 0.00761068 -0.00623906 -0.00465859
C 1.70289989 6.96862699 7.11403445 0.00492746 -0.00075036 -0.00081427
C -4.30743398 1.98562545 10.87471988 0.00559846 -0.00448041 0.01317700
C 1.99565373 1.86329258 11.79189848 -0.00049728 -0.00498675 0.00026770
C 8.52668949 6.70677084 6.21739307 0.00522307 0.00944677 0.00157566
C 1.90577463 7.76931377 6.02845434 0.00376876 -0.00122051 0.00391555
C -4.63852742 2.84066328 11.97584246 -0.00035664 0.00543601 0.00516638
C 3.71022150 2.19253228 6.68075853 0.00592298 0.00031281 0.00997736
C 6.70731890 6.78150758 11.70245211 0.00103009 0.00681807 -0.00497635
C 0.36600821 7.68937704 11.58882276 -0.00005745 -0.00259125 0.00168582
C -2.84528088 2.75010194 6.55459014 0.00521165 0.01440901 0.00008702
C 2.68010153 2.99837541 6.24742772 0.00053686 -0.00041181 -0.00555019
C -5.38369951 7.81121659 12.08309006 0.00401617 0.00198273 0.00350860
C 1.32199381 6.76399379 12.05727510 -0.00180797 -0.00179917 0.00315132
C 9.26905308 1.90818193 6.12619192 0.00418387 -0.00310089 -0.00188962
C -1.21073358 5.34218479 9.65360820 0.00207505 -0.00005914 0.00610626
C -1.31142903 0.53113494 8.54423293 -0.00297058 0.00405685 0.00424396
C 4.96407710 4.63058569 8.65005292 0.00353133 -0.00406849 0.00351266
C 5.46515676 9.27388339 9.44246279 0.00582035 0.00093095 -0.00159447
C -2.22749524 6.39266627 9.42951664 0.00072860 0.00444739 -0.00005566
C -0.16050164 1.50447589 8.63571570 -0.00238186 0.00160692 0.00501639
C 6.10214251 3.68179392 8.95704220 -0.00282875 0.01177579 0.00204654
C 4.37839286 8.33491445 9.26202706 0.00282106 0.00438381 0.00266840
C -2.78336206 3.61360835 17.27526511 -0.00101432 0.00362775 0.00393954
C -5.62349109 8.56571563 13.24153222 -0.00596934 -0.00569864 -0.00250778
C 1.00777443 5.92332344 13.09798501 -0.00087784 -0.00828329 0.00391393
C 3.80377670 1.02476918 17.35651602 0.00104364 -0.00399259 0.00745199
C -1.52537947 3.59633601 16.68188484 -0.00233973 -0.00443419 -0.00236723
C 6.09359959 8.50496464 13.79777768 -0.00736067 -0.00401047 -0.00879287
C -0.21782153 6.02820594 13.75892611 -0.00337288 0.00176259 -0.00078008
C 31.05020824 1.32852360 16.56854022 0.00597335 0.00332206 -0.00495956
C -0.63252284 2.67608385 17.09460084 -0.00272625 -0.00582905 -0.00088779
C 5.21198548 7.49099924 13.48830248 -0.00479073 0.00700866 0.00142824
C -1.15461517 6.90596514 13.33759518 0.00152197 0.00854448 -0.00055740
C -7.36755802 2.21189354 16.97959947 -0.00745426 -0.00107728 0.00942570
C -0.88946497 1.77545172 18.17927897 0.00315905 0.00234432 -0.00417193
C 5.49868544 6.69888788 12.36124588 0.00136021 -0.00190401 -0.00516291
C -0.86152583 7.75213421 12.19530840 0.00070074 0.00374488 -0.00241740
C -7.52906031 2.94623536 18.18631640 0.00043422 0.00125288 -0.00609870
C 0.75630115 1.95143575 12.50792437 -0.00374920 0.00433619 -0.00570620
C 3.86947730 6.70059439 17.63631443 0.00610796 0.00121158 -0.00435898
C -2.79798402 7.56282090 17.78245293 -0.00158100 0.00587682 -0.00918717
C -5.93662700 2.78417980 12.44840124 0.00719574 -0.00156822 0.00111385
C -0.13580329 2.98426248 12.28830760 0.00343173 0.00566312 0.00154540
C -8.35856418 7.70104579 18.21982063 -0.00018687 0.00229434 -0.00565735
C -1.83653574 6.69862585 18.27092607 -0.00385776 0.00007898 -0.00613706
C 6.43821835 2.18391864 12.16318303 0.00005542 -0.00304266 -0.00190014
C -3.75696146 5.05983507 15.66102666 0.00249242 0.00292982 -0.00171110
C -4.51959839 0.50796744 14.66307759 -0.00511524 -0.00401696 0.00458146
C 2.19267561 4.58183155 14.75185584 0.00564316 -0.00506499 0.00107208
C 2.31909047 9.22833575 15.83905361 0.00246089 -0.00632005 -0.00447005
C -4.92057024 5.99823873 15.38140694 0.00018773 0.00337105 0.00397446
C -3.45998346 1.51007612 14.92099489 -0.01051520 -0.00276406 0.00078091
C 3.47877759 3.74706130 14.91838738 0.00016789 -0.00100748 -0.00238131
C 1.03845076 8.34058743 15.59170757 0.00223679 -0.00035480 0.00106879
C -6.06119642 3.73987574 23.41249329 -0.00451190 -0.00126087 -0.00327823
C -8.53718767 8.53188505 19.34526413 -0.00188398 0.00131105 0.00260628
C -1.97319802 5.88485530 19.37503802 -0.00025021 -0.00210661 -0.00846320
C 0.61996267 0.97421311 23.39230910 -0.00233243 0.00060882 0.00245248
C -4.78763680 3.63155248 22.79241994 -0.00220445 0.00224677 0.00972405
C 3.52843029 8.23557862 19.93848233 0.00296818 -0.00252166 0.00853582
C -3.25352667 6.00016529 19.99439301 0.00497804 -0.01030043 0.00548114
C 27.83491210 1.05074390 22.49055320 0.00204479 -0.00134237 -0.00223826
C -3.95679262 2.60264259 23.15539072 -0.00183475 -0.00190243 0.00336585
C 2.53530190 7.39500162 19.46269525 -0.00279713 0.00598293 -0.00966890
C -4.22223600 6.87794933 19.56497930 0.00070612 -0.00827714 -0.00400357
C -10.52718860 1.94198464 22.92094650 -0.00190189 -0.00032113 0.00319219
C -4.25173604 1.88576727 24.35286194 -0.00576392 -0.00667269 -0.01073101
C 2.65399073 6.57752952 18.31951216 0.00280195 0.00872059 -0.00223972
C -4.04682589 7.61244548 18.39472028 -0.00324251 -0.00272536 0.00004001
C -10.68746640 2.70657683 24.02316364 -0.00312261 -0.00061137 0.00114086
C -2.15581727 1.84691621 18.81935780 -0.00199857 0.00077673 -0.00506711
C 0.69783074 6.73597137 23.58399925 -0.00404657 0.01416933 0.00561352
C -5.95801279 7.52263484 23.68740008 0.00178174 -0.00575360 0.00561551
C -8.82560755 2.99805141 18.74106555 -0.00160036 -0.00688114 0.00690900
C -3.05662615 2.75364710 18.27585438 -0.00287924 -0.00000849 -0.00056028
C -11.42167854 7.47519229 24.31387116 -0.00158661 -0.00219111 0.00311511
C -5.09204609 6.60830979 24.22451148 0.00864107 0.00561522 0.00112027
C 3.54539169 1.88123784 18.42176755 -0.00521223 0.00213247 0.00284508
C -7.11429079 5.11043110 21.70847447 0.00506646 0.00484197 0.00787175
C -7.31023673 0.20247430 20.82652278 -0.00470047 0.00515142 -0.00023965
C -1.00483032 4.30930450 20.88367493 -0.00227445 0.00137118 -0.00329038
C -0.82220967 9.29730817 22.00488721 0.00300327 -0.00253835 -0.00084680
C -8.30506381 5.89334872 21.41998824 0.00667330 0.00107733 -0.00731365
C -6.23666140 1.23938246 20.71599620 0.00128401 -0.00388677 0.00600883
C 0.00018076 3.25534481 21.03706329 0.00297043 -0.00021780 0.00100745
C -2.03447414 8.39618614 21.81680655 0.00095513 -0.00367352 -0.00190120
C 3.08827681 13.28432080 5.17217078 -0.00052962 0.00175431 -0.00630382
C 0.35699810 18.04967219 0.87072262 -0.00181773 0.00084549 -0.00005801
C 6.91663381 15.50988699 1.00430372 0.00360246 0.00553805 0.00319894
C 9.70050508 10.60219810 5.00213829 -0.00223751 -0.00218016 0.00824049
C 4.32287676 13.35993990 4.55633294 0.00154347 -0.00000539 -0.00516716
C 12.48656010 17.84214745 1.77022947 -0.00091168 0.00141086 -0.00097092
C 5.77919046 15.67016433 1.76912663 -0.00251974 0.00254222 -0.00895945
C 37.14293637 11.01948553 4.44681255 -0.00066086 0.00399480 0.00046803
C 5.38327003 12.53588889 4.89134913 0.00495449 -0.00644850 0.00543459
C 11.53447806 16.93182335 1.36309830 -0.00284410 0.00575672 0.00066199
C 4.88529311 16.69465805 1.43757543 0.00172699 -0.00631378 -0.00161781
C -1.23367667 11.90944102 4.93503078 -0.00011768 0.00348986 -0.00504025
C 5.20272068 11.58706494 5.92938911 0.00082566 -0.00137904 -0.00654976
C 11.66626830 16.20946487 0.18535507 -0.00373975 -0.00273624 -0.00671116
C 4.97731653 17.36651058 0.29369989 -0.00183212 0.00538428 -0.00377749
C -1.43458519 12.71794881 6.03681493 0.00739672 0.00170662 0.00026498
C 6.59404756 11.62927776 0.48841157 0.00618635 0.00428757 -0.00660678
C 10.02803602 16.47733777 5.75683228 0.00176247 -0.00140570 0.00684245
C 2.95625974 17.24880269 5.58915688 -0.00173316 -0.00212357 0.00530063
C 0.44237017 12.39512409 0.69768870 0.00195480 -0.00811035 0.00043877
C 5.66909439 12.61692132 0.16505366 -0.00010664 0.00156933 -0.00328869
C -2.13328359 17.24435386 6.06739002 -0.00111243 0.00606302 0.00377611
C 4.01328581 16.54347070 6.09883683 -0.00433544 -0.00319140 0.00026946
C 12.50281199 11.61364863 0.07332857 -0.00181785 -0.00186778 0.00730186
C 1.83312131 14.84049815 3.74363482 -0.00492139 -0.00256327 0.01068357
C 1.63748354 9.85533941 2.39066531 -0.00474016 0.00469323 0.00795412
C 8.23913264 14.15011621 2.52857092 0.00402576 -0.00391107 0.00029403
C 8.82227167 18.99717260 3.42777108 -0.00841892 0.00388360 -0.00049500
C 0.58533766 15.71705252 3.72313047 0.00161515 0.00077781 -0.00191255
C 2.82173150 10.71307276 2.59141271 0.00269626 0.00006702 0.00425569
C 9.14734188 12.96450263 2.58686230 -0.00159125 0.00097517 -0.00169301
C 7.57396186 18.16455923 3.23694282 -0.00017649 0.00028832 0.00079005
C 0.41698776 13.26253128 11.37157741 -0.00460987 0.00175243 -0.00062382
C -2.57984392 18.13494341 7.07386725 -0.00570698 -0.00078339 0.00069081
C 3.90625600 15.61021500 7.19233346 0.00388918 -0.00001103 -0.00461615
C 6.63176974 10.66879101 11.03843381 0.00024284 -0.00361074 0.00237843
C 1.54497337 13.12474327 10.61527102 0.00120908 -0.00700010 -0.00354317
C 9.45366920 18.12784747 7.85172942 -0.00323278 0.00329368 -0.00624804
C 2.63070351 15.61918192 7.81924145 -0.00436253 0.00179575 -0.00052402
C 34.12112825 10.89151246 10.54386074 0.00069054 -0.00199958 0.00176362
C 2.52263906 12.20604580 10.96184356 0.00243673 -0.00225056 -0.00022870
C 8.47092722 17.36862953 7.30087253 0.00859869 0.00556795 -0.00042865
C 1.60311278 16.48864358 7.50203872 -0.00039685 -0.00130033 0.00296611
C -4.17871319 11.64791186 11.04192376 0.00169723 0.00498016 -0.00222801
C 2.44180353 11.45245764 12.16146651 0.00701571 0.00533209 -0.00173868
C 8.73799382 16.40330253 6.29157173 -0.00133285 0.00118804 0.00163725
C 1.77698618 17.34381943 6.35694095 -0.00678944 0.00396502 -0.00158137
C -4.30750560 12.31501819 12.20672845 0.00407391 0.00086037 -0.00105523
C 3.99027239 11.61195154 6.68983534 -0.00081074 0.00093581 0.00791709
C 6.84680878 16.45265898 11.57921755 0.00558838 -0.00341151 -0.00721760
C 0.44452670 17.10243593 11.86789222 0.00329565 -0.00461809 0.00710619
C -2.76124976 12.71738617 6.61454115 -0.00650835 0.00107287 0.00156643
C 2.95339480 12.37619181 6.22422421 -0.00385808 0.00049561 0.00332030
C -5.51761315 17.15597610 12.10542567 0.00341099 0.00555064 0.00543758
C 1.38697516 16.21938439 12.30770342 0.00704565 0.01077943 -0.00416319
C 9.59496461 11.44735117 6.14551605 0.00660778 -0.00417976 -0.00613237
C -1.03147590 14.58478551 9.90450645 -0.00006579 -0.00415394 0.00113468
C -1.33397417 10.16164352 8.54888066 -0.00417339 0.00005695 0.00174272
C 5.09180181 14.29699981 8.74188161 -0.00191370 -0.00596720 0.00515142
C 5.57334365 18.87966845 9.64090513 -0.00112150 -0.00028143 -0.00452886
C -2.18243670 15.56551744 9.98256930 -0.00562306 -0.00452083 0.00090972
C -0.11273954 11.07282140 8.72696078 -0.00782774 -0.00472734 -0.00563070
C 6.28740010 13.43802631 8.95789965 0.00077001 0.00309070 0.00370402
C 4.38639281 17.95173087 9.53088761 0.00178996 0.00717055 0.00339636
C -2.98997237 13.29696852 17.35897026 0.00532807 -0.00207293 -0.00928644
C -5.74687199 17.96465406 13.19419007 0.00384696 0.00113270 -0.00172064
C 1.17348716 15.40740789 13.42162371 -0.00543597 0.00138301 -0.00717619
C 3.55536749 10.66022040 17.41550296 0.00274168 0.00140880 0.00215223
C -1.83750269 13.19100919 16.58472486 0.00191743 0.00115618 0.00575390
C 6.46342902 18.02763607 13.76608497 -0.00104254 0.00318543 -0.00524159
C -0.05421360 15.50205770 14.09335273 -0.00663383 -0.00056019 -0.00847905
C -8.19963395 10.65777213 16.68869267 0.00568772 -0.00825271 -0.00127864
C -0.80261900 12.42492172 17.08694087 -0.00316964 -0.00551733 -0.00563402
C 5.45248763 17.18256585 13.40177594 -0.00328354 -0.00562103 -0.00549124
C -1.02659805 16.37239286 13.69141794 -0.01190177 -0.00142995 0.00691284
C -7.27918806 11.62850169 17.13860190 -0.00206001 -0.00015230 -0.00306366
C -0.98435534 11.70597080 18.26218512 -0.00644288 0.00168235 -0.00022919
C 5.62601136 16.38795149 12.31512825 -0.00120975 -0.00623222 0.00506610
C -0.79564774 17.20881853 12.54109245 0.00335163 -0.00486447 -0.00478958
C -7.53824185 12.37657053 18.27202988 0.00639855 0.00634259 0.00643247
C 1.26489570 11.58340434 12.91133570 -0.00204566 -0.00026547 -0.00485407
C 3.85394210 16.15003827 18.02867458 0.00632335 -0.00128553 -0.00141628
C -2.89079503 17.22419657 17.77493863 0.00580813 0.00544197 -0.01007979
C -5.58293500 12.29046915 12.82445429 0.00368881 0.00149739 -0.00021659
C 0.24919006 12.44243214 12.50742597 0.00723026 0.00085314 -0.00489515
C -8.39103449 17.32840785 18.34401099 0.00121129 -0.00242930 0.00412127
C -1.91380591 16.40542367 18.27272570 -0.00119285 -0.00381727 0.00019087
C 6.44420596 11.51767195 12.19183634 0.00095259 -0.00803461 0.00047180
C -4.18724224 14.78419522 15.87009845 0.00857293 0.00194746 0.00412632
C -4.35672889 9.91463623 14.81901069 0.00066162 -0.00362481 -0.00634358
C 2.33152197 14.04755851 15.08199318 0.00629199 -0.00582302 0.00766165
C 2.41463833 18.87670136 15.68409590 0.00634936 -0.00419394 -0.00015910
C -5.44943917 15.61661890 15.66797884 -0.00278197 -0.00119416 -0.00183438
C -3.00862762 10.48934264 15.09562102 0.00149423 -0.00641486 0.00367846
C 3.66717128 13.44230004 15.37580109 0.00710085 0.00123106 0.00244243
C 1.17415811 18.11499760 15.20909579 0.00424384 0.00292417 -0.00513571
C -6.15360746 13.45599678 23.46753230 0.00029506 0.00324645 -0.01133898
C -8.73117628 18.15596978 19.38892116 0.00614785 -0.00863584 -0.00409655
C -2.11984219 15.61449632 19.39117376 0.00002600 -0.00696148 -0.00554151
C 0.48567759 10.65234192 23.42371755 0.00120718 0.00334156 0.00436125
C -4.95411335 13.27747393 22.72963418 -0.00028760 -0.00318409 0.00448240
C 3.33994620 18.08654032 19.95437002 0.00406264 0.00335583 0.00381403
C -3.39121093 15.72375640 20.02608810 -0.00290003 -0.00321316 -0.00111909
C -11.09012474 10.90259412 22.82996026 0.00470599 -0.00431796 -0.00652401
C -3.97324202 12.37896453 23.15985309 0.00275922 0.00311330 0.00332366
C 2.35993010 17.18554795 19.61203216 -0.00049034 -0.00376113 -0.00033798
C -4.33157039 16.56429389 19.52834728 0.00189564 0.00886961 0.00053416
C -10.12629664 11.79699714 23.27864549 0.00663327 -0.00202014 -0.00520535
C -4.16736848 11.58799643 24.31527373 0.00315287 -0.00221973 -0.00155652
C 2.51206298 16.21711538 18.63778035 -0.00238202 -0.00108393 0.00785469
C -4.12592625 17.32464771 18.31470123 0.00303672 -0.00047732 -0.00617195
C 1.67474426 12.55374885 0.04353338 0.00041647 -0.00204295 -0.00446580
C -2.19724495 11.78493979 19.01689028 -0.00170608 -0.00183748 0.00169620
C 0.78970695 16.32376529 23.84403108 0.00510813 -0.00221054 0.00406335
C -5.92412359 17.26579807 23.95556848 -0.00419533 -0.00884722 -0.00549422
C -8.76444419 12.17579372 18.97856699 -0.00075600 0.00413747 -0.00325619
C -3.18657923 12.54214855 18.52052069 0.00195381 0.00399456 0.00109432
C -11.47512208 17.22829316 24.17852673 0.00532902 0.00711029 -0.00460430
C -4.99030684 16.31183209 24.24334651 -0.00033528 0.00008052 0.00071581
C 3.42813373 11.41949680 18.63097205 -0.00293088 0.00994919 0.00721822
C -7.58006249 14.80274796 21.96153913 -0.00215967 -0.00153264 -0.00336041
C -7.48251459 10.08864390 20.84698007 0.00021967 0.00216526 -0.00040469
C -1.04158836 14.20854457 21.01776407 0.00595278 -0.00090025 0.00052545
C -0.38595633 18.98186025 21.84961859 0.00407223 -0.00397392 0.00096286
C -8.92290926 15.48189237 21.83933655 -0.00155316 -0.00368623 0.00724512
C -6.19151557 10.78699602 21.24609924 -0.00626420 -0.00130752 -0.00242892
C 0.16864160 13.31912181 21.17069329 0.00344676 -0.00158238 0.00685281
C -1.45110427 17.97666685 21.83098064 0.00491190 0.00489445 -0.00304267
C 3.28520652 22.84813126 4.89105331 0.00096420 -0.01111174 0.00124022
C 0.36592610 27.82669493 0.93676126 0.00156495 -0.00392451 0.00652525
C 6.93067043 25.05844976 0.84062104 -0.00193733 0.00037911 -0.00763334
C 9.96542375 20.42481156 4.99577299 -0.00275839 -0.00242912 -0.00233889
C 4.40401304 22.70448632 4.10495953 0.00834849 -0.00388416 -0.00493376
C 12.30790156 27.58321331 1.75928298 0.00237355 -0.00448626 -0.00380293
C 5.76569828 25.18991022 1.64082969 0.00482178 -0.01079346 -0.00343552
C -2.13159820 20.29758835 4.46183545 -0.00046324 -0.00309380 0.00734684
C 5.40268010 21.81792284 4.52321010 -0.00327431 0.00936994 0.00015959
C 11.27618141 26.76369624 1.30199038 0.00532931 0.00097709 -0.00085856
C 4.73832868 26.00722543 1.33479053 -0.00126412 -0.01467351 -0.01506892
C -1.22531573 21.27755692 4.91197654 -0.00053083 -0.00599336 0.00258042
C 5.29758758 21.10636049 5.79337266 -0.00930637 0.00218920 0.00477864
C 11.40967979 26.00441871 0.15890135 0.00491061 0.00265569 0.00048353
C 4.87120559 26.89417451 0.16154204 0.00586271 0.00072734 -0.00281344
C -1.47465879 22.12428116 6.01901357 -0.00305461 -0.00001594 0.00345719
C 6.94805863 21.16657640 0.33427933 0.00031593 0.00827422 0.00040094
C 9.76944376 26.00886400 5.90456532 0.00413954 -0.00172930 -0.00207535
C 3.32862059 26.68584612 5.59997786 0.00281337 -0.00571632 -0.00058319
C 0.36215422 22.10783001 0.44891074 0.00305954 0.00250303 0.00218774
C -6.10760143 22.01617370 24.28067428 0.00081617 -0.00869747 -0.00051808
C -2.21049163 26.96618971 5.94346166 -0.00179997 0.00528627 0.00578477
C 4.29861432 25.83464535 6.10391281 -0.00059608 -0.00048942 0.00923515
C 12.63850009 21.14200349 0.32206943 0.00888451 0.00356730 0.00709512
C 1.97756467 24.25156669 3.44405392 -0.01192560 0.00372729 -0.00684281
C 1.52023477 19.54599860 2.46921818 -0.00806104 -0.00688787 -0.00291286
C 8.15638320 23.67882143 2.39620925 0.00046619 -0.00544882 0.00325720
C 8.27220992 28.37494128 3.58333677 -0.00336749 -0.00790624 0.00222316
C 0.79074313 25.17021855 3.41364672 -0.00396367 -0.00136864 -0.00536711
C 2.70970054 20.50257562 2.54338388 0.00120988 0.00003672 0.00123401
C 9.20753673 22.59633195 2.46264945 -0.00192661 0.00311874 0.00299601
C 7.01325789 27.70635839 3.63988637 -0.01268313 -0.00043898 -0.00124420
C -0.05442351 22.76569433 11.23985038 0.00140691 0.00654178 0.00296144
C -2.48995877 27.91308537 7.03705527 0.00527209 0.00002626 0.00344528
C 3.95308345 24.97134959 7.15798295 -0.00727989 -0.00280098 -0.00357142
C 6.83006556 20.41326266 11.15600791 -0.00357411 0.00778326 -0.00289332
C 1.21229019 22.70219347 10.57434585 -0.00145282 -0.00567047 0.00766520
C 9.06473173 27.80144664 7.91800896 -0.00103546 0.00267716 -0.00310084
C 2.67475783 25.10056049 7.79963639 0.00265554 0.00421009 -0.00359145
C -5.14566977 20.35100194 10.67977720 0.00008272 -0.00244357 -0.00523650
C 2.16679461 21.81482309 10.93794535 -0.00297454 -0.00449863 0.00140463
C 8.12658687 26.94349155 7.44887680 -0.00703358 0.00719886 -0.00979411
C 1.75867903 25.92789270 7.27437514 0.00568750 -0.00246093 -0.00511647
C -4.16634800 21.22307078 11.15582044 0.00221114 -0.00066298 -0.00248850
C 2.06251943 20.93531554 12.02392041 0.00243758 0.00267521 0.00473075
C 8.48786367 26.03717179 6.45333268 0.00368410 -0.00785009 0.00234359
C 2.01051345 26.75572998 6.16888941 -0.00081294 0.00644971 0.00236230
C -4.38014500 22.11575262 12.17285159 -0.00047566 0.00013969 -0.00319472
C 4.08262816 21.26835156 6.47771806 -0.00786133 0.00232398 0.00024492
C 6.86530413 25.99808911 11.65600110 0.00719512 0.00140421 -0.00478884
C 0.08647143 26.63560788 11.51808343 -0.00774460 0.00492147 -0.00252924
C -2.73743258 22.02239854 6.63758566 -0.00213238 -0.00422919 0.00073899
C 3.05957764 22.06198185 5.95157699 -0.00297782 0.00211585 0.00274909
C -5.35142483 26.94987434 12.15767978 -0.00149485 0.00105711 -0.00328108
C 1.06652353 25.78308881 11.95643101 -0.00169348 0.00427596 0.00370054
C 9.61994816 21.29689496 6.01731427 -0.00576056 0.00298264 0.00985802
C -1.23667725 24.17531922 9.61352146 0.00542652 0.00693418 -0.00417366
C -1.54706159 19.49548620 8.78557394 -0.00065471 0.00044822 0.00837921
C 5.17735454 23.58752968 8.71066792 -0.00292093 0.00513112 -0.00407539
C 5.55304458 28.66317819 9.72560968 0.00091236 -0.00284973 -0.00015505
C -2.42522274 25.13478180 9.44797101 -0.00378405 0.00750207 -0.00139296
C -0.19639190 20.07010389 9.07231162 -0.00170549 -0.00461075 0.00353486
C 6.37321071 22.61654590 8.90124419 0.00230122 -0.00769374 0.00005965
C 4.33950971 27.86953347 9.55062785 0.00838579 0.00723076 -0.00003952
C -3.00380813 22.74433237 17.22301109 -0.00371675 0.00111616 0.00199023
C -5.70300705 27.86316909 13.06345391 0.00918470 -0.00281237 0.00139880
C 0.89679634 25.03880993 13.13699235 -0.00085365 0.00329268 -0.00714356
C 3.53008184 20.21321649 17.35506732 -0.00175629 -0.00425516 -0.00246355
C -1.83442678 22.64288098 16.49734369 0.00027672 -0.00394720 -0.00626392
C 6.28297781 27.62735231 13.85780863 0.00739372 -0.00939928 0.00299187
C -0.35012735 25.20258202 13.82100727 0.00674376 0.00107746 0.00159861
C -8.14202023 20.29166526 16.70070954 0.00282516 -0.00054248 -0.00468966
C -0.78973770 21.83449545 16.92277542 -0.00763551 -0.00113645 0.00236177
C 5.34828034 26.72031332 13.45841182 0.00400347 0.00566419 0.00188168
C -1.33917083 26.10843973 13.30603161 0.00512220 -0.00724735 0.00377310
C -7.23333888 21.18147125 17.16297509 -0.00032196 -0.00479370 0.00491972
C -0.87579565 21.16796641 18.14559236 -0.00788575 -0.00182065 -0.00756597
C 5.57583980 25.90969131 12.30995467 -0.00048656 0.00786947 0.00345518
C -1.11165637 26.88312772 12.16203826 0.00714191 0.00323258 -0.01102944
C -7.52383299 22.03037323 18.27666305 0.00342341 0.00041954 -0.00614105
C 1.02053968 21.24858003 12.84035288 0.00362902 -0.00061577 -0.00447168
C 3.82794858 26.10330857 17.79373161 0.00002838 0.00372936 0.00787936
C -2.85502774 26.83243823 17.61445507 0.00266787 0.00772192 -0.00241004
C -5.67894738 22.05273877 12.73317230 -0.00622852 0.00168271 0.00048952
C -0.03120526 22.05338265 12.46615599 0.00284370 -0.00229797 -0.00036688
C -8.37838402 26.90756509 18.17596422 -0.00522397 -0.00207343 0.00774001
C -1.89205969 26.02502631 18.11144228 -0.00405494 0.00420458 0.00044161
C 6.60684173 21.32090889 12.24039370 -0.00269716 -0.00373859 0.00050331
C -4.17769425 24.35083462 15.80649466 0.00094642 -0.00397201 0.00192927
C -4.61328210 19.48721283 14.69510998 -0.00252930 -0.00232779 -0.00331800
C 2.18109452 23.69722124 14.64855759 0.00166954 -0.00313715 -0.00279228
C 2.54660137 28.62409956 15.68298781 -0.00614153 0.00176343 -0.00418584
C -5.41361119 25.22468329 15.82462854 -0.00407712 0.00455935 -0.00069738
C -3.51244225 20.55695412 14.67223191 0.00059187 0.00106065 0.00458620
C 3.46669156 22.98728980 14.82531719 -0.00166939 0.00926313 0.00255176
C 1.40586735 27.64745341 15.53515460 0.00241586 -0.00123990 0.01005357
C -5.84639003 22.90728569 23.29809916 0.00204404 -0.00264338 0.00168316
C -8.56029765 27.62545239 19.33170501 -0.00563499 0.00257170 0.00787526
C -2.08197033 25.16372813 19.17997262 -0.00508478 -0.00094533 0.00655296
C 0.76357504 20.40336057 23.52426153 -0.00637540 0.00335944 -0.00200208
C -4.69691434 22.87397700 22.55277060 0.00564073 0.00029257 -0.00340796
C 3.25618435 27.59032812 20.03017344 0.00636365 -0.00523663 -0.00235644
C -3.25281482 25.31652221 19.85592375 -0.00796316 -0.00422196 0.00455066
C 27.97905714 20.39426037 22.76403682 0.00443020 -0.00019881 0.00009671
C -3.66239540 22.02578672 22.91446947 -0.00153604 0.00959419 -0.00351214
C 2.33260485 26.69208745 19.62631938 0.00187023 0.00242852 -0.00407558
C -4.21251955 26.20803705 19.45965569 0.00347131 -0.00329581 0.00517122
C -10.35971368 21.32231519 23.01760655 -0.00010093 -0.00060200 -0.00662980
C -3.87294315 21.16660338 24.02479479 -0.00778429 -0.00550630 -0.00373673
C 2.50819140 26.01701616 18.35934758 -0.00253141 0.00712532 -0.00056410
C -4.16083818 26.84272881 18.23357205 0.00276067 -0.00099741 -0.00280559
C -10.44746775 22.07551013 24.19064715 -0.00109846 0.00309337 -0.00174086
C -2.10643176 21.25579774 18.90831370 -0.00315242 0.00709100 -0.00068297
C 0.65077128 25.91583399 23.97817068 -0.00201556 0.00032624 0.00018840
C -5.88676019 26.91160568 23.84447209 0.00075949 -0.00400331 -0.00201589
C -8.80297360 21.94588781 18.86091374 0.00455217 0.00562166 -0.00944914
C -3.14648937 21.93124083 18.39111378 0.00236859 0.00166845 -0.00005893
C -11.43468101 26.88906496 24.39010943 -0.00258293 -0.00154423 0.00318896
C -4.99340198 25.96054600 24.20829755 0.00452926 -0.00140654 0.00064734
C 3.30150295 21.09316941 18.45757896 -0.00223076 -0.00450794 0.00409332
C -6.95715997 24.44965430 21.81209582 0.00195802 -0.00620138 0.00617823
C -7.35088452 19.38509991 20.96764873 0.00038267 -0.00091976 0.00033301
C -0.86320571 23.85814661 20.70935177 -0.00614050 -0.00141725 0.00206214
C -0.60543730 28.45879242 21.82390771 0.00124091 -0.00191991 0.00321962
C -8.06766183 25.51098337 21.75909607 0.00380361 0.00076915 -0.00330384
C -6.12556032 20.24835743 21.14569329 0.00214078 0.00313674 0.00422555
C 0.39504024 23.10048803 20.89901797 -0.00909179 0.00527191 -0.00852741
C -1.81444839 27.75509304 21.46153418 -0.00227467 0.00153019 0.00766167
C 16.17888255 3.49484264 5.25897440 0.00881996 0.00339513 -0.00016849
C 13.41651157 8.33222917 0.83531056 0.00248337 0.00294203 0.00044825
C 20.19334875 5.83519568 1.20358915 0.00841558 0.00024631 0.01063026
C 22.84881182 1.01219060 5.43261918 0.00388201 0.00210090 -0.00009764
C 17.40606524 3.47065937 4.52386416 0.00592889 -0.00252417 0.00138919
C 25.35517699 8.41443957 1.54318956 0.00493295 0.00328001 0.00342939
C 19.01610124 6.08556160 1.89184805 -0.00545861 -0.00179732 0.00283465
C 10.82513499 1.05816865 4.46587867 -0.00111655 0.00351716 -0.00350458
C 18.48858851 2.75356047 4.98260240 -0.00292940 -0.00047501 0.00426703
C 24.26908933 7.56550698 1.18187455 -0.00231229 -0.00613586 0.00165742
C 17.95831555 6.72800819 1.29004372 0.00504281 0.00897086 -0.00203601
C 11.76227132 1.97010548 4.88250045 -0.00177037 0.00103107 0.00108756
C 18.40019648 1.95165238 6.19687942 0.00285500 0.00093446 0.00347269
C 24.45039210 6.66610580 0.12113377 0.00190299 -0.00016791 0.00018829
C 18.10308575 7.41362387 0.06976649 0.00113745 -0.00116058 -0.00526916
C 11.47000995 2.95258345 5.80209975 0.00121905 0.00076529 0.00711113
C 20.22067267 1.90682502 0.62203241 -0.00019420 0.01033528 0.00059281
C 22.97460483 6.85607053 5.72992755 -0.00285492 -0.00704709 -0.00133750
C 16.10379000 7.34442742 5.40379417 -0.00038814 -0.00882987 0.00017586
C 13.44866335 2.60951394 0.53177723 -0.00392086 0.00020942 0.00119948
C 19.29300642 2.84444249 0.24512831 0.00258430 0.00416126 0.00266580
C 10.73837424 7.70217843 6.09178184 0.00125655 -0.00321719 -0.00158821
C 17.06939097 6.64019462 5.98068115 0.00191147 -0.00171724 -0.00379790
C 25.52658426 1.92304911 0.30539883 -0.00613452 0.00382763 0.00275517
C 14.99138762 4.89039273 3.76222243 -0.00718463 -0.00278816 0.00264902
C 14.79147351 0.24270239 2.49402202 0.00061886 0.00105962 0.00564446
C 21.27601575 4.53784553 2.88341739 0.00529038 0.00206163 -0.00931556
C 21.62385658 9.51435030 3.55927906 0.00124033 0.00068161 0.00368993
C 13.90095590 5.91373724 3.59665894 -0.00002421 0.00560316 -0.00386559
C 16.13307609 0.99949784 2.66632552 0.00425746 0.00360330 -0.00887291
C 22.33574638 3.50740967 3.16304220 -0.00277636 0.00573312 -0.00604496