2880
Time=3000.00000000 pbc="T T T" Lattice="39.42779531 0.00000000 0.00000000 0.00000000 28.82653263 0.00000000 -12.02990880 0.00000000 24.40945455" energy=-18396.72434056 virial="-6.05650978 -3.94786581 -81.19692869 -3.94786581 -14.90416218 -22.37475096 -81.19692869 -22.37475096 56.10220530" stress="0.00218525 -0.00011158 -0.00308358 -0.00011158 0.00197184 -0.00086096 -0.00308358 -0.00086096 0.00460284" Properties=species:S:1:pos:R:3:vel:R:3
C 3.20563138 3.67156702 5.13287306 -0.00356161 -0.00406344 -0.00244437
C 0.42876472 8.67936390 0.97656691 -0.00660244 0.00400937 -0.00093340
C 7.02489793 5.97646498 0.93220619 0.00869095 -0.00739291 -0.00155391
C 9.76258493 1.09800084 5.20165602 -0.00184315 0.00096510 -0.00303787
C 4.42066251 3.55757992 4.43752562 0.00035225 -0.00926497 0.00164482
C 12.27319333 8.41133181 1.73291027 -0.00095637 -0.00571744 0.00471346
C 5.81563606 6.08152176 1.68875315 -0.00137258 0.00169225 -0.00313536
C -2.18227730 1.16967175 4.47111018 0.00231957 -0.00156630 -0.00406084
C 5.38389300 2.65863617 4.70854073 -0.00146930 -0.00205814 0.00293772
C 11.37485646 7.47204738 1.21821848 0.00485323 -0.00008183 -0.00074906
C 4.79697790 6.89825387 1.22020142 0.00198987 0.00913108 -0.00343588
C -1.25930144 2.06449366 4.87655928 0.00045525 0.00158522 0.00452937
C 5.13347645 1.78528361 5.78663625 -0.00248520 0.00601327 0.00993453
C 11.52745949 6.70210570 0.06597348 0.00693658 -0.00254078 0.00192880
C 5.05455736 7.72595093 0.09958673 0.00001366 -0.00557193 0.00152197
C -1.39328774 2.87930506 5.99026975 -0.00343377 0.00072472 0.00593049
C 6.83669750 2.21269087 0.59185201 -0.00061997 -0.00352004 -0.00576137
C 9.94680655 7.01178181 5.48771488 -0.00131753 0.00174280 -0.00258348
C 3.28443807 7.63742985 5.75660119 0.00137199 -0.00017605 0.00189143
C 0.17580038 3.07983973 0.26307615 0.00520007 0.00644802 -0.00449603
C 5.81681737 3.02105842 0.12624991 -0.00864285 0.00087402 -0.00341505
C -2.30222959 7.91049756 5.89773175 0.00417186 0.00643168 0.00154115
C 4.27975004 6.66028750 6.05256442 0.00540157 0.00340322 0.00367884
C 0.49581981 1.81980190 24.34362085 0.00554855 0.00835843 0.00376620
C 1.96763110 4.98818749 3.53710806 -0.00590822 0.00480069 0.00404537
C 1.64384798 0.31079481 2.71751648 0.00349568 0.00336750 -0.00290079
C 8.28749003 4.74136423 2.55168866 -0.00048389 0.00435084 -0.00066698
C 8.45316668 9.26369717 3.67432087 0.00095706 0.00091184 -0.00246936
C 0.86590182 6.01655996 3.48589786 -0.00181718 -0.00176596 0.00049338
C 2.96803706 0.99941162 3.05728430 -0.00111612 0.00442916 -0.00041672
C 9.47055134 3.83834127 2.69762846 0.00397811 -0.00460089 -0.00683535
C 7.24648477 8.37012756 3.68847572 -0.00428004 0.00451011 -0.00859398
C 0.12741466 3.60406922 11.18790942 -0.01084008 0.00593634 -0.00149302
C -2.63928148 8.78833864 7.01798525 -0.00010776 -0.00840299 0.00424886
C 4.16114394 5.74484890 7.12482323 0.00239705 0.00156477 0.00836496
C 6.73911602 1.02909405 11.23151840 0.00498646 0.00039754 -0.00492512
C 1.40370653 3.61453471 10.64369218 -0.00056990 0.00363574 0.00414448
C 9.64458126 8.28572917 7.92535646 0.01060132 0.00039063 -0.00354450
C 2.99133058 5.90048561 7.90615213 -0.00838401 0.00335032 -0.00350916
C -5.07969040 1.32434428 10.44002364 0.00101748 -0.00308081 -0.00024997
C 2.44903283 2.92142230 11.16054385 0.00054711 -0.00014040 -0.00124766
C 8.72681116 7.38618313 7.54546913 0.00012002 -0.00034618 -0.00311581
C 1.95308578 6.76661625 7.59440783 0.00633999 0.00099431 -0.00302709
C -4.09255776 2.17815814 10.86170634 -0.00171365 0.00467728 0.00903517
C 2.21890227 1.98155630 12.23465264 0.00814344 0.00169081 0.00393043
C 8.81762524 6.75769580 6.31080049 -0.00123196 -0.00443511 0.00961383
C 2.11363697 7.65624354 6.52321935 -0.00234438 0.00745178 -0.00226160
C -4.32776063 3.10065373 11.91832830 0.00176629 -0.00479572 -0.00598886
C 3.94902503 1.89178650 6.55571578 -0.00243105 0.00068597 0.00879201
C 6.57050384 6.50556494 11.57273607 0.00477753 -0.00323298 0.00407628
C 0.10977701 7.34335269 11.46913921 -0.00117063 -0.00080713 -0.00002450
C -2.62753360 2.78498153 6.64440367 -0.00396504 -0.00515987 0.00375782
C 2.93406874 2.81126739 6.18096549 0.00105320 -0.01018307 0.00225903
C -5.53631571 7.86575004 11.77341110 0.00192451 0.00503797 0.00497118
C 1.11517163 6.54693155 11.99011867 -0.00698231 -0.00462839 0.00093775
C 9.65605788 1.87360663 6.38144710 0.00090758 -0.00322680 -0.00333004
C -0.83372836 4.92803665 9.42947154 0.00167119 -0.00543909 0.00329171
C -1.36730956 0.11543161 8.67914200 -0.00291314 0.00501787 0.00803802
C 5.39520631 4.29722474 8.55224660 0.00210946 0.00140392 0.00229136
C 5.62638691 9.07167007 9.61860776 0.00073082 -0.00632829 -0.00099469
C -1.90796803 6.00473060 9.19270518 -0.00271983 0.00161877 0.00371428
C -0.03204158 0.77192702 8.83093347 -0.00134221 0.00296898 0.00093784
C 6.60052015 3.37050789 8.68545705 0.00269537 -0.00054201 0.00469279
C 4.45738151 8.12827219 9.41575874 -0.00580751 -0.00184810 0.00616812
C -3.07941810 3.83936186 17.36777421 0.00143126 -0.00498595 0.00074523
C -5.72444373 8.60235726 12.92892045 0.00071840 0.00211328 -0.00655182
C 0.90368573 5.82225586 13.14760522 -0.00019747 0.00253328 -0.00426475
C 3.74278317 1.03808715 17.41812681 0.00143649 -0.00347199 -0.00576517
C -1.82817480 3.84515487 16.67424579 -0.00265977 -0.00343836 -0.00648293
C 6.21042967 8.10502807 13.78366889 0.00703964 -0.00250979 -0.00505778
C -0.44779234 5.98696232 13.73702811 0.00406710 -0.00672215 0.00545671
C -8.12862024 1.09168257 16.64446543 -0.00149855 0.00331400 0.00449043
C -0.87622381 2.91456964 16.99583571 0.00699184 0.00420122 -0.00251866
C 5.21942135 7.19934079 13.41042563 -0.00816728 -0.00815498 0.00573910
C -1.44220152 6.73389096 13.21297575 0.00497694 -0.00329993 0.00043086
C -7.22471184 1.97276646 17.06549589 0.00060776 -0.00476131 0.00187430
C -0.95119213 2.07239485 18.15206992 0.00001607 0.00044251 -0.00013774
C 5.45026708 6.31627306 12.35543089 0.00128436 0.00270666 0.00406914
C -1.16638248 7.49007003 12.05784717 0.00602220 0.00246369 -0.00229713
C -7.39282553 2.77845482 18.25013449 -0.00964386 -0.00443730 0.00095147
C 0.94697416 2.02604454 12.78027122 0.00270930 -0.00031792 -0.00400913
C 3.81795838 6.66442122 17.82191455 0.00580113 -0.00038914 0.00896103
C -2.95246685 7.69024703 17.55348146 0.00796150 0.00382387 0.00124270
C -5.53288276 2.94721701 12.59438025 0.00261306 -0.00540299 0.00622442
C -0.05680211 2.81880542 12.30093484 -0.00274819 -0.00339300 0.00787185
C -8.40413457 7.67632755 18.07646166 -0.00540520 -0.00029643 -0.00259389
C -1.94188925 6.80011144 17.87771178 0.00390243 -0.00368129 0.00071981
C 6.48897983 1.87178034 12.29111898 0.00465631 -0.00869702 -0.00547954
C -4.34565091 5.08399342 15.62242761 0.00345444 -0.00103776 -0.00132000
C -4.34656535 0.56558931 14.65090406 0.00520397 -0.00213505 -0.00217538
C 1.98184944 4.52695962 14.83253329 -0.00610559 -0.00440170 0.00263451
C 2.71655426 9.17700017 15.52294724 -0.00227146 0.00078544 -0.00913685
C -5.47052353 5.99077205 15.45649425 0.00422568 0.00368898 0.00539536
C -3.10754622 1.49126282 14.65460861 -0.00022861 0.00123668 -0.00548503
C 3.10474074 3.57863521 15.06294117 -0.00065078 0.00381520 -0.00417658
C 1.37948362 8.55173360 15.28711497 -0.00083444 0.00318021 -0.00077190
C -5.91505238 3.90087174 23.44889040 0.00236931 -0.00365701 0.00135797
C -8.66462059 8.58144484 19.12602779 0.01145109 -0.00264539 0.00179423
C -2.13515078 5.98642382 19.03858008 0.00136071 -0.00121567 0.00005032
C 0.65106212 1.06050864 23.21768280 -0.00276360 0.00255740 -0.00159778
C -4.66717251 3.84984706 22.82186369 -0.00674662 0.00018008 -0.00334216
C 3.52512745 8.57259684 19.77990804 -0.00525626 0.00456602 -0.00240057
C -3.38476424 5.96025270 19.66589028 0.00334042 0.00468768 -0.00275786
C 28.15823797 1.35687519 22.49059889 -0.00859669 -0.00200184 -0.00682454
C -3.64617311 3.02539597 23.26204827 0.00499026 -0.00214907 -0.00117707
C 2.45244391 7.73757082 19.44471319 0.00054330 0.00409599 0.00331617
C -4.40595490 6.79006684 19.24896650 0.01069578 -0.00962855 -0.00656455
C -10.39777243 2.40273341 22.86254661 0.00040783 0.00289837 -0.00173702
C -3.90488611 2.13855160 24.37188382 0.00530385 0.00521005 -0.00300381
C 2.56009616 6.79571873 18.45675015 -0.00676550 -0.00356071 0.00086056
C -4.16187353 7.73931872 18.23736390 -0.00014227 -0.00043796 -0.00250982
C -10.55174991 3.16599992 24.02396018 -0.00025198 0.00109574 0.00077630
C -2.11647028 2.18177001 18.89338690 -0.00337506 -0.00353502 -0.00335258
C 0.81908346 6.71272722 23.93117390 -0.00387082 -0.00073802 0.00291716
C -5.71392694 7.73755132 23.85512366 -0.00018895 -0.00442091 -0.01015867
C -8.68440892 2.72973921 18.82116606 0.00163851 0.00339803 -0.00711196
C -3.16724767 3.01997619 18.49312922 -0.00362021 -0.00217323 -0.00282246
C -11.17637742 7.93820667 24.23800125 0.00426054 -0.00085211 -0.00148138
C -4.80437462 6.76516106 24.20830024 0.00701149 0.00038878 -0.00223156
C 3.49838459 1.88812631 18.46991738 0.00282469 0.00339621 -0.00293029
C -7.04816574 5.30638649 21.79612816 -0.00254584 0.00091134 -0.00048731
C -7.63794961 0.43141737 20.89567035 0.00014013 0.00272518 -0.00238020
C -1.02894497 4.78879787 20.84744172 0.00069369 0.00131431 -0.00423277
C -0.63971759 9.17860765 21.82994435 0.00681021 -0.00049540 -0.00282077
C -8.23772609 6.08626712 21.57841750 0.00356896 -0.00182324 -0.00385711
C -6.56217828 1.43726253 21.13889850 -0.00113460 0.01073684 -0.00881841
C 0.18620778 3.85417934 21.10276607 0.00096489 -0.00375827 -0.00374602
C -2.03905515 8.55677362 21.74059446 0.00297302 0.00235708 0.00394064
C 2.96084827 13.37354197 5.19828961 0.00469108 -0.00916899 0.00395571
C 0.48590967 18.03182774 0.92186542 -0.00084219 -0.00388091 -0.00332985
C 7.03384557 15.51561988 1.01604158 -0.00258620 -0.00067909 0.00134819
C 9.70786702 10.70245669 5.14558682 -0.00463953 0.00450991 -0.00090164
C 4.18321894 13.32169628 4.60508460 0.00294630 -0.00037670 0.00038430
C 12.34129780 17.88364521 1.81124236 -0.01030543 0.00428619 -0.00483243
C 5.72655144 15.58117779 1.66553167 -0.00308260 0.00608515 0.00374913
C 37.19642339 10.81596284 4.38493697 0.01062037 -0.00046971 0.00431846
C 5.17264903 12.44252211 5.02284773 0.00283042 0.00489711 0.00946537
C 11.41457519 16.95789020 1.31342290 0.00052671 -0.00411482 0.00385468
C 4.74966020 16.38809937 1.20798367 -0.00421166 0.00216807 0.00390348
C -1.29596218 11.74854945 4.76406435 -0.00005681 -0.00072511 -0.00149981
C 4.94994233 11.57325391 6.11017353 0.00504745 -0.00570204 -0.00406044
C 11.53805561 16.26222373 0.13274800 0.00138854 -0.00956613 0.00161599
C 4.93611439 17.23051164 0.09213653 -0.00378434 0.00860363 0.00500014
C -1.62923828 12.65590124 5.87317475 0.00297552 -0.00230458 0.00732549
C 7.01918470 11.69132634 0.74468939 0.00580588 -0.00333090 -0.00293752
C 9.70027092 16.36883708 5.49520648 0.00522247 -0.00070731 -0.00144713
C 3.23230302 17.24561448 5.49369053 0.00017184 -0.00300702 0.00312675
C 0.47717041 12.58575060 0.48440317 0.00653096 -0.00098869 -0.00190875
C 6.00369058 12.49587312 0.24972858 -0.00045530 0.00158990 0.00223774
C -2.46652588 17.27499760 5.86606111 -0.00659345 0.00726890 0.00667267
C 4.19355385 16.40756543 6.03105683 -0.00103943 0.00872298 -0.00606616
C 0.50496257 11.49049624 24.39180635 -0.00215423 -0.00020655 0.00243466
C 1.77491053 14.80976935 3.63552454 0.00160562 -0.00106252 -0.00852421
C 1.60672576 9.82018972 2.77527801 -0.00165820 -0.00383243 -0.00947025
C 8.12460889 14.05760744 2.59339661 0.00081655 0.01269133 0.00302017
C 8.49213775 18.74733822 3.56652321 0.00082750 -0.00532899 0.00312483
C 0.60291939 15.67682336 3.52696568 0.00714923 -0.00030914 -0.00134154
C 2.63076707 10.84565773 3.20897399 -0.00450174 0.00093256 -0.00596053
C 9.34148944 13.20476043 2.73100562 -0.00314315 -0.00540342 -0.00579333
C 7.16360171 18.07290267 3.46349462 -0.00375074 0.00390072 -0.00094844
C 0.06101585 13.37289739 11.35741210 -0.00346904 0.00640147 -0.00010302
C -2.79039854 18.10351356 6.96832499 -0.01065894 0.01132295 0.00182227
C 3.98802425 15.60794683 7.14900117 -0.00198254 0.00348163 0.00376655
C 6.71610005 10.56496321 11.17585475 0.00001120 -0.00238232 -0.00183305
C 1.30900381 13.36757624 10.69271294 -0.00943314 -0.00439974 0.00176332
C 9.47793956 18.04448304 7.79169490 -0.00081910 0.00250144 -0.00654274
C 2.76221138 15.75995356 7.81863558 0.00584764 -0.00312910 0.00160536
C 33.98822797 10.86999254 10.32337015 0.01050589 -0.00173768 0.00323726
C 2.27455272 12.50347568 11.09439553 0.00302907 0.00464475 -0.00415048
C 8.45905619 17.20410806 7.46411970 0.00134302 0.00086050 0.00296859
C 1.83718008 16.64779713 7.28467547 -0.00121441 -0.00151484 0.00708369
C -4.34023320 11.64002272 10.80480668 -0.00126741 -0.00192236 0.00595621
C 2.11031536 11.61080203 12.22220378 -0.00161228 0.00384425 0.00207490
C 8.56022128 16.31087814 6.31349942 0.00107927 -0.00244782 0.00051078
C 1.96172412 17.32370591 6.05269365 -0.00603927 -0.00384364 -0.00220341
C -4.62620117 12.51434515 11.92443207 0.00017087 0.00357248 0.00873349
C 3.66189599 11.58732476 6.65945428 0.00193868 0.00834657 0.00507569
C 6.90583463 16.21135144 11.84428468 -0.00257536 -0.00431305 0.00429112
C 0.21708564 17.26675729 11.76060130 -0.00022547 -0.00393012 -0.00311854
C -2.87604499 12.45876499 6.52630731 0.00388800 -0.00182366 0.00090971
C 2.71035039 12.50668542 6.28385115 -0.00063752 -0.00044053 -0.00036771
C -5.51244867 17.38421611 11.88210957 0.00032460 -0.00379768 -0.00390749
C 1.17295650 16.50047102 12.28721117 0.00382895 0.00853044 0.00605124
C 9.58940308 11.59727577 6.20994401 0.00364714 0.00300450 -0.00244672
C -1.26583685 14.66437278 9.71325594 0.00374136 -0.00513777 -0.00229595
C -1.34187936 10.11643368 8.56269658 0.00117365 0.00214348 0.00094517
C 5.18579025 14.25651683 8.80686929 -0.00500306 0.00298496 0.00044921
C 5.73985629 18.88605258 9.64103927 0.00466277 -0.00359954 -0.00247142
C -2.61721967 15.28974536 9.58945584 -0.00218551 -0.00126170 0.00299013
C -0.08532427 10.91009757 8.60951020 0.00399575 -0.00003051 -0.00587239
C 6.10152644 13.03071183 8.84590868 -0.00406902 0.00571811 0.00287689
C 4.46998308 18.08396039 9.39430552 0.00359234 -0.00369811 -0.00136123
C -2.68297073 13.18908590 17.45197698 -0.00062900 0.00358128 -0.00607715
C -5.69171331 18.11285961 13.08786593 -0.00133294 -0.00107302 0.00413497
C 0.89455740 15.64437822 13.35420927 -0.00124224 -0.00182930 0.00729512
C 3.91780744 10.57244375 17.15972946 0.00216105 0.00161301 0.00351036
C -1.42478007 13.31486245 16.87523961 -0.00224665 0.00824862 0.00029988
C 6.57770144 18.02601073 13.94324429 -0.00292615 0.00254059 0.00546884
C -0.33594778 15.61268845 13.91667681 0.00599195 0.00092864 0.00837425
C 31.15755979 10.73588015 16.54295177 -0.00232577 -0.00494969 -0.00054050
C -0.39903249 12.52245808 17.30279118 0.01080591 -0.00530615 0.00209021
C 5.55882233 17.09606063 13.57200761 -0.00458420 -0.00558386 0.00624674
C -1.35329141 16.40196762 13.43287674 -0.00691957 0.00429798 -0.00275448
C -7.22137538 11.61302552 16.97606106 0.00131476 0.00795463 -0.00525459
C -0.53515182 11.64412449 18.39684388 -0.00015085 0.00215561 0.00315970
C 5.73296417 16.07294287 12.60499053 -0.00361087 0.00163883 -0.00433934
C -1.11199761 17.20653939 12.29925842 0.00048494 0.00030928 0.00182409
C -7.39688221 12.42573389 18.06874363 -0.00771149 0.00004134 0.00057280
C 0.88914185 11.68566174 12.95140321 -0.00262815 0.00249494 -0.00695896
C 3.87767731 16.46109601 17.78203527 -0.00487053 0.00081198 -0.00640561
C -2.62824344 17.24925272 17.91739612 0.00063792 -0.00376255 0.00508504
C -5.90705408 12.54933883 12.52403564 0.00154004 0.00280230 0.00575883
C -0.10449768 12.55825552 12.44133801 0.00715194 -0.00696949 -0.00371248
C -8.57883846 17.20267559 17.91356889 -0.00663070 -0.00160485 0.00027031
C -1.63519265 16.39488518 18.44789078 -0.00066398 0.00074666 0.00364108
C 6.45044323 11.41696677 12.25971579 -0.00017282 -0.00035971 0.00763572
C -3.96122678 14.40846804 15.77110941 -0.00110666 0.00073375 -0.00284000
C -4.50480114 9.89698134 14.58967957 0.00053868 -0.00911290 0.00037436
C 2.09855995 14.08685226 14.84621508 -0.00697489 0.00202895 0.00670337
C 2.49506146 19.08570887 15.89570256 0.00750520 0.00026543 -0.00308384
C -5.06552756 15.37422809 15.50700337 -0.00202563 -0.00147147 -0.00682063
C -3.23213004 10.56887718 14.82680627 -0.00503701 -0.01139585 -0.00025886
C 3.19746678 13.08342572 14.96961623 -0.00152200 -0.00238155 0.00000362
C 1.11961638 18.37618027 15.72123870 -0.00120882 -0.00276724 -0.00409255
C -5.77363137 13.31907853 23.58639253 0.00106081 -0.00541338 0.00311674
C -8.65208191 17.93767392 19.10899527 0.00590086 -0.00481552 0.00290118
C -1.83849142 15.51171965 19.49376367 0.00488819 -0.00481049 0.00477710
C 0.63240767 10.56585799 23.29801683 -0.00036591 -0.00436349 -0.00209189
C -4.56218492 13.10981820 22.88267831 0.00467351 -0.00262933 -0.00106539
C 3.69320254 18.16521329 20.03170324 0.00114419 -0.00327035 -0.00602547
C -3.15659844 15.53436150 20.04782352 0.00228713 0.00069687 -0.00251200
C -11.12015991 10.95457811 22.70917987 0.00301214 0.00801916 -0.00402606
C -3.60711081 12.24443800 23.29720778 -0.00542436 0.00102098 0.00034444
C 2.58769774 17.43487912 19.61397548 0.00029599 0.00584659 -0.00272854
C -4.13058410 16.36868263 19.53152917 0.00468121 0.00127308 0.00149007
C -10.11634082 11.78149189 23.20132081 -0.00051201 0.00005798 -0.00100177
C 8.23248340 11.55648086 0.10366638 0.00241804 0.00104318 0.00428919
C 2.64507956 16.53906583 18.51367236 -0.00724684 0.00134414 0.00280646
C -3.92068017 17.15870363 18.39057507 -0.00053120 0.00227558 0.00153879
C -10.31445608 12.70585305 24.27101664 -0.00002705 -0.00545814 -0.00781089
C -1.78002861 11.64458160 19.04640384 0.00732309 0.00047168 0.00297148
C 0.74552264 16.47137286 23.81741976 0.00452590 -0.00289467 0.00157201
C -5.82597013 17.25034959 23.91416063 0.00026468 0.00614947 0.00003899
C -8.71221947 12.36851296 18.74446386 0.00016764 0.00034163 -0.00248337
C -2.82561856 12.41720965 18.61785776 0.00391541 0.00024284 0.00004533
C -11.31844861 17.25054094 24.20291523 0.00242896 -0.00182894 -0.00378662
C -4.82595487 16.42145426 24.37047528 -0.00276768 -0.00417300 -0.00600548
C 3.67118553 11.42423152 18.30716258 -0.00086146 -0.00309432 -0.00661297
C -6.91601248 14.68489018 21.85341332 -0.00063935 0.00364479 -0.00048978
C -7.57369437 9.93775674 20.79939154 0.00246186 -0.00410431 -0.00224138
C -0.69768129 13.91740003 20.98235787 -0.00306413 -0.00278865 -0.00006985
C -0.66305822 18.91340668 21.93517273 0.00062106 0.00455083 -0.00197639
C -7.87573349 15.79344307 21.56412411 -0.00036013 0.00225389 0.00111591
C -6.37840437 10.78959184 21.04834607 -0.00110007 -0.00537986 -0.00341561
C 0.66534999 13.31280292 21.27030623 -0.00286107 -0.00077667 0.00583288
C -1.76298007 17.89482807 21.83554417 -0.00211935 0.00544444 -0.00565982
C 2.98444341 22.72557470 5.05845288 -0.00070265 0.00247254 -0.00075078
C 0.48754633 27.95881488 1.01577519 0.00051512 0.00321183 0.00579769
C 6.84396570 25.22669516 0.91983956 0.00742570 -0.00382315 0.00182004
C 9.70749399 20.28265860 5.07213101 0.00091634 0.00026451 0.00394830
C 4.26238422 22.73406955 4.46891282 -0.00056911 0.00502221 -0.01005379
C 12.26727282 27.69031953 1.41859705 0.00005928 -0.00003868 -0.00670132
C 5.65291038 25.26289227 1.61407613 -0.00019586 0.00480278 -0.00522882
C 37.04483449 20.30031459 4.26013284 -0.00283904 0.00346530 -0.00089036
C 5.20485693 21.83635027 4.84977472 -0.00621352 -0.00159531 -0.00443191
C 11.16447920 26.87161652 1.05226891 -0.00596092 -0.00541093 0.00046745
C 4.65925741 26.19281458 1.23619522 0.00484942 0.00209898 -0.00874380
C -1.47922082 21.24219218 4.63814865 0.00032874 -0.00526124 -0.00215141
C 5.01491056 20.92499195 5.87056847 0.00725256 -0.00477903 -0.00589513
C 11.35352616 25.90371559 0.03720176 -0.00743964 0.00027037 0.00307373
C 4.81459510 26.97165445 0.09192383 -0.00205111 -0.00245151 -0.00220556
C -1.65880087 22.03887644 5.77092607 -0.01002739 0.00016904 0.00283809
C 6.77815951 21.34460535 0.86812582 0.00026286 0.00354435 -0.00227717
C 9.59980026 26.16966528 5.41330827 -0.00821996 -0.00528716 0.00444555
C 3.21966656 26.53817904 5.62960738 -0.00069274 0.00061141 0.00320349
C 0.33665878 21.56905509 0.64431360 0.00250768 -0.00295504 0.00341456
C 5.79949373 22.15158290 0.28553733 -0.00313539 0.00136934 0.00338273
C -2.58374966 26.79997262 6.00068407 0.00101065 0.00388454 0.00092714
C 4.10900739 25.61546293 6.09187798 0.00152915 0.00253904 0.00080110
C 12.38395639 21.11823423 0.14345459 0.00293332 -0.00688640 -0.00334090
C 1.88291872 24.15589039 3.52358951 0.00198857 -0.00313472 0.00304074
C 1.63709906 19.43275007 2.44828964 -0.00404704 -0.00131682 -0.00080359
C 8.07275025 23.84044913 2.47533492 0.00150765 0.00034236 -0.00301933
C 8.52829796 28.78847152 3.30242564 -0.00234726 0.00055283 -0.00728236
C 0.50919455 24.90170799 3.38102865 0.00337402 -0.00472873 0.00166798
C 2.89183166 20.24679280 2.67672812 -0.00039017 0.00169746 0.00485393
C 9.31199372 22.97954630 2.60528695 -0.00407789 -0.00639657 -0.00040359
C 7.25635493 28.13386307 2.86095686 -0.01213018 0.00005853 0.00168213
C 0.22154261 22.94862732 11.29435288 -0.00219001 -0.00098326 0.00449607
C -2.77578429 27.63798890 7.13576928 -0.00313727 0.00106765 0.00385879
C 3.92192969 24.86308478 7.26366842 0.00176076 -0.00352935 -0.00980991
C 6.90951262 20.21969754 11.27907768 -0.00107757 -0.00695486 -0.00922240
C 1.38647874 22.75593492 10.53083460 -0.00028907 -0.00528509 -0.00037202
C 9.19202809 27.84779787 7.65363540 0.00115754 0.00029688 0.00106021
C 2.72173660 25.05923036 7.92850882 0.00281800 0.00066232 -0.00241485
C 34.06691725 20.36829092 10.57510850 -0.00094827 0.00090860 0.00021471
C 2.36271598 21.89019727 10.96428462 0.00196524 0.00313993 -0.00521937
C 8.17412287 26.97388823 7.16388032 0.00357552 -0.00432312 0.00361665
C 1.79596415 25.97958571 7.48298992 0.00543405 -0.00649235 -0.00229470
C -4.36687527 21.25699274 10.88169630 0.00477017 0.00054212 -0.01088642
C 2.29165443 21.22905616 12.14254340 -0.00475811 0.00183952 -0.00347087
C 8.34493465 26.12781657 6.07428785 0.00597352 -0.00187907 0.00537102
C 1.99142350 26.62319609 6.29083774 -0.00642431 0.00569913 0.00595121
C -4.41968103 21.94691473 12.09192473 -0.00258283 0.00556992 -0.00469197
C 3.80653657 20.97320483 6.51602188 0.00154803 0.00479613 -0.00878235
C 6.75003024 25.86869010 11.93826728 -0.00147212 -0.01107040 0.00249064
C 0.14709354 27.13913093 11.84837426 -0.00117427 -0.00261362 0.00192260
C -2.88341486 21.97812021 6.42421183 0.00061141 -0.00666545 0.00132797
C 2.83826666 21.86260375 6.11301701 -0.00477609 -0.00673243 0.00288754
C -5.36483703 26.87882614 12.24528227 -0.00077983 -0.00262433 -0.00161032
C 1.07769570 26.29866365 12.17545923 -0.00419727 0.00105730 -0.00022157
C 9.49507249 21.21969552 6.12186407 -0.00650456 0.00142935 0.00186131
C -1.06833360 24.14232609 9.61733530 -0.00236182 0.00081771 -0.00370852
C -1.67259064 19.41936830 8.59041479 0.00015274 0.00733063 0.00571501
C 5.18784044 23.52063956 8.85557031 -0.00321359 0.00544092 -0.00053051
C 5.41681126 28.66251965 9.61102663 0.00879697 -0.00222859 0.00036007
C -2.15302388 25.16836164 9.49098149 0.00726362 0.00473008 -0.00132767
C -0.54839522 20.38372912 9.03194472 -0.00374871 -0.00491364 0.00230824
C 6.49804253 22.80941447 9.03320149 0.00395756 0.00369742 0.00073576
C 4.10345860 27.90817589 9.42158945 -0.00121322 0.00566959 0.00108038
C -3.05281238 22.86629719 17.32981397 0.00232876 -0.00554173 -0.00281526
C -5.62017453 27.85595773 13.24538770 -0.00139874 -0.00630448 0.00462487
C 0.90190859 25.35861343 13.16132073 0.00602731 -0.00141521 0.00021665
C 3.76764332 20.44142161 17.49839805 -0.00670834 -0.00108567 -0.00250052
C -1.77090613 22.86545905 16.75241034 -0.00537720 -0.00079033 0.00492838
C 6.35631032 27.60484511 14.00090898 -0.00024839 0.00529062 -0.00507404
C -0.31117906 25.36953505 13.87439629 0.00216118 -0.00525764 0.00014073
C 31.05123085 20.28698588 16.57973468 -0.00335888 -0.00448514 -0.00233541
C -0.71468891 22.08842210 17.23212383 -0.00168588 -0.00042756 0.00058127
C 5.34888870 26.71450446 13.67723266 -0.00036386 -0.00184224 -0.00370542
C -1.35224689 26.13368389 13.49355301 -0.00072969 -0.00372304 0.00258374
C -7.45025145 21.20094043 16.98694021 -0.00217829 0.00902419 -0.00096610
C -0.88292901 21.45470590 18.45333416 -0.00411424 -0.00212860 -0.00326360
C 5.51677262 25.81089891 12.58311509 0.00068444 0.00492656 0.00358991
C -1.17264585 27.08295110 12.38494608 0.00043441 0.00218303 0.00653406
C -7.55230538 22.00895794 18.10607180 0.00146321 -0.00540719 0.00246933
C 1.05229222 21.31160184 12.85998437 -0.00379286 0.00512027 -0.00455052
C 3.63103637 26.00489885 17.67497056 -0.00209581 -0.00201183 -0.00644690
C -3.13732405 26.64248747 17.54092013 -0.00487944 -0.00278134 -0.00443816
C -5.60831302 22.08359357 12.77063146 -0.00343785 -0.00507610 -0.00106426
C 0.02575381 22.14057758 12.45815414 0.00048272 -0.00184132 -0.00509369
C -8.31148081 26.79308126 18.21590457 -0.00722035 0.00619056 0.00284599
C -2.06653789 25.84303844 17.94680046 -0.00203168 0.00736374 0.00075077
C 6.68385888 21.03573307 12.39228182 -0.00037298 0.00219028 -0.00488662
C -4.14549886 24.13275165 15.61686711 -0.00025236 -0.00162004 -0.00468775
C -4.51269204 19.49671976 14.63639883 0.00482773 -0.00338885 -0.00169844
C 2.18308862 23.96162696 14.65152084 0.00888341 -0.00477886 0.00051764
C 2.52592849 28.59937826 15.78237229 -0.00681132 0.00662333 0.00007757
C -5.43063823 24.88137403 15.24280531 0.00331639 -0.00358766 0.00245574
C -3.25686253 20.31771127 14.78482534 0.00023743 -0.00973846 -0.00272156
C 3.37978770 23.08936010 14.66368387 -0.00495024 -0.00272923 0.00412400
C 1.24747765 27.86642657 15.49862140 -0.00174875 -0.00226894 0.00125768
C -6.00861185 22.86432374 23.50745661 0.00337352 0.00035495 -0.00063002
C -8.57179387 27.67147001 19.31768687 -0.00042791 0.00251245 0.00332764
C -2.16105368 25.10274882 19.16068146 0.00010417 0.00302208 0.00474020
C 0.53789118 20.26639517 23.47332067 -0.00250939 -0.00546085 0.00413465
C -4.84280844 22.64920968 22.80420392 -0.00239695 -0.00399091 0.00141567
C 3.25514766 27.48170813 20.03022214 0.00339202 0.00442354 0.01104581
C -3.43864870 25.09289188 19.74885649 -0.00139846 -0.00086245 -0.00367569
C 28.09854938 20.09168622 22.78459425 -0.00222095 -0.00218095 -0.00452998
C -3.90390777 21.77675660 23.27727254 -0.00126917 0.00198480 -0.00018179
C 2.21682916 26.71286687 19.56780862 0.00553635 0.00558975 0.00244136
C -4.47076206 25.92674939 19.35874561 -0.00386663 -0.00417596 -0.00561506
C -10.38734598 21.03077582 23.16021583 -0.00474934 0.00850324 -0.00624008
C 7.97933530 21.17693447 0.13004615 0.00609156 -0.00144305 -0.00649176
C 2.37292255 25.95336934 18.35494134 -0.00187991 0.00777339 -0.00304306
C -4.34942287 26.70507368 18.21702989 0.00622538 0.00008158 -0.00212799
C -10.59114455 21.82312768 24.28019357 0.00662938 0.00183182 0.00135119
C -2.17234791 21.34382557 19.01976297 0.00299958 -0.00275474 -0.00619926
C 0.53362902 25.89607791 23.71467629 0.00383600 -0.00211682 0.00872272
C -5.98097746 26.95332579 23.84974458 -0.00817553 -0.00215492 -0.00018787
C -8.76577869 21.95978709 18.79490090 0.00044193 0.00859595 0.00015826
C -3.23948134 22.03690693 18.44288401 -0.00086668 0.00425841 0.00202380
C -11.27066051 27.22197116 24.24690660 0.00502573 0.00105046 0.00446436
C -4.99100888 26.12990784 24.31922954 -0.00298758 0.00343538 -0.00376067
C 3.63766715 21.16183498 18.69581077 0.00218442 0.00397264 -0.00373179
C -7.24288530 24.18460219 21.82581522 -0.00344430 -0.00274901 0.00718316
C -7.23558079 19.20247468 20.67707384 0.00344421 -0.00630827 -0.00387820
C -1.07870774 23.89445116 20.97245937 -0.00323731 0.00745527 -0.00156487
C -0.63090266 28.49084031 21.60453060 0.00679030 0.00073933 0.00630691
C -8.28636668 25.24471289 21.63348587 -0.00001267 0.00527820 -0.00146951
C -5.96571317 19.99707362 20.70111198 -0.00386787 0.00171163 0.00303276
C 0.05207121 23.04005858 21.30576740 0.00042126 0.00516819 -0.00644990
C -1.86226390 27.59295104 21.43265416 -0.00492152 -0.00269250 -0.00455572
C 16.36192702 3.55631134 5.29555396 -0.00029169 0.00051031 0.00153584
C 13.53746810 8.52385720 1.01338558 -0.00167839 -0.00409543 0.00389104
C 20.13597270 5.86650347 1.01135461 0.00158971 -0.00102302 0.00309952
C 22.90225167 1.28187656 5.29344861 -0.00928124 -0.00651856 -0.00257623
C 17.51067684 3.42816298 4.49349947 -0.00559533 0.00078294 0.00512809
C 25.58583080 8.30949735 1.53208965 -0.00354354 0.00625159 -0.00858699
C 18.91215611 5.90121372 1.68086994 -0.00510570 0.00604935 -0.00753412
C 10.95470196 1.04502907 4.57766920 -0.00118119 -0.00015638 0.00439720
C 18.52993087 2.60974902 4.94533793 0.00156420 0.00200057 -0.00331493
C 24.57962303 7.45260433 1.22512674 0.00165684 -0.00089499 -0.00643017
C 17.97433782 6.77810810 1.19828563 0.00221381 -0.00038505 0.00123404
C 12.05148058 1.76572383 5.06936409 0.00225866 0.00567546 -0.00292044
C 18.41255246 1.76631121 6.10135315 0.00094983 0.00207873 -0.00537659
C 24.70752043 6.52801164 0.12354236 -0.00284099 -0.00067811 -0.00234800
C 18.16728796 7.54744993 0.03422504 0.00084240 -0.00258766 -0.00543668
C 11.90993181 2.67425047 6.15963129 0.00411957 -0.00124322 -0.00054661
C 20.10995947 2.02376554 0.78628485 -0.00984519 -0.00463536 0.00647170
C 22.63929148 6.72263150 5.45157964 0.00471407 -0.00120327 -0.00361221
C 16.46493464 7.48111939 5.56280117 -0.00882078 -0.00310650 0.00155800
C 13.45788216 2.69179535 0.40339615 -0.00064012 0.00050251 0.00393475
C 19.13671931 2.80011481 0.26800396 -0.00977761 0.00579213 -0.00100084
C 10.92453876 7.89172864 5.96220112 -0.00199516 -0.00115915 -0.00503130
C 17.53417221 6.81156212 6.06111580 -0.00137214 -0.00273333 -0.00240700
C 25.89137307 1.76217786 0.32192274 -0.00035794 0.00227832 0.00558454
C 15.10283590 4.82649257 3.67404935 -0.00019027 -0.00507415 -0.00368754
C 14.70206151 0.22376382 2.21557547 -0.00412277 -0.00197067 -0.00271259
C 21.46947195 4.59757192 2.67705193 0.00692515 0.00034441 0.00365840
C 21.32153139 9.13611274 3.53813055 0.00819482 0.00062940 0.00450428
C 13.97932997 5.81891938 3.59244899 0.00425392 0.00401570 0.00583072
C 15.95487135 0.99674024 2.59077036 -0.00225374 -0.00010567 0.00255400