2880
Time=64000.00000006 pbc="T T T" Lattice="39.39373619 0.00000000 0.00000000 0.00000000 28.74728955 0.00000000 -12.02473470 0.00000000 24.38846192" energy=-18399.87798035 virial="9.89773488 18.67401331 -65.24285627 18.67401331 24.15592135 11.38062633 -65.24285627 11.38062633 48.59192568" stress="0.00303589 0.00074999 -0.00239801 0.00074999 0.00342293 0.00034238 -0.00239801 0.00034238 0.00433628" Properties=species:S:1:pos:R:3:vel:R:3
C 3.09003401 3.85148603 5.24345768 -0.00338595 -0.00133569 0.00601939
C 0.38869345 8.47091977 1.10485329 0.00313906 0.00422312 0.00243288
C 6.92669127 5.95211957 1.18419202 0.00151709 0.00172275 -0.00272908
C 9.31001751 1.14275816 5.28134663 0.00065142 -0.00366473 -0.00066187
C 4.33594230 3.66978566 4.64442585 0.00491862 -0.00356085 0.00348787
C 12.19714382 8.47654296 1.55558211 -0.00222933 -0.00246622 0.00568914
C 5.75131042 6.15659040 1.94270904 0.00606530 -0.00035810 -0.00132245
C 37.05161750 0.98747464 4.48342746 0.00415221 -0.00471715 -0.00336168
C 5.12569520 2.60291529 5.00718299 0.00753691 0.00558049 -0.00816133
C 11.20208550 7.62475986 1.11410277 0.00461611 0.00204013 -0.00111456
C 4.75417169 6.96931685 1.46829795 0.00265376 -0.00919030 0.00252164
C -1.49899685 2.06082172 4.76323139 -0.00343233 0.00266687 0.00143944
C 4.76578437 1.68357646 6.03173199 0.00353943 -0.00439926 0.00403785
C 11.51542107 6.68219093 0.08720598 0.00247666 0.00208004 0.00065190
C 4.88365368 7.65145704 0.26180756 -0.00136248 -0.00170043 0.00100538
C -1.70026213 2.91212370 5.87820247 -0.00066827 -0.00448237 0.00064929
C 6.84992395 1.99343874 0.68529227 -0.00764355 0.00089842 -0.00408646
C 9.90327864 6.76993650 5.54753636 0.00342219 -0.00073350 -0.00239070
C 3.23827621 7.74732458 5.82831888 -0.01411893 -0.00082370 0.00353211
C 0.21310600 2.64542589 0.66254161 -0.00077924 -0.00434277 0.00357012
C 5.88912914 2.86659064 0.27420768 -0.00031484 -0.00251974 0.00410442
C -2.47383112 7.58821647 5.87863140 -0.00057925 0.00567812 -0.00019702
C 4.16908374 6.79350342 6.19499395 0.00177601 -0.00945175 -0.00355474
C 12.41888954 1.66673317 0.38823900 -0.00521555 0.00659947 -0.00392492
C 1.92002840 5.24007926 3.68727605 0.00405403 0.00535312 0.00198788
C 1.29264332 0.26141127 2.66376269 0.00322694 0.00247742 -0.00093946
C 8.20354480 4.38449745 2.65535077 0.00029631 0.00577436 0.00330696
C 8.34987266 9.54300368 3.85504145 -0.00092498 0.00241815 0.00064929
C 0.62899532 5.99013405 3.53434828 -0.00014178 -0.00068019 0.00012693
C 2.27061956 1.34693855 2.92173298 0.00186160 0.00115262 0.00172874
C 9.57657444 3.78020238 2.69615095 -0.00409376 -0.00015183 -0.00441908
C 7.12524355 8.66670600 3.86621284 0.00676264 0.00381881 0.00325271
C 0.01941056 3.78156112 11.28418457 -0.00084300 0.00423738 0.00020281
C -2.66580383 8.34649347 7.05288543 -0.00143012 -0.00057559 0.00149426
C 3.89769510 5.86049972 7.22293359 -0.00089093 0.00826361 0.00213484
C 6.58174459 1.09349738 11.27538027 -0.00476668 -0.00543948 0.00539617
C 1.16899958 3.56540207 10.50557450 0.00601580 -0.00306957 0.00679597
C 9.39565464 8.31557381 7.78867774 -0.00895754 0.00833689 -0.00028122
C 2.61668495 5.86438087 7.80547787 0.00036519 -0.00167823 -0.00390790
C 34.07110356 1.16153387 10.54630608 0.01296870 0.00336317 -0.00104448
C 2.10077521 2.57525557 10.86284796 0.00488897 -0.00266403 0.00017549
C 8.43188047 7.36804347 7.34060432 0.01134353 -0.00127851 0.00003365
C 1.65295481 6.71253515 7.32146150 0.01005870 0.00003780 -0.00422528
C -4.27586108 2.00518704 10.91695422 0.00015256 0.00630572 -0.00230054
C 1.81025898 1.66223020 11.89510215 0.00079992 0.01209730 -0.00089701
C 8.77872567 6.48838858 6.30098722 0.00575036 -0.00175133 0.00568848
C 1.95334018 7.67972609 6.36402131 -0.00587142 -0.00091250 -0.00373599
C -4.43015642 2.87464303 12.04855079 -0.00980880 -0.00775600 -0.00324926
C 3.54598014 1.93590643 6.68592569 -0.00275692 -0.00628919 -0.00269525
C 6.78889044 6.93124448 11.52940985 0.01111935 -0.00015068 -0.00343466
C 0.13100757 7.55874772 11.61101435 -0.00276140 -0.00008120 0.00082459
C -2.88117774 2.67961251 6.70016997 -0.00062257 -0.00259369 -0.00273882
C 2.66666598 2.85509133 6.16145257 0.00084973 -0.00247158 0.00452196
C -5.32078153 7.64258542 11.97576184 0.00328652 0.00245022 -0.00249906
C 1.13638995 6.79662989 12.13866190 -0.00056690 -0.00051180 -0.00138413
C 9.13535043 1.92540871 6.39532478 0.00996544 -0.00208910 -0.00242418
C -1.37934801 4.91614852 9.69045169 -0.00017645 -0.00058380 0.00635524
C -1.67237955 0.33734783 8.51053450 0.00625950 -0.00492705 -0.00539435
C 4.92915175 4.21295870 8.67769703 -0.01072055 0.00451130 -0.00073185
C 5.66773917 9.25035865 9.46486865 0.00649938 0.00143341 -0.00497914
C -2.59520198 5.80148004 9.60955723 -0.00810499 0.00050601 0.00505839
C -0.49306882 1.25805532 8.67481331 -0.00122904 0.00475613 0.00686232
C 6.04219807 3.18307478 8.80713132 -0.00377878 0.00073907 -0.00407546
C 4.45051885 8.39626841 9.46010579 0.00173392 -0.00087805 -0.00942417
C -3.12870773 3.74152868 17.32278754 0.00774087 0.00499454 -0.00049893
C -5.49570270 8.50777313 13.08234084 0.00027086 -0.00682516 -0.00113295
C 1.03257357 5.94140015 13.21765160 -0.00554331 0.00469301 -0.00371782
C 3.43803311 1.14023718 17.39799548 0.01157475 0.00205442 0.00122389
C -1.94067525 3.60913233 16.62022229 -0.01312986 -0.00141012 0.00435259
C 6.16808958 8.52871681 13.73136942 0.00363789 0.00716656 -0.00628367
C -0.19166483 5.96154261 13.92033608 0.00332833 -0.00803762 -0.00847002
C -8.04720985 1.04855454 16.80011977 0.00338873 0.00093228 0.00022403
C -0.97699427 2.71204687 17.06325244 0.00076478 -0.00060463 -0.00359331
C 5.24168306 7.62330179 13.23701516 -0.00019899 -0.00718597 -0.00071603
C -1.17362819 6.85743040 13.47725622 0.00030349 -0.00046145 0.00063758
C -7.12338499 2.01917828 17.23508959 0.00185432 0.00471555 0.00169944
C -1.26415118 1.87037367 18.18329927 0.00400271 -0.00215511 0.00702809
C 5.51905314 6.82390950 12.11663036 0.00372587 0.00112323 -0.00365783
C -1.00645312 7.74179386 12.43733259 0.00121530 0.00023274 -0.00314534
C -7.39200327 2.78204042 18.34917647 -0.00278194 0.00008547 0.00088542
C 0.53561241 1.84208023 12.56694793 -0.00853762 -0.00492159 -0.00165035
C 3.43177537 6.90629478 17.33002659 -0.00014621 0.00713611 0.00087215
C -2.95628110 7.58445631 17.86328419 -0.00331596 -0.00424511 -0.00154329
C -5.69962610 2.85601613 12.62749325 -0.00740253 0.00478529 0.00092377
C -0.15031142 3.01183198 12.45038392 0.01060737 0.00062734 0.00600985
C -8.31882626 7.54691801 18.10626639 -0.00265613 0.00103904 -0.00603834
C -2.16984625 6.56479915 18.28289319 -0.00029092 -0.00158877 -0.00201035
C 6.35813533 1.96979924 12.29464514 -0.00241248 0.00055174 0.00124565
C -4.42605192 5.00884533 15.69975157 -0.00657559 0.00259222 -0.00217227
C -4.51523550 0.02895192 14.83950186 -0.00208088 -0.00259721 0.00557161
C 2.34347967 4.64146719 14.77868837 0.00480629 0.00605352 0.00979277
C 2.60316837 9.39440898 15.56748987 0.00052676 0.00338292 -0.00485976
C -5.35040499 6.15829613 15.45604109 -0.00161013 0.00364771 0.00426845
C -3.53369014 1.18987638 14.88032035 0.00008618 0.00048856 0.00284180
C 3.72208507 4.26648866 15.11975974 0.00426572 0.00512157 0.00673927
C 1.37926308 8.60001296 15.25004067 0.00264691 0.00428694 0.01006749
C -6.01447367 3.70310324 23.47973170 -0.00017674 0.00532531 0.00154981
C -8.44243501 8.28805880 19.26877817 0.00422369 -0.00641914 0.00722519
C -2.41840235 5.86615664 19.45839393 -0.00411662 -0.00117753 -0.00370650
C 0.55378473 1.08015211 23.50140424 0.00583480 -0.01099300 0.00312084
C -4.76509243 3.61946135 22.84293266 -0.00072517 -0.00597336 -0.00044669
C 3.05135226 8.40419298 19.70663859 -0.00137533 -0.00756539 0.00330676
C -3.60125212 6.15693738 20.15350200 -0.00111836 0.00750848 0.00386384
C -11.16633482 1.03877194 22.90125437 0.00468051 0.00712878 0.01286179
C -3.76249001 2.76166934 23.29458238 -0.00412693 -0.00524658 -0.00406769
C 2.05452528 7.57355061 19.25460434 0.00239648 0.00600632 -0.00080452
C -4.45792242 7.04914369 19.64785137 0.00395975 0.00125925 0.00462488
C -10.25061806 1.94917305 23.37745841 0.00155816 -0.00274889 0.00425338
C -3.95228277 1.97677530 24.37670283 -0.00106610 -0.00373781 0.00470557
C 2.21116614 6.85767827 18.04285452 -0.00340446 -0.00467980 0.00200990
C -4.20438751 7.84339140 18.37307006 0.00138494 0.00059117 -0.00286184
C 1.53233985 2.67010752 0.17629278 -0.00273125 -0.00010736 0.00731728
C -2.49777600 1.95857752 18.88105091 0.00910153 -0.00087430 -0.00042664
C 0.69345913 6.93344525 23.70754234 -0.00001113 0.00947046 -0.00524897
C -5.84927818 7.69585064 24.12092771 -0.00453954 0.00211017 0.00224568
C -8.60780480 2.71048681 18.95905176 0.00323599 0.00102552 0.00241125
C -3.36974166 2.99768251 18.58185248 0.00155924 -0.00083652 -0.00215586
C 0.55833433 7.63330480 0.01329434 -0.00102172 -0.00295205 -0.00378026
C 7.13111609 6.76060433 0.10224355 0.00028517 -0.00103701 0.00145437
C 3.31965364 2.12436712 18.43127564 -0.00296441 0.00254708 0.00008952
C -7.22193835 5.00427483 21.99809949 -0.00255544 -0.00239534 0.01122220
C -7.23642305 0.33741082 20.92381483 -0.00103494 -0.00186862 -0.00111745
C -1.27575867 4.61655941 21.19954049 -0.00610824 -0.00018531 0.00259908
C -0.56717035 9.44055701 21.64795070 -0.00093956 -0.00589176 0.00073009
C -8.53709057 5.74083340 21.70909706 0.00003991 0.00392298 0.00321725
C -5.96608087 1.02909490 21.27313566 0.00160998 -0.00000356 -0.00042963
C 0.04509127 4.03554076 21.48424689 -0.00318697 0.00243113 -0.00438843
C -1.81343712 8.63060239 21.40285226 0.00568322 -0.00012095 -0.00019011
C 3.13948382 13.42272948 5.27721132 0.00772031 -0.00501440 -0.00615381
C 0.58496193 17.81986236 0.97299845 0.00304414 -0.01219652 -0.00074294
C 7.23602890 15.58844358 0.98512423 0.00611397 0.00144415 -0.00030186
C 9.81739038 10.68033163 5.44219925 -0.00543897 -0.00594180 0.00438054
C 4.33391137 13.32999871 4.62109654 0.00357191 0.00032296 0.00500117
C 12.49173377 18.18847786 1.67873570 -0.00386789 -0.00827224 -0.00418405
C 5.97782713 15.63774521 1.67199359 0.00485876 -0.00031680 -0.00549798
C -2.19124908 10.80840617 4.57447732 0.00107442 0.00832178 0.00209767
C 5.33758569 12.42155385 4.94794090 -0.00144029 0.00221980 -0.00636131
C 11.47653470 17.21121994 1.37688761 0.00069988 0.00183700 -0.00046020
C 5.08237861 16.67453839 1.47693747 0.00046541 -0.00559880 -0.00071308
C -1.27425724 11.71750823 5.00310935 0.00763466 0.00227151 -0.00120627
C 5.15073650 11.59597108 6.13526160 -0.00462385 -0.00205455 -0.00954703
C 11.54415335 16.42006932 0.19829977 0.00667940 -0.00033890 0.00463909
C 5.27766527 17.56408648 0.47237208 0.00320762 0.00249331 0.00555277
C -1.44169595 12.50388306 6.20736998 -0.00499988 -0.00329168 0.00056248
C 6.89813785 11.58715376 0.58558562 -0.01157779 -0.00168854 -0.00545381
C 9.92687202 16.36013338 5.56647327 -0.00399176 0.00505425 -0.00269892
C 3.28521654 17.29370221 5.71560465 0.00498150 -0.00289806 -0.00521321
C 0.36702972 12.22171283 0.68123438 -0.00972041 -0.00553919 -0.00156192
C 5.90854726 12.51180801 0.24775666 0.00275536 0.00973252 -0.00416840
C -2.53785905 17.26081297 5.70184055 -0.00807246 0.00051738 -0.00134625
C 4.36397724 16.43762655 6.05070373 -0.00268272 0.00070840 -0.00548926
C 12.39150838 11.59954135 0.02040171 0.00843947 -0.01441191 0.00431829
C 2.07320338 14.78171647 3.64156375 0.00410955 -0.00364124 -0.00162604
C 1.56660511 9.91630490 2.62459761 0.00281534 -0.00103555 0.00273186
C 8.28134161 14.02513861 2.49009922 -0.00337849 -0.00288637 0.00511089
C 8.63574011 18.92717858 3.61693473 0.00183962 -0.00457522 -0.00087875
C 0.95985913 15.77856697 3.36769133 -0.00971392 0.00439449 -0.00214978
C 2.80572259 10.80039837 2.64749953 0.00155508 0.00030182 0.00934404
C 9.36674570 13.09583999 2.60452069 0.00869583 -0.00922881 0.00185663
C 7.43312333 18.04046965 3.34920914 0.00822085 0.00359327 -0.00910980
C -0.00638277 13.40800263 11.17474198 -0.00914720 -0.00563397 -0.00602387
C -2.73798939 17.82330858 6.91188992 -0.00028014 0.00076687 -0.00209495
C 4.22142044 15.54395954 7.16451505 0.00127985 0.00473633 0.00148076
C 6.60269317 10.85278176 11.08337541 0.00923450 0.00177688 -0.00428306
C 1.21431534 13.28342154 10.43114529 0.00202962 -0.00221257 -0.00005430
C 9.42346315 17.93744867 7.78845231 0.00624122 -0.00253646 -0.00486365
C 3.04215002 15.57667782 7.88092256 -0.00454730 -0.00325119 0.00641968
C -5.06506013 10.63383858 10.37709542 0.00635733 -0.00578095 -0.00205853
C 2.24511443 12.37215057 10.80696523 0.00118848 0.00298364 -0.00315990
C 8.47325617 17.03308518 7.39808597 0.00432178 -0.00211269 0.00002223
C 2.03303352 16.47664625 7.58752093 -0.00782987 0.00153409 0.00590691
C -4.12507778 11.54516691 10.82664858 0.00448067 -0.00593317 -0.00183353
C 2.00599288 11.64344219 11.99802037 -0.00400156 -0.00318873 0.00256604
C 8.66738765 16.29421215 6.20323810 0.00238864 0.00303363 -0.00175974
C 2.06904121 17.29643905 6.39742136 0.00031357 0.00310456 0.00194551
C -4.24732745 12.29442985 11.97917600 -0.00258150 0.00428055 -0.00408370
C 3.89845621 11.73767948 6.79267133 -0.00324976 -0.00099410 0.00187537
C 6.68573597 16.45386215 11.63562163 -0.00335140 -0.00126966 0.00340925
C 0.09495073 17.21545648 11.68935500 -0.00343122 0.00449106 -0.00315968
C -2.64057571 12.34089498 6.92586020 -0.00029727 0.00495968 -0.00077730
C 2.90367911 12.55434118 6.33051806 -0.00901444 -0.00612839 -0.00526964
C -5.49565876 17.05230366 11.87849355 -0.00306931 0.00065659 -0.00151119
C 1.08404482 16.33051063 12.03931401 0.00950990 -0.00111907 -0.00398462
C 9.66287406 11.42895226 6.63658492 -0.00709772 0.00003413 0.00231374
C -1.24879093 14.65235604 9.63458415 -0.00123383 0.00283375 -0.00817378
C -1.45182226 9.40803358 8.84465917 -0.00026549 -0.00360797 -0.00179969
C 5.27510950 14.08910831 8.63731541 0.00525156 -0.00372980 -0.00353880
C 5.78458546 18.93251506 9.64860103 0.00446754 -0.00442143 0.00191245
C -2.63649070 15.07012974 9.23215393 0.00083230 0.00288679 -0.00788659
C -0.16847861 10.16889288 9.24604882 0.00011600 0.00219656 0.00197901
C 6.47617784 13.23506699 8.86223498 -0.00058921 0.00382736 0.00212652
C 4.52988365 17.97235263 9.48175737 -0.00086585 0.00570578 -0.00086787
C -2.88533191 13.48936699 17.24924840 0.00438416 0.00256320 -0.00549865
C -5.65403138 17.83523740 13.03168249 0.00255597 0.00483825 -0.00078099
C 0.96441017 15.50851443 13.17643300 0.00086817 0.00912236 0.00305798
C 3.73012588 10.65726242 17.23340351 -0.00058865 0.00348438 -0.00087944
C -1.67499583 13.35342220 16.57836297 0.00328802 -0.00567229 -0.00525030
C 6.30146139 18.09085809 13.83302848 0.00225408 0.00319211 -0.00876123
C -0.26897884 15.51089445 13.82352365 0.00278705 -0.00045394 -0.00538103
C -7.80439830 10.87184843 16.77651045 -0.00076070 -0.00226305 0.00116353
C -0.75599556 12.38986828 16.91971014 0.00389565 0.00518863 0.00697268
C 5.31504750 17.19590772 13.50736070 -0.00216230 0.00095788 0.00066745
C -1.24142376 16.47916930 13.58978102 0.00007899 -0.00346668 0.00837768
C -6.95624224 11.94917688 17.00763704 0.00830142 0.00031702 -0.00247746
C -0.98385163 11.54980863 18.04819734 -0.00389076 -0.00078158 -0.00594281
C 5.42628553 16.40904697 12.30409378 -0.00483798 -0.00518878 -0.00351104
C -1.03070448 17.32928546 12.49093138 -0.00000668 0.00283223 0.00230789
C -7.18379225 12.78868712 18.13750291 -0.00295591 0.00027598 -0.00276363
C 0.78821807 11.73873777 12.76791517 -0.00337531 0.01134898 0.00147507
C 3.56573235 16.37343125 17.84421476 0.00667659 -0.00062578 0.00071956
C -2.83589036 17.28760869 17.84405725 -0.00186148 0.00907781 -0.00088717
C -5.52076742 12.18869930 12.59896198 -0.00099457 0.00082037 -0.00677518
C -0.08584655 12.70233386 12.38312560 0.00215494 -0.00576975 0.00371544
C -8.06312114 17.47306199 18.43359322 0.00091989 0.00069938 -0.00108414
C -1.91650491 16.36362282 18.27346722 -0.00123379 -0.00203291 0.00257855
C 6.28630772 11.73696283 12.12974609 0.00635356 -0.00191344 0.00011248
C -4.06078709 14.86288196 15.62548518 0.00302527 -0.00521377 0.00214570
C -4.29809486 9.92571739 14.72174419 0.00105854 -0.00258877 0.00611439
C 2.18313321 14.15053422 14.74670654 0.00172725 0.00547999 -0.00557238
C 2.24784108 19.00740471 15.72423064 0.00203440 -0.00450454 0.00247074
C -5.29668081 15.70371614 15.41117722 -0.00533652 -0.00201213 -0.00107918
C -3.01679769 10.54638913 15.05295247 -0.00562966 0.00518943 -0.00464135
C 3.26774933 13.08139154 14.95712220 -0.01108583 -0.00441014 -0.00063007
C 0.88968609 18.48723027 15.63468998 -0.00780031 0.01310638 0.00521116
C -5.96654988 13.29831628 23.51677867 0.00144573 0.00405387 -0.00636673
C -8.26159002 18.22496809 19.58553928 0.00449980 0.00188848 0.00788780
C -2.20097003 15.45436986 19.38274467 -0.00037114 0.00191317 0.00578592
C 0.57675401 10.76344930 23.29920692 -0.00013198 0.00056889 -0.00041728
C -4.79043948 13.22398140 22.72435445 -0.00521422 0.00165516 -0.00124459
C 3.18028897 18.16041869 19.88242804 0.00331229 -0.00983875 -0.00298597
C -3.37479358 15.63742957 20.04723086 0.00514133 -0.00081981 0.00509314
C -10.99484048 10.64250288 22.88743665 0.00060530 0.00341582 -0.00061530
C -3.77164237 12.32193170 23.05123686 -0.00442657 0.00344341 -0.00594392
C 2.15984960 17.28809983 19.47431341 -0.00664251 -0.00372392 0.00435783
C -4.32484486 16.54977736 19.67872520 0.00812161 -0.00107376 0.00159900
C -10.01653509 11.56756185 23.31100865 -0.00800602 -0.00122919 -0.00188423
C -4.01328450 11.48027984 24.16406249 0.00100269 0.00494503 -0.00263973
C 2.29044715 16.43535795 18.41251901 0.00130298 -0.00487938 0.00324954
C -4.09878331 17.43339536 18.60395567 0.00312362 -0.00108960 0.00195014
C -10.40720093 12.38422292 24.36711104 -0.00000410 -0.00241485 -0.00456097
C -2.17589901 11.67185280 18.74500483 -0.00319461 -0.00465180 0.00466550
C 0.67783256 16.53097665 23.81821139 0.00434780 -0.00295649 0.00097281
C -5.58888588 17.43643102 23.99299278 0.00325457 0.00222887 0.00923707
C -8.28653244 12.47094750 18.87577248 -0.00598221 0.00231890 -0.00929168
C -3.13223877 12.60429593 18.27594368 0.00216052 0.00346072 -0.00551988
C -11.31709441 17.03684452 24.20105621 -0.00881227 -0.00147567 -0.00017080
C -4.66479963 16.46498938 24.23597764 -0.00545792 0.00211925 0.00738447
C 3.53653490 11.38813506 18.36517990 -0.00681003 0.00162280 0.00217539
C -7.17021905 14.66389222 21.94777444 0.00700746 -0.00145144 0.00529880
C -7.31744766 9.70869410 20.75181488 0.00545637 0.00503754 -0.00598629
C -0.76649493 14.21622471 20.96295752 -0.00483901 -0.00055618 0.00653596
C -0.34160106 19.00564361 21.90652579 -0.00234350 0.00191165 -0.00880974
C -8.15944383 15.76471683 21.85523353 -0.00086900 -0.01117226 0.00572846
C -6.13714474 10.62919827 20.88343787 -0.00390523 0.00024659 0.00048721
C 0.55064976 13.51510104 20.88469816 0.00108745 0.00122357 0.00272450
C -1.43867264 18.06682469 21.67061612 0.00404870 0.00133988 0.00019753
C 3.21277052 22.85486810 5.08380595 0.00108902 0.00133954 0.00200533
C 0.30525009 27.44461619 1.17365054 0.00388753 -0.00669902 0.00305014
C 6.97265892 25.16867571 1.12132900 -0.00555671 -0.00075234 0.00002458
C 9.83780049 20.31319860 5.19525114 0.00752531 -0.00280000 -0.00110773
C 4.40842303 22.73471791 4.44812053 0.00615803 -0.00115537 -0.00369305
C 12.61779423 27.36749139 1.80798008 0.00582340 -0.00277047 0.00044235
C 5.71895335 25.23726696 1.82148220 -0.00134736 0.00198934 -0.01411239
C 37.00572501 20.25436449 4.51788622 0.00626281 -0.00333954 -0.00317638
C 5.47785718 21.94784159 4.96274721 0.00268233 -0.00301307 -0.00046629
C 11.56580809 26.48964413 1.54324407 -0.00673657 -0.00317593 -0.00121205
C 4.76012582 26.03460653 1.27588777 0.00061182 -0.00281961 0.00101054
C -1.39930899 21.16042390 4.94232699 -0.00713185 0.00586709 0.00626392
C 5.27780109 21.14142550 6.12164006 -0.00313446 -0.00915831 0.00041197
C 11.65455254 25.68458989 0.35561809 -0.00605846 -0.00502647 -0.00586897
C 4.94194989 26.76878043 0.05259650 0.00537375 -0.00398804 -0.00280917
C -1.59603395 22.18177480 5.95114075 -0.00589439 -0.00130157 0.00425731
C 7.04613067 21.40508578 0.64393629 -0.00639360 0.00154811 0.00273165
C 9.87050178 26.11281490 5.69683406 -0.00008487 0.00245831 0.00732146
C 3.08834825 26.65798794 5.50424680 -0.00319738 -0.00012924 0.00048290
C 0.43736079 21.68823621 0.56403395 0.00148141 -0.00184194 -0.00093605
C 6.04220594 22.21443940 0.13740254 0.00459299 0.00315843 0.00768508
C -2.40972146 26.64816510 6.00577171 -0.00479517 -0.00313869 -0.00037166
C 4.11025249 25.83556781 5.94885792 0.00227046 -0.00279607 -0.00401263
C 12.68572266 21.08150785 0.28885708 -0.00911728 0.00596879 0.00072868
C 1.82376805 24.22431031 3.57342718 -0.00067732 -0.00024929 -0.00903418
C 1.81746657 19.19297074 2.58919824 0.00870213 0.00101900 0.00320244
C 8.23829146 23.93038896 2.76039810 -0.00082431 0.00059270 -0.00027321
C 7.96778372 28.63065583 3.73144753 -0.00021597 0.00450420 0.00007701
C 0.57136348 25.05220068 3.40940499 -0.00270760 0.00013131 -0.00075950
C 2.93004936 20.13934469 2.72637207 -0.00512122 0.00357277 0.00135075
C 9.49120345 23.13042514 2.78946167 -0.00060046 -0.00227902 0.00188093
C 6.67504948 27.95192188 3.54424300 0.01251403 -0.00113396 -0.00354500
C 0.21645717 22.89776028 11.16080452 -0.00748055 -0.00922671 0.00991205
C -2.64679318 27.45185963 7.12718049 -0.00399425 0.00193084 0.00527008
C 3.96605995 25.05683616 7.12769444 -0.00456962 0.00242413 0.00223418
C 6.86551576 20.31148263 11.33130219 -0.00286183 -0.00325691 0.00637866
C 1.49011619 22.85189190 10.44051489 -0.00182218 0.01211608 -0.00129700
C 9.43937625 27.69540119 7.95222493 0.01448961 -0.00473154 0.00214348
C 2.78513647 25.24492821 7.90703751 -0.00342129 0.00193467 -0.00539055
C 34.08189024 20.03214115 10.55357968 -0.00033738 -0.00141423 -0.00146187
C 2.39496763 21.94875716 10.88946830 0.00495216 -0.00558618 -0.00110657
C 8.49036698 26.74875278 7.62683794 -0.00106591 0.00415306 -0.00029478
C 1.81690218 26.12481153 7.49671060 0.00769719 -0.00639771 0.00265850
C -4.30449380 20.95380615 10.88812781 -0.00125196 0.00087512 -0.00327638
C 2.14524289 21.11034290 11.96746369 0.00254215 0.00030268 0.00017512
C 8.65472772 26.03075773 6.41160357 -0.00722761 -0.00752349 0.00055845
C 1.95044311 26.84565680 6.26676381 0.00046413 -0.00063663 -0.00238242
C -4.51471605 21.95838635 11.80258762 0.00877403 0.00002897 -0.00368925
C 3.97109563 21.13563312 6.68533316 -0.00239841 0.00346416 -0.00054923
C 6.50101433 26.03027307 11.57437039 0.00872063 0.00409673 0.00291326
C -0.23939909 26.69175873 11.53921158 -0.00626732 -0.01128261 -0.00328914
C -2.82539742 22.08978529 6.70146824 -0.00508565 -0.00398345 -0.00231835
C 2.96846319 21.95378875 6.19839016 0.00155918 0.00306230 -0.00271241
C -5.57027315 26.77424176 11.97604858 0.00481918 0.00287477 0.00169017
C 0.78501421 25.92216278 11.99649167 -0.00549814 0.00163406 -0.00534433
C 9.65634056 21.08811246 6.33912659 -0.00805869 -0.00093000 0.00207426
C -1.07209394 24.17051441 9.53866470 0.00285759 -0.00292652 0.00308456
C -1.71784840 19.11608101 8.68440121 -0.00594759 0.00426378 -0.00289772
C 5.19508571 23.58051602 8.66905200 0.00467338 0.00077627 -0.00849324
C 5.41507327 28.46394744 9.60891537 -0.00472071 -0.00311894 0.00184712
C -2.44313625 24.63681282 9.37598322 0.00327641 0.00386075 -0.00496609
C -0.70277824 20.15300608 8.90553043 -0.00082591 -0.00245560 -0.00022301
C 6.28991146 22.63485449 8.82890713 -0.00041418 0.00242542 0.00527070
C 4.19716009 27.68149393 9.38785617 0.00775003 -0.00067247 0.00138751
C -2.77992507 22.99043210 17.34338247 -0.00153943 0.00069905 -0.00362942
C -5.71365874 27.46892945 13.20720392 -0.00400912 0.00101850 0.00517349
C 0.65166819 25.22727340 13.23688154 0.00316794 -0.00148412 -0.00924357
C 3.59323180 20.34179297 17.26222922 -0.00748213 -0.00348281 0.00041784
C -1.54120429 22.83833062 16.73323317 -0.00242041 0.00713626 -0.00666733
C 6.21499112 27.80702588 13.68477392 0.00417629 -0.00380695 -0.00002339
C -0.57347569 25.37345484 13.96768188 -0.00748684 -0.00199831 0.00344745
C -7.85663901 20.36422212 16.70678268 -0.00798406 0.00402827 -0.00682972
C -0.51933867 21.97498105 17.16320808 0.00317461 0.00045196 -0.00031284
C 5.16652243 26.88335542 13.40967633 -0.00114837 0.00220618 0.00293980
C -1.61724946 25.97851136 13.42429738 0.00091427 0.00474944 0.00235556
C -6.90620994 21.25202472 17.13272664 0.00330839 -0.00151981 0.00113486
C -0.80009352 21.13902286 18.26025494 -0.00000722 -0.00156599 0.00002484
C 5.29938316 26.02745153 12.32437116 -0.00037282 0.00422890 -0.00435682
C -1.50617026 26.66581998 12.17674244 -0.00257310 -0.00152210 0.00221030
C -7.17379727 22.17326025 18.15312540 0.00463093 -0.00448696 -0.01033203
C 0.98920617 21.25580971 12.75829035 -0.00146161 0.00387459 0.01054664
C 3.77054088 26.06010899 17.86678038 0.00160393 0.00496037 0.00592109
C -2.66689179 26.93609843 17.85939413 0.00036807 0.00424450 -0.00433518
C -5.74149902 21.90414146 12.48622519 -0.01241389 -0.00626133 0.00149326
C 0.03356322 22.07106901 12.23416651 -0.00307200 -0.00355171 -0.00289564
C -8.20104407 26.79698095 18.17346355 0.00681059 0.00568258 -0.00040994
C -1.66037998 26.02745459 18.25097116 -0.00747379 0.00114333 -0.00542249
C 6.52654237 21.20596661 12.33509151 -0.00632705 0.00615844 0.00316833
C -4.12363832 24.16157501 15.71189315 0.00269258 -0.00231990 -0.00611233
C -4.61263722 19.30148316 14.60547663 -0.00567816 0.00200166 0.00504091
C 1.95096084 23.90787555 14.72678509 0.00096956 0.00253036 0.00003948
C 2.23751189 28.60656658 15.69878967 0.00214185 -0.00754601 -0.00443625
C -5.38636111 24.98826863 15.49906260 0.00299015 0.00172127 -0.00475563
C -3.48780825 20.25418407 14.77530977 0.00761284 -0.00099334 0.00401986
C 3.11874531 22.95874866 14.80589090 -0.00050334 -0.00121474 0.00953538
C 1.21805899 27.54183396 15.56419802 -0.00531597 -0.00556919 -0.00719292
C -5.71475289 23.03534816 23.36237901 0.00022166 -0.00800285 -0.00538736
C -8.38638842 27.61715459 19.29071285 -0.00445884 0.00243387 -0.00792447
C -1.81955615 25.12092023 19.32867095 -0.00135411 -0.00006978 -0.00206046
C 0.82526933 20.32127879 23.48626261 0.00192215 0.00408963 -0.00049484
C -4.43185697 23.08643213 22.84466550 -0.00179263 -0.00007279 0.00026291
C 3.22728579 27.83617339 19.84623579 0.00325935 -0.00025883 -0.00504713
C -3.04784703 25.17382650 19.98026357 -0.00204674 -0.00019176 0.00005285
C 28.15693071 20.20366889 22.67300710 -0.00008526 -0.00041489 -0.00751323
C -3.47674607 22.24272192 23.35642596 0.00790553 -0.00158670 -0.00399110
C 2.26225909 26.87481228 19.50741752 -0.00291495 0.00363347 0.00124409
C -3.98772588 26.14740344 19.75235945 -0.00723256 -0.00318025 0.00326123
C -10.21679943 21.00068354 23.16124172 0.00479021 -0.00341943 -0.00380574
C 8.32193482 21.39349816 0.10086143 0.00646277 -0.00441834 0.00187468
C 2.49542410 26.07281843 18.41319636 0.00277801 0.00549810 0.00092031
C -3.82118778 27.01117432 18.63215473 -0.00436544 0.00406836 -0.00527733
C -10.33988038 21.76123511 24.32152226 0.00443824 0.00191345 -0.00052536
C -2.06375329 21.25581612 18.88409073 0.00304684 -0.00468487 0.00058895
C 0.58531951 26.01796085 23.83314920 0.00098638 0.00760962 -0.00082465
C -5.84656363 26.75637346 23.83642295 0.00323091 0.00269380 -0.00217306
C -8.33837625 21.96984233 18.88570071 0.00284332 -0.00223844 0.00165561
C -2.99691738 22.12866246 18.42442934 0.00417569 -0.00612243 0.00368226
C 0.50059653 26.63715079 0.01491580 0.00717471 0.00483186 -0.00139622
C -4.86346493 25.95979993 24.37940693 -0.00371109 -0.00413723 -0.01026990
C 3.41176886 21.19768141 18.35263959 0.00056921 -0.00236899 0.00416948
C -6.96502189 24.32627338 21.81956628 -0.00400889 -0.00072268 0.01156651
C -7.13256759 19.63087782 21.16251899 -0.00139821 -0.00958225 0.00314033
C -0.46001189 23.85602431 20.85882851 0.00704495 -0.00396776 -0.00441626
C -0.62885446 28.58814634 21.81013060 0.00527023 -0.00591702 -0.00638385
C -8.04824587 25.30913681 21.60128213 0.00345587 0.00184168 -0.00064318
C -6.09519296 20.69036412 21.31760927 0.00016226 0.00324753 0.00545969
C 0.90841768 23.15383582 20.89017464 -0.00518792 0.00346663 0.00793264
C -1.66894633 27.54300248 21.66198997 -0.00423798 -0.00111837 0.00328491
C 16.18681391 3.62708332 5.13433576 0.00252659 -0.00292039 0.00075547
C 13.45356821 8.57990019 0.94911145 -0.00193201 -0.00305747 0.00389258
C 19.93486882 5.94627592 1.00758981 0.00056521 0.00176826 0.00022847
C 22.69400371 1.00469518 4.99803066 0.00076239 0.00158123 0.00302724
C 17.29372245 3.37890535 4.35438000 0.00129603 0.00328506 -0.00210054
C 25.28785637 8.44639021 1.50467226 -0.00504189 -0.00175305 0.00051691
C 18.73025478 6.14779733 1.68565526 -0.00062369 -0.00356831 -0.00483031
C 10.52702654 1.24926945 4.62452914 -0.00012457 -0.00173548 0.00162079
C 18.33579412 2.58953172 4.84103281 0.00140978 0.00184355 0.00588661
C 24.18609873 7.60266026 1.11316333 -0.00550364 0.00719205 -0.00027920
C 17.79274833 7.05157707 1.25265460 0.00435541 -0.00428797 0.00164035
C 11.47179652 2.19189346 5.04287302 0.00125271 -0.00731802 -0.00395812
C 18.14734273 1.77361721 6.00114884 -0.00539186 0.00079494 -0.00331324
C 24.37713079 6.76963092 0.06802564 -0.00076440 0.00605070 -0.00454031
C 18.02055361 7.80769178 0.05911825 0.00300081 0.00380762 0.00033340
C 11.27290349 3.09655706 6.08033195 0.00147621 0.00045399 -0.00544455
C 19.87224089 1.89584366 0.50739448 0.00424463 -0.00614156 0.00629861
C 22.92486556 6.89327554 5.51282661 -0.00109620 -0.00122161 0.00292239
C 16.51571390 7.70209161 5.65129049 0.00931999 -0.00766752 0.00098769
C 13.40109507 2.57968839 0.88142622 -0.00547591 -0.00188722 -0.00490829
C 18.96542122 2.87793560 0.17788936 -0.00448580 -0.01153913 0.00032641
C 10.77336718 7.76687069 6.01405788 -0.00242190 -0.00402762 0.00090687
C 17.41805363 6.68004840 5.99109822 0.00355054 0.00636066 -0.00407785
C 25.66806928 1.99177517 0.09058140 0.00010422 0.00432087 0.00707242
C 14.98442475 5.14397866 3.66985386 0.00677516 0.00153465 -0.00890754
C 14.93572648 0.27294078 2.40220493 -0.00420570 0.00622050 -0.00134429
C 20.99830876 4.48070151 2.66049394 -0.00253293 0.00347303 -0.00229894
C 21.69549403 9.21900862 3.54177392 -0.00569509 0.01039736 -0.00964965
C 13.81367535 6.06015063 3.56277372 0.00341893 0.00249723 -0.00213699
C 16.17911908 1.15968401 2.50979291 0.00067595 -0.00728703 -0.00236935
C 21.97972168 3.36192739 2.69484001 0.00785877 0.00722045 -0.00172247