2880
Time=18999.99999999 pbc="T T T" Lattice="39.28340692 0.00000000 0.00000000 0.00000000 28.93968632 0.00000000 -12.01669645 0.00000000 24.35586659" energy=-18399.17238384 virial="26.24225466 4.34012796 -44.58747660 4.34012796 7.64582103 -10.34163669 -44.58747660 -10.34163669 -18.52497590" stress="0.00349195 0.00026704 -0.00161653 0.00026704 0.00274081 -0.00038253 -0.00161653 -0.00038253 0.00188790" Properties=species:S:1:pos:R:3:vel:R:3
C 3.27327779 3.86307138 4.96213065 0.00010306 0.00267548 -0.00721183
C 0.37056568 8.57360956 1.09596836 0.00139288 0.00536529 -0.00284775
C 6.90229721 5.89592785 0.95248750 0.00132516 0.00300510 -0.00151286
C 9.82452184 1.15441866 5.09447126 0.00353155 -0.00447993 0.00285445
C 4.53574629 3.71803602 4.32482463 0.00102066 0.00300477 -0.00431882
C 12.29757541 8.27502467 1.74621773 -0.00590338 0.00100636 -0.00821985
C 5.68457515 6.01579452 1.65599415 -0.00193004 0.00707587 0.00290501
C 37.06416309 1.20614303 4.46246246 0.00365075 -0.00389051 0.00289200
C 5.34225150 2.75412487 4.73108225 -0.00017847 -0.00636419 -0.00277890
C 11.41319790 7.30857840 1.27708298 0.00497262 -0.00602479 -0.00368026
C 4.77876149 7.00188545 1.31881357 0.00382190 -0.00464182 -0.00227379
C -1.17945149 1.98185102 4.85128639 -0.00046004 0.00270650 0.00195469
C 4.98376070 1.83890797 5.77386421 -0.00261813 -0.00501863 0.01019159
C 11.64043445 6.65751851 0.07191338 -0.00099704 0.00263535 -0.00171747
C 5.04639933 7.76417710 0.12752787 -0.00242116 -0.00059144 0.00016545
C -1.27772369 2.81269522 5.98844449 0.00214637 0.00058572 0.00127432
C 7.15363690 1.89983601 0.51870614 -0.00070294 -0.00229399 0.00168446
C 9.70058365 6.77846264 5.44824877 -0.00088383 -0.00589240 -0.00352029
C 3.03513481 7.70966831 5.58627656 -0.00272732 -0.00078631 0.00200338
C 0.45016694 2.66187396 0.63492168 -0.00723919 0.00801766 -0.00704252
C 6.06895427 2.67367579 0.10898697 0.00081082 -0.00032301 -0.00112685
C -2.23182404 7.91737243 6.02565324 0.00792395 0.00234964 0.00225458
C 4.11624013 6.91499539 5.94886062 -0.00289843 -0.00179670 0.00030012
C 12.59570221 1.85025539 0.06676267 -0.00371603 -0.00591035 -0.00154837
C 2.06818956 5.13915684 3.33045900 -0.00235534 -0.00234894 -0.01017740
C 1.99102764 0.27255166 2.57011790 0.00951865 -0.00371186 -0.00418655
C 8.14141293 4.42563698 2.50508769 0.00709148 -0.01168961 0.00583007
C 8.68185426 9.26223736 3.43799037 -0.00073359 0.00548613 0.00078062
C 0.78678184 5.79069608 3.01359532 -0.00087531 -0.00375652 -0.00053324
C 3.22493127 1.15796094 2.82679029 -0.00228794 0.00166832 -0.00140482
C 9.40151496 3.59221126 2.59120844 -0.00481159 0.00053316 0.00144690
C 7.41460893 8.46247811 3.26457103 -0.00054813 -0.00274822 -0.00623096
C 0.16450635 3.65650511 11.12680013 0.00084897 -0.00162091 -0.00108107
C -2.50634821 8.77016379 7.11643906 -0.00125834 -0.00202957 0.00352048
C 3.97734230 6.00351372 7.03430770 -0.00869936 -0.00922929 0.00453691
C 6.49491775 0.93491423 11.01645986 0.00563721 -0.00339208 -0.00210634
C 1.33761636 3.52913666 10.38847478 -0.00539131 -0.00526303 0.00336191
C 9.23553087 8.41485735 7.65288240 -0.00614247 -0.00277810 -0.00859243
C 2.74646481 5.98884582 7.73686607 0.00557619 0.00121749 -0.00251630
C 34.07388816 1.24819121 10.54342165 -0.00294557 -0.00166453 -0.01575530
C 2.33783686 2.62345185 10.85226900 -0.00276265 0.00539287 0.00736889
C 8.26509933 7.60619266 7.20144410 0.01020457 0.00148481 0.00096329
C 1.76528812 6.98528131 7.46426839 -0.00097627 -0.00562316 -0.00177197
C -4.21460129 2.10118734 10.90671776 0.00288853 -0.00766204 0.00304588
C 2.14629239 1.85821141 11.99341041 -0.00532999 -0.01052290 0.00229256
C 8.41998235 6.81275309 6.11327203 0.00230387 0.00347038 -0.00594911
C 1.93785977 7.81868091 6.43095442 -0.00499019 0.00508688 -0.00117276
C -4.44038299 2.92585047 12.03586993 -0.00525149 -0.00152705 -0.00518323
C 3.86895760 2.14439873 6.57314231 -0.00411489 0.00206295 0.00604345
C 6.62240610 6.99203096 11.45737739 -0.00313952 0.00081243 -0.00170304
C 0.31741213 7.67326171 11.62207080 -0.00675960 -0.00019906 -0.00254111
C -2.48076713 2.73201440 6.72682936 0.00873757 0.00065994 0.00238131
C 2.97953845 3.05631955 6.01954236 0.00449190 -0.00086779 0.00041515
C -5.46895579 7.77225324 11.98832811 0.00113387 -0.00196497 -0.01137381
C 1.28614544 6.74248923 11.98760866 -0.00257211 -0.00198731 -0.00257173
C 9.59538679 1.99157792 6.20027913 0.00301891 0.00065343 -0.00175823
C -1.05691375 5.01687401 9.55123565 0.00193862 0.00295784 -0.00349132
C -1.51411717 0.31100874 8.56284969 0.00535512 0.00787818 0.00112176
C 5.16009625 4.39457914 8.37186893 0.00199994 0.00411589 -0.00455545
C 5.54542841 9.38845970 9.39389542 0.00292845 -0.00084778 0.00186826
C -2.32326121 5.77701504 9.31886049 0.00227124 -0.00084382 -0.00215316
C -0.29811795 1.18838719 8.68371813 0.00304544 -0.00190575 -0.00123200
C 6.37508214 3.56230624 8.30728631 -0.00846814 -0.00258630 -0.00129057
C 4.39002024 8.50042614 9.00941645 0.00234783 -0.00251868 -0.00036700
C -2.83267005 3.53334600 17.32444205 -0.00341889 0.00209112 0.00249119
C -5.66750824 8.54756256 13.18330593 -0.00215262 0.00159698 -0.00151087
C 1.06221287 5.88035705 13.05881455 -0.00229200 0.00054598 0.00222851
C 3.62315286 0.84873259 17.38149282 0.00417272 -0.00358059 -0.00108433
C -1.56027110 3.53493007 16.57199510 0.00335795 -0.00169642 -0.00925545
C 6.20619600 8.31863524 13.79865334 -0.01030831 0.00131824 0.00255158
C -0.14811968 5.98480096 13.77805760 0.00241844 -0.00091222 0.00185792
C 30.91285510 0.92445918 16.56018925 0.00504130 0.00444206 -0.00000441
C -0.62538003 2.65955809 16.95721663 0.00050142 0.00260940 0.00205250
C 5.20632257 7.58279537 13.27527146 -0.00466396 -0.00619211 -0.00131270
C -1.09584760 6.97669743 13.41442085 0.00038284 0.00203092 -0.00440900
C -7.38552372 1.82094234 16.97230797 -0.00208490 -0.00420229 -0.00314573
C -0.74000016 1.88298982 18.15565561 0.00087211 -0.00256857 -0.00377324
C 5.37305158 6.81122727 12.07368784 0.00647689 0.00178732 -0.00109782
C -0.87052022 7.82428746 12.33219669 0.00494399 -0.00515378 -0.00000542
C -7.61804759 2.71396940 18.06517650 -0.00116219 0.00201179 -0.00547551
C 0.92600016 2.00072809 12.67563841 0.00205027 -0.00640546 -0.00238189
C 3.42963660 6.83190555 17.52158758 0.00174703 -0.00122225 0.00297937
C -2.94166105 7.32771723 17.55077793 -0.00104122 -0.00207544 -0.00463865
C -5.70331330 2.81778457 12.70780263 -0.00197596 -0.00585137 -0.00906371
C -0.00182621 2.90925962 12.26720646 0.00067548 0.00803034 -0.00807362
C -8.30579300 7.76783728 18.13744473 0.00165056 0.00402414 0.00030219
C -1.92832796 6.48129494 17.92318005 0.00418034 0.00018019 0.00329930
C 6.26582503 1.74640368 12.10713406 -0.00500217 -0.00106167 0.00097484
C -4.03204501 4.98270569 15.83789961 -0.00233470 -0.00033810 -0.01117303
C -4.42502179 0.34036991 14.69742388 -0.00055114 0.00711677 -0.00264387
C 2.26123651 4.33701306 14.49678441 -0.00690380 0.00188970 0.00617497
C 2.48471934 9.50035071 15.62369084 -0.00084631 0.00241985 0.00107446
C -5.23483876 5.90707122 15.76158141 -0.00306782 -0.00601899 0.00038732
C -3.28845565 1.23608639 14.94980400 0.00083272 -0.00069023 -0.00107330
C 3.49763554 3.44614815 14.63239417 0.00203175 0.00653646 0.00816868
C 1.29130770 8.59254972 15.52853740 -0.00643416 0.00422674 -0.00903083
C -5.74723849 3.54268193 23.38281662 0.00540475 -0.00366045 0.00211309
C -8.61106953 8.61182868 19.20568464 -0.00476976 -0.00670873 -0.00495369
C -2.02821875 5.73090117 19.11927238 -0.00189300 0.00757818 0.00457037
C 0.79807998 1.01518575 23.26509326 0.00007230 0.00165400 -0.00199753
C -4.46154111 3.54061290 22.66583917 -0.00194608 -0.00485903 0.00289737
C 3.06984872 8.21389284 19.91728539 -0.00347571 -0.00295294 -0.00050864
C -3.22364576 5.75462409 19.82257806 -0.00015135 0.00233353 0.00427430
C -11.13162471 1.06507481 22.77772406 0.00207374 -0.00307814 0.00462025
C -3.50338024 2.66357856 23.08245219 -0.00137764 -0.00260106 0.00268453
C 2.03970576 7.47508209 19.40545417 0.00063404 -0.00316711 -0.00480496
C -4.23904375 6.61848615 19.47376406 -0.00097822 -0.00640495 0.00040011
C -10.21006303 2.01598762 23.12045788 0.00099179 -0.00500733 -0.00109725
C -3.60381239 1.90584852 24.24183613 -0.00488378 0.00108212 -0.00283351
C 2.27932391 6.69167619 18.24845432 0.00408004 -0.00430305 0.00053178
C -4.09244672 7.50161861 18.33688230 0.00366012 0.00289091 0.00146128
C -10.38534748 2.81551133 24.25166569 -0.00531076 0.00158951 0.00089547
C -1.99724000 1.75354479 18.71664598 0.00763471 0.00671240 0.00988097
C 0.83798690 6.87150610 23.75144576 0.00593043 -0.00556477 -0.00279950
C -5.76348426 7.60188634 23.70164609 0.00050778 0.01033341 0.00642754
C -8.84725169 2.59158460 18.76204611 -0.00345096 0.00042512 -0.00651405
C -2.98020803 2.63663485 18.34235343 0.00240699 0.00224691 -0.00163438
C 0.48716538 7.76929080 0.00049524 -0.00011874 0.00178663 0.00050792
C -4.82121649 6.75315424 24.19297708 -0.00075297 -0.00390512 -0.00305264
C 3.41630681 1.88205555 18.32235105 0.00665883 -0.00295897 -0.00392631
C -6.88952297 4.98166932 21.74199474 0.00358846 -0.00176601 -0.00164340
C -7.26499682 0.16524227 20.59102579 0.00036367 0.00193046 0.00395900
C -0.81833202 4.41373724 20.75753266 -0.00068044 0.00324987 0.00191352
C -0.58496311 9.18751504 21.73938600 0.00680000 0.00099519 0.00115442
C -7.90469086 6.05710700 21.56649050 0.00104256 0.00363604 0.00231443
C -5.93161703 0.83175978 20.73405228 -0.00320323 0.00190623 0.00224796
C 0.43145661 3.65170974 21.03061511 0.00443174 0.00029383 -0.00467957
C -1.76509846 8.22473834 21.54419791 0.00286235 -0.00303469 0.00653608
C 3.10779252 13.53313468 5.18528805 -0.00200154 -0.00678201 0.00072369
C 0.32850766 18.44696087 1.12543481 0.00352680 0.00063201 0.00244178
C 7.01134371 15.71009204 0.97961695 0.00441791 0.00349252 -0.00536234
C 9.78495548 10.69921992 4.99951442 -0.00261120 -0.00357466 -0.00243451
C 4.35512707 13.51062873 4.55062520 0.00208024 -0.00127858 -0.00521988
C 12.25675346 18.27596932 1.56376440 0.00426352 -0.00287882 0.00667300
C 5.81100838 15.71550738 1.70927392 0.00772924 -0.00528736 0.00312176
C -2.21157499 10.82357005 4.66470990 0.00739261 0.00779467 0.00204248
C 5.32529938 12.56404575 4.83639501 0.00262321 -0.00148346 -0.00343351
C 11.30044314 17.34069087 1.19464846 -0.00389308 -0.00413317 -0.00615597
C 4.79725486 16.57064528 1.41423336 -0.00398008 -0.00560924 -0.00168771
C -1.18727066 11.70504532 5.04865783 0.00342515 0.00250992 0.00161335
C 5.10859478 11.63543736 5.85983671 -0.00033851 0.00600825 0.00008958
C 11.53724112 16.53919855 0.13164464 0.00494270 -0.00310670 0.00496843
C 4.92245632 17.46010283 0.32321569 0.00367650 -0.00063618 -0.00820017
C -1.35666096 12.65694988 6.10463709 0.00082764 -0.00311703 -0.01107181
C 6.83570624 11.78650004 0.72791274 -0.00231814 0.00127789 0.00061101
C 9.69496430 16.43568390 5.38415966 -0.01216408 -0.00797415 -0.00228521
C 3.18610089 17.34487125 5.67225229 -0.00080693 -0.00132735 0.00027633
C 0.23711491 12.56180848 0.54789192 -0.00172326 0.00123607 -0.00470373
C 5.84132070 12.64380908 0.24689928 0.00181953 0.00412393 0.00204712
C -2.49822140 17.36090748 5.88251199 0.00199659 -0.00203468 0.00163251
C 4.19670829 16.47599298 6.13285814 -0.00306884 -0.01245550 0.00131282
C 12.41519497 11.43102548 0.08077802 -0.00176611 0.00589730 -0.00566464
C 1.78954037 14.82937709 3.62186947 -0.00091891 -0.00479175 0.00561802
C 1.71832091 9.90986825 2.55049791 -0.00460809 -0.00297649 0.00132109
C 8.12199501 14.08748962 2.39227893 0.00192207 0.00279865 0.00023763
C 8.50324430 19.02040148 3.52556634 0.00045592 0.00350808 0.00211308
C 0.73071152 15.86040319 3.57064922 0.00198937 0.00218688 -0.00257195
C 2.80483469 11.07851495 2.54783018 0.00462890 0.00168315 0.00437144
C 9.31548220 13.15617282 2.51439401 -0.00629340 -0.00670456 0.00134608
C 7.34995485 18.09432957 3.23792130 -0.00041310 -0.00317119 0.00295091
C 0.20895786 13.61455877 11.22599716 -0.00281467 0.00215211 -0.00514871
C -2.68246755 18.15287543 7.06252276 -0.00142664 0.00474510 0.00064344
C 3.92621589 15.60285857 7.12937298 -0.00040247 0.00248485 0.00116955
C 6.69778481 10.72285491 11.13222030 -0.00156387 0.00331398 -0.00107099
C 1.47751810 13.57494734 10.66646007 -0.00473285 0.00414706 -0.00258508
C 9.51367688 18.01624639 7.69300624 0.00363510 0.00155866 -0.00240243
C 2.71656112 15.69210592 7.84791779 0.01563660 -0.00360829 -0.00210009
C 33.99250141 10.84495097 10.51180492 -0.00304482 0.00316540 -0.00043007
C 2.42338891 12.62508013 10.96099927 -0.00452530 -0.00652453 -0.00557038
C 8.40603795 17.26981088 7.33538820 -0.00301641 -0.00156720 -0.00650871
C 1.82404958 16.73339392 7.58066165 0.00340876 -0.00715144 -0.00579331
C -4.30439949 11.76545854 10.88341012 0.00027447 -0.00705537 0.00650399
C 2.08027908 11.63859908 11.86551062 0.00443466 0.00237114 0.00205365
C 8.55469695 16.34367524 6.20916835 -0.00184600 -0.00361282 0.00283226
C 2.03444031 17.53602075 6.42645964 -0.00555547 0.00553628 0.00411106
C -4.36679721 12.45752701 12.06289291 0.00451544 -0.00703070 -0.00036929
C 3.89917026 11.73247832 6.55418790 0.00141106 -0.00206773 -0.00061669
C 6.88208610 16.55403707 11.67639089 0.00000297 -0.00693112 0.00045809
C 0.16877295 17.49870785 11.74984657 0.00463472 -0.00296238 -0.00467385
C -2.66574123 12.68283765 6.77560457 -0.00275381 -0.00452935 -0.00433704
C 2.91336815 12.63492029 6.29754749 -0.00660640 0.00593672 0.00333904
C -5.33879658 17.37979750 12.12827442 -0.00159213 0.00235735 0.00261919
C 1.19819403 16.69314507 12.19122012 0.00256324 0.00901996 0.00189455
C 9.57846841 11.61673262 6.08505374 0.00613837 0.00227823 0.00170250
C -1.11807970 14.82705355 9.60322395 0.00458070 0.00269287 -0.00445337
C -1.48486587 10.25182889 8.69455995 0.00845076 -0.00314794 0.00338316
C 5.13339258 14.13321515 8.70194528 -0.00369856 -0.00073511 -0.00134283
C 5.55290763 18.88965650 9.72646880 -0.00497452 -0.00130950 -0.00193823
C -2.40452711 15.52770032 9.44086053 -0.00258327 0.00750677 -0.00255083
C -0.33783783 11.13272720 9.07439015 -0.00395522 -0.00269254 0.00648851
C 6.38928704 13.31893740 8.70792177 -0.00278374 0.00003176 -0.00202013
C 4.42524649 18.05033021 9.29204129 -0.00444450 0.00344684 -0.00111552
C -2.93362808 13.44733907 17.34453216 0.00103591 -0.00088598 0.00317427
C -5.66354961 18.26748396 13.17824094 -0.00262856 -0.00091878 0.00246576
C 0.95120508 15.79738335 13.21188593 -0.00017788 -0.00427579 -0.00443940
C 3.78356934 10.80224021 17.34151214 -0.00117737 0.00054154 -0.00382520
C -1.75176326 13.40530599 16.60438357 0.00178010 0.00541263 -0.00203814
C 6.38742793 18.28917200 13.82713280 -0.00157269 -0.00303096 0.00126432
C -0.27377117 15.89966609 13.90929452 0.00177387 0.00094547 0.00283353
C 31.12570405 10.98291817 16.42602219 0.00358612 -0.00061805 0.00702340
C -0.74926384 12.57468653 17.02146367 0.00083386 -0.00559875 0.00157430
C 5.35901481 17.39922854 13.36239666 -0.00241488 -0.00413454 0.00282061
C -1.24377546 16.79238883 13.50476099 -0.00364882 0.00123023 -0.00302865
C -7.28009843 11.94685702 16.88771464 0.00215199 -0.00494214 -0.00124542
C -0.88540165 11.68805360 18.11224436 0.00117937 0.00700321 -0.00686027
C 5.63183156 16.46955548 12.36748046 0.00686058 0.00035152 0.00411200
C -1.07598479 17.56042102 12.37663187 0.00392509 0.00080078 0.00039106
C -7.59064425 12.74837910 18.00310858 0.00219739 0.00044962 -0.00669448
C 0.82204886 11.75834825 12.51778109 -0.00170217 -0.00111532 -0.00086727
C 3.63723517 16.60560161 17.43077088 0.00217880 -0.00680916 0.00415688
C -3.00891587 17.30355258 17.88617235 -0.00242133 -0.00431473 -0.00811952
C -5.58979978 12.34875754 12.79685170 -0.00245057 -0.00588211 0.00478900
C -0.14235465 12.70009604 12.21698754 -0.00532419 0.00424572 0.00056768
C -8.45384346 17.51752984 18.32032218 -0.00547995 -0.00345554 0.00661703
C -1.90822201 16.59569425 18.29023544 0.00621435 0.00184248 0.00400606
C 6.51801136 11.58446214 12.20913705 0.00353099 0.00159568 0.00070071
C -4.24785703 14.96672151 15.77619256 -0.00616212 -0.00100536 -0.00415835
C -4.43831229 9.89215844 14.73098183 0.00687844 0.00249058 -0.00381910
C 2.09621451 14.25519749 14.73511351 0.01268688 0.00040226 -0.00035303
C 2.36253962 19.14640781 15.73587945 -0.00692642 -0.00242074 0.00452983
C -5.51328724 15.76625097 15.64236196 -0.00528413 -0.00855195 0.00067250
C -3.19107561 10.65420812 14.89319905 -0.00088173 0.00503853 0.00334140
C 3.32637684 13.38570030 14.89894527 0.00108968 -0.00364873 0.00948570
C 1.09060053 18.40516946 15.49851856 -0.00359867 -0.00162096 0.00596911
C -5.94002150 13.53507422 23.49677323 -0.00738018 0.00400990 -0.00468987
C -8.58835893 18.23854609 19.50608355 -0.00291765 -0.00526658 0.00069565
C -2.06706927 15.66357356 19.35556526 -0.00393481 0.00318085 0.00357772
C 0.59415842 10.58744979 23.33120973 -0.00390719 0.00651108 0.00127813
C -4.71915678 13.33986222 22.79628756 0.00053019 -0.00507177 -0.00315521
C 3.30795107 18.03273241 19.78084196 0.00074567 0.00410893 0.00699582
C -3.25163985 15.58409455 20.09431404 0.00294218 0.00561148 0.00027585
C 27.99361582 11.04314731 22.63680598 0.00113025 -0.00144046 0.00686161
C -3.76705252 12.47915625 23.29793372 0.00602216 -0.00621573 0.00788109
C 2.26756627 17.31422436 19.37078003 -0.00070988 0.00522632 -0.00374765
C -4.34306637 16.34782099 19.65620433 0.00044997 -0.00185316 -0.00035266
C -10.30018262 11.88744765 23.08440345 0.00504890 0.01457867 -0.00174084
C 8.04791551 11.62250615 0.02516732 -0.00119549 0.00062338 -0.00107789
C 2.37612548 16.59146771 18.16964663 -0.00056101 -0.00665265 -0.00245163
C -4.22755913 17.26997069 18.54361292 0.00326066 0.00195103 -0.00304289
C -10.47054808 12.57198752 24.32025670 0.00158407 -0.00608352 0.00087182
C -2.10013867 11.80323970 18.80825166 0.00079005 -0.00326472 -0.00281227
C 0.69422675 16.69407210 23.71210168 -0.01180885 -0.00096702 -0.00421797
C -5.93072018 17.40435495 23.88217567 0.00998686 0.00256756 -0.01128727
C -8.79677919 12.49145045 18.68028371 0.00106527 0.00102850 0.00279055
C -3.12395348 12.64572847 18.44563398 0.00889292 0.00427634 0.00162327
C 0.56620821 17.48516748 0.09948031 0.00334772 0.00125404 -0.00044132
C -4.85167217 16.60876535 24.29825020 0.00316802 0.00439035 -0.00333344
C 3.50291682 11.57019782 18.48062318 0.00303778 0.00504893 0.00145897
C -7.23175033 14.72515268 21.85097852 -0.00070087 -0.00603013 0.00577457
C -7.54596872 10.06591682 20.75250884 0.00465568 0.00498678 0.00260668
C -0.81986881 14.18851150 20.73580332 0.00209763 0.00440707 0.00598919
C -0.51245908 19.04635162 21.77795836 -0.00528189 0.00458236 0.00126238
C -8.43557836 15.68740170 21.66636171 0.00306904 0.00771307 0.00264748
C -6.17100460 10.77550665 21.10107517 -0.00164469 0.00157018 -0.01008010
C 0.45257258 13.37834218 20.85446896 -0.00797589 -0.00210536 0.00184212
C -1.73855649 18.25450469 21.59955725 -0.00664046 -0.00001168 -0.00345987
C 3.11116255 22.85999647 5.21093498 0.00271527 0.00521913 -0.00376500
C 0.73535015 27.73898966 1.06256105 0.00661751 -0.00089460 -0.00881019
C 7.12625464 25.23650244 1.00126736 -0.00112842 0.00017280 -0.00071605
C 9.71018870 20.33939854 5.18303085 -0.00794978 0.00038750 -0.00829778
C 4.36603363 22.74233989 4.64475224 0.00241582 -0.00302882 0.00326802
C 12.34179814 27.73289363 1.65980651 -0.00557539 -0.00670489 0.00273051
C 5.92458140 25.47634189 1.69999994 0.00241902 -0.00293873 0.00160718
C 36.97824768 20.52232216 4.39758618 0.00583767 0.00391787 -0.00470640
C 5.34414891 21.90291470 5.07737329 -0.00329326 -0.00369548 -0.00083111
C 11.35999127 26.90989389 1.20587579 0.00380559 0.00756381 -0.00481266
C 5.01656506 26.35292053 1.24672276 0.00139467 0.00561426 0.00519671
C -1.36316303 21.44758875 4.65827269 -0.00370733 0.00346104 0.00242671
C 5.12933513 21.20581695 6.23952865 0.00184783 0.00197019 -0.00080112
C 11.57294546 26.09288154 0.07765060 0.00142663 0.00284626 0.00115936
C 5.31506325 27.13560991 0.09782755 -0.00286409 0.01231337 -0.00297704
C -1.47576706 22.21017683 5.86132391 0.00111082 0.00623046 -0.00566373
C 6.76244214 21.52343679 0.69225164 0.00287537 0.00333378 0.00481984
C 9.82467819 26.21972663 5.56013608 -0.01026761 -0.00510045 -0.00506221
C 3.22517527 26.78736306 5.39978930 -0.00428839 0.00233652 0.00340249
C 0.15034158 22.38112754 0.48148703 0.00856744 0.00521194 -0.00299392
C 5.81513380 22.36166457 0.22491608 -0.00960506 -0.00491514 0.00263493
C -2.49093859 26.86226177 5.86059149 0.00331338 0.00791248 -0.00644198
C 4.18711931 25.91648992 5.89621046 0.00556125 -0.00821632 0.01118463
C 12.45172937 21.35458439 0.05893909 0.00851163 -0.01054067 -0.00208309
C 2.11398955 24.24977186 3.49757580 -0.00957378 0.00544644 -0.00600990
C 1.62595403 19.76072164 2.67386919 -0.00429621 -0.00073711 -0.00707061
C 8.12215805 23.80387720 2.68710310 0.00383643 0.00184318 0.00175333
C 8.55679421 28.70976573 3.56859837 0.00078463 -0.00783478 -0.00128049
C 0.86129380 24.96435936 3.22891154 0.00482155 0.00511132 0.00187593
C 2.84481794 20.56748714 2.92665393 0.00392123 0.00282600 -0.00185871
C 9.14140411 22.76317578 2.87487955 -0.00449636 -0.00363948 0.00377170
C 7.31455807 27.87562614 3.41563877 0.00336607 0.00917903 -0.00047147
C 0.07017134 22.81284105 11.06819097 -0.00470501 0.00654566 -0.00043716
C -2.66402948 27.66844270 7.02564942 -0.00450628 -0.00156586 0.00533482
C 3.90984984 25.15469375 6.94825121 -0.00091451 0.00730055 0.01223332
C 6.54642584 20.41918471 11.23724276 -0.00738790 -0.00713002 0.00581051
C 1.30301412 22.65248628 10.34056210 0.00002854 0.00548670 -0.00688149
C 9.37801967 27.90768205 7.66717315 0.00283443 -0.00671796 0.00734409
C 2.64352822 25.14743012 7.55779284 -0.00005681 0.00329963 0.00374687
C 34.08938777 20.57795297 10.40568386 -0.00405822 -0.00247983 0.00406186
C 2.26165523 21.74462711 10.70903734 -0.00004435 -0.00785497 -0.00707514
C 8.42139177 26.94187549 7.36267495 -0.00194740 -0.00304948 -0.00417675
C 1.64653949 26.02107357 7.11581649 -0.00305860 0.00114044 0.00562772
C -4.22182664 21.47519524 10.79036213 0.00302825 -0.00673328 0.00629563
C 2.02960054 20.96079239 11.83226602 -0.00178919 0.00128580 -0.00219684
C 8.63090657 26.08264945 6.27188100 -0.00421399 -0.00197873 0.00139750
C 1.90900410 26.78295964 5.96697683 0.00107394 0.00104291 0.00323275
C -4.42738231 22.30967731 11.87053837 0.00573387 -0.00559624 -0.00480808
C 3.92552482 21.38915682 6.89527688 0.00165410 0.00547329 -0.00108969
C 6.53840996 26.21856512 11.54643689 -0.00994482 0.00329245 -0.00090856
C 0.24989407 26.67054674 11.52009379 -0.00151164 -0.00286358 -0.00093055
C -2.65133459 22.12882733 6.61248432 -0.00050859 0.00212384 0.00209867
C 2.94844270 22.19239776 6.39755287 0.00115085 -0.00351973 0.00190801
C -5.27498520 27.14373521 11.90375975 -0.00030476 0.00127756 0.00765945
C 1.18823463 25.78007336 11.99004550 -0.00514990 -0.00101254 -0.00094263
C 9.43317185 21.17084715 6.32168680 0.00885887 0.00399397 -0.00106141
C -1.12832108 24.25343857 9.59879464 -0.00018610 -0.00597526 0.00477485
C -1.64480901 19.65415308 8.54752073 0.00296184 0.00055270 0.00553554
C 5.09017453 23.82306130 8.56903578 0.00184401 0.00670552 0.00033829
C 5.20162013 28.67809925 9.35521783 -0.00038194 0.00915297 -0.00145137
C -2.29367602 25.16488878 9.31991698 -0.00113129 0.00162475 0.00259873
C -0.68228342 20.77990135 8.79560911 0.00227269 -0.00226686 0.00076653
C 6.48304422 23.24446579 8.78274828 -0.00744634 0.00480991 -0.00239184
C 3.83393222 28.05617706 9.20919068 0.00479141 0.00181332 0.00052757
C -2.80477055 23.15345664 17.41069527 -0.00496396 0.00261250 0.00353617
C -5.52435742 27.96790379 13.04421314 0.00330746 0.00356471 -0.00014746
C 0.95613606 24.95334563 13.13470458 0.00815095 0.00227250 -0.00141787
C 3.64016349 20.39178538 17.31783543 -0.00713910 -0.00776621 -0.00117540
C -1.58136053 23.14842748 16.73685740 0.00066603 -0.00710642 -0.00011799
C 6.19477589 27.72584156 13.88567891 0.00470233 -0.00115351 0.00154108
C -0.29125809 25.11511094 13.71875110 -0.00182214 -0.00198223 0.00227584
C -8.07216548 20.53294223 16.47936836 -0.00279940 0.00239016 -0.00298401
C -0.58290330 22.28400485 17.15369742 -0.00888283 0.00750686 -0.00355879
C 5.17009998 26.92959946 13.45452709 -0.00033989 -0.00268258 -0.00250567
C -1.19036580 26.11811999 13.31976770 -0.00126924 0.00607469 -0.00487787
C -7.05555211 21.28605043 17.04453383 -0.00608291 0.00025162 0.00776445
C -0.71446400 21.42817916 18.23203512 0.00015969 0.00061420 0.00128710
C 5.33267776 26.14755889 12.29114503 -0.00386267 -0.00036401 0.00196371
C -0.92104551 26.92633242 12.22277592 -0.00550374 -0.00379857 0.00133620
C -7.30982888 22.17594142 18.13221656 0.00167437 -0.00374881 0.00433542
C 0.79068926 21.03314164 12.54682867 -0.00070820 0.00793107 0.00350357
C 3.63320257 26.09828312 17.62291150 -0.00772355 0.00348277 0.00124105
C -2.82934345 26.96980396 17.70256484 0.00074330 0.00482586 -0.00053308
C -5.63261673 22.29232995 12.57215140 -0.00493924 0.00114744 0.00174171
C -0.09124908 22.04602974 12.22472345 -0.00395353 0.00207998 -0.00377464
C -8.44047583 26.97077198 18.01343578 0.00227170 0.00064993 0.00700686
C -1.78426359 26.26929399 18.23649666 -0.00107235 -0.00008908 0.00044467
C 6.39708331 21.26049069 12.34967963 -0.00374532 -0.00153391 0.00221491
C -4.16867235 24.34672461 15.70354840 -0.00126787 0.00311040 -0.00553050
C -4.65522886 19.62307207 14.92372364 0.00034671 0.00131444 0.00080965
C 2.19898516 23.69012943 14.82787218 -0.00491404 -0.00294329 -0.00218186
C 2.41474579 28.52759250 15.77625496 -0.00412235 0.00660876 -0.00219063
C -5.47552312 25.05293424 15.47890241 -0.00792325 0.00089194 0.00748634
C -3.57470972 20.65596288 15.24805103 -0.00489505 0.00172373 -0.00279596
C 3.45098255 22.94542536 15.13094515 0.00756280 0.00213967 -0.00003520
C 1.09426194 27.79270169 15.47467904 -0.00374837 0.00394934 -0.00120895
C -6.00936393 23.12662694 23.45958552 -0.00209857 0.00479313 -0.00281528
C -8.67635929 27.80104780 19.15872380 0.00011693 -0.00263750 0.00584609
C -2.00416248 25.38501051 19.35899349 -0.00039522 -0.00212116 -0.00141961
C 0.66345879 20.45903493 23.33912558 -0.00085346 -0.00271043 0.00306285
C -4.89963209 22.86519236 22.67022820 0.00195550 -0.00381058 0.00208815
C 3.24379004 27.53436823 20.03635478 0.00377608 0.00113902 -0.00753732
C -3.33383493 25.33789939 19.90603296 -0.00504101 -0.00087856 -0.00677581
C 28.03508102 20.79413568 22.59035532 -0.00200378 0.00128573 -0.00196627
C -3.93892682 21.93185456 23.05900488 -0.00531683 0.00070082 0.00490377
C 2.24300654 26.76219227 19.50736698 0.00115671 0.00235518 -0.00120570
C -4.36369235 26.09416118 19.37016076 0.00821584 -0.00238213 0.00453819
C -10.37776155 21.76483668 23.05862068 -0.00019647 0.00630235 -0.00335211
C -4.12359539 21.20608503 24.25317053 0.00480478 -0.00719039 -0.00598857
C 2.48146323 25.84555547 18.41192511 0.01233084 0.00094104 0.00108423
C -4.15376794 26.90225897 18.25008121 -0.00050703 -0.00310693 0.00243569
C -10.59440846 22.55864031 24.20056121 0.00310307 0.00601329 -0.00956501
C -1.98942509 21.45486271 18.88755171 -0.00004727 -0.00284582 0.00461965
C 0.81982336 26.11448906 23.84431100 0.00001112 0.00349085 -0.00457143
C -5.54514878 26.82468793 23.67809670 0.00526929 0.00421792 0.00308722
C -8.55783269 22.05114382 18.77709647 -0.00160902 0.00236394 0.00647170
C -2.99039843 22.28013881 18.48290670 -0.00098613 0.00066566 -0.00016207
C 0.91714899 26.84347183 0.00855795 0.00419110 0.00867297 -0.00234156
C -4.73417176 25.82867404 24.07769700 -0.00071439 -0.00016908 -0.00992508
C 3.34718434 21.23635319 18.38666459 -0.00500062 -0.00311795 0.00024621
C -6.95153638 24.64369293 21.76414981 0.00235907 -0.00771193 0.00016491
C -7.31233174 19.62703631 20.95465737 0.00034918 0.00504267 0.00495231
C -0.92011801 23.90425310 20.91529150 0.00651661 0.00221928 -0.00107342
C -0.46974400 28.54388013 21.83004826 0.00013741 -0.00466026 0.00441539
C -8.03080891 25.72058915 21.61146224 0.00108385 0.00156226 0.00715301
C -6.10099561 20.56133654 21.18089797 -0.00072249 0.00673137 0.00296383
C 0.19459200 22.93291963 21.23198015 -0.00364519 -0.00211511 0.00430215
C -1.64865678 27.68325286 21.57426803 -0.00322059 0.00334057 -0.00715278
C 16.31452743 3.72189339 5.15744509 0.00469189 -0.00150294 0.00351915
C 13.52380722 8.48122925 1.10425685 -0.00233569 0.00083980 -0.00331299
C 19.94459794 5.69504764 0.90682471 0.00024235 -0.00069720 -0.00168595
C 23.04925424 1.08591093 5.08769852 0.00237663 -0.00084549 -0.00100400
C 17.49775281 3.60092192 4.39070885 -0.00734695 0.00878808 0.00211417
C 25.22846699 8.45600771 1.54011195 -0.00580876 0.00321429 -0.00076006
C 18.76578045 5.90196238 1.60798718 -0.00381434 0.00149431 0.00505253
C 11.03623462 1.29313843 4.37407488 0.00575115 -0.00362447 -0.00338038
C 18.52472816 2.81815675 4.88088003 0.00463044 0.00694271 0.00101235
C 24.29057431 7.52537506 1.21329895 -0.00403727 0.00216818 -0.00185384
C 17.85975304 6.92979857 1.32617832 -0.00432253 0.00141057 0.00153041
C 12.09749504 2.10407251 4.81671431 0.00930590 0.00101421 0.00289075
C 18.35402887 2.01572619 6.00034534 -0.00478036 -0.00101346 0.00222417
C 24.40636343 6.69855406 0.02785588 -0.00145363 -0.00281820 0.00663463
C 18.02244179 7.74027682 0.24833614 0.00475684 -0.00635308 -0.00021703
C 11.83491535 2.86240892 5.99399866 0.00023137 0.00065740 -0.00406993
C 20.03991004 2.07509530 0.63747860 0.00580675 0.00279114 0.00036119
C 22.91033007 6.77505591 5.55593811 0.00741472 -0.00477705 0.00086953
C 16.26560853 7.65308246 5.64308494 -0.00141165 -0.00067958 -0.00237402
C 13.52090287 2.80763300 0.48074153 -0.00310143 0.00326721 -0.00388553
C 19.11407079 2.95924503 0.17109606 -0.00524151 0.00009926 -0.00217492
C 10.68585954 7.62792259 5.83513836 -0.00480459 -0.00011842 -0.00093745
C 17.24610604 6.71869302 5.98629388 -0.00053319 -0.00339420 -0.00208652
C 25.84833579 2.00026440 0.14786963 -0.00534923 -0.00285139 0.00668529
C 15.02581142 5.04134051 3.50279737 0.00080825 -0.00278781 0.00387103
C 14.80415466 0.39377143 2.54083290 -0.00221684 -0.00581200 -0.00404059
C 21.16381709 4.49855618 2.52545866 -0.00368976 0.00166962 -0.00018767
C 21.61668500 9.39526691 3.55811887 0.00839753 0.00493729 -0.00112906
C 13.79113039 5.95078097 3.36702183 -0.00476366 -0.00499865 -0.01585930
C 15.96719091 1.24586149 2.57554779 0.00337143 0.00210830 -0.00597513
C 22.45070300 3.68770503 2.64224467 0.00011412 -0.00458244 -0.00044424