2880
Time=60000.00000005 pbc="T T T" Lattice="39.39688885 0.00000000 0.00000000 0.00000000 28.87721501 0.00000000 -12.01770184 0.00000000 24.35994226" energy=-18401.11433220 virial="32.05508554 19.67293217 -56.99553483 19.67293217 15.76209730 -11.94277256 -56.99553483 -11.94277256 5.67259594" stress="0.00366691 0.00078462 -0.00207373 0.00078462 0.00314884 -0.00051264 -0.00207373 -0.00051264 0.00272130" Properties=species:S:1:pos:R:3:vel:R:3
C 3.15483528 3.70337366 4.89508542 -0.00207904 0.00368049 -0.00304226
C 0.49411704 8.49134643 0.94208615 0.00272033 -0.00491872 -0.00402941
C 7.07994093 6.02435415 1.04564002 0.00616763 0.01276173 -0.00355886
C 9.91657483 1.15038639 5.05423130 -0.00132514 0.00337970 -0.00709580
C 4.37664304 3.56587345 4.15989524 0.00127677 0.00139466 0.00074603
C 12.18568806 8.41179200 1.50105487 0.00605841 -0.00425038 0.00140630
C 5.86320133 6.07343155 1.76269382 -0.00039845 -0.00338274 0.00538919
C -2.04165088 1.21193158 4.68750459 -0.00350772 -0.00598444 0.00482793
C 5.37581368 2.73336693 4.70917746 0.00003670 0.00797186 -0.00101300
C 11.18607060 7.65463581 1.02436437 0.00391260 0.00097453 -0.00422764
C 4.87104996 6.95073059 1.37063866 -0.00467480 -0.00696127 -0.00327601
C -1.05171316 2.09877108 5.11090607 0.00433375 0.00330821 -0.00182748
C 5.21495031 2.03938431 5.88947445 -0.00461612 -0.00028883 0.00284987
C -0.63147782 6.78379275 24.21769945 -0.00348838 -0.00143606 -0.00489261
C 4.93792357 7.69605378 0.15778139 0.00082654 0.00005436 -0.00497516
C -1.32976125 3.16058851 6.00199249 -0.00178720 0.01087513 -0.00936793
C 7.08812807 2.22779290 0.57493859 0.00554131 -0.00777831 0.00425625
C 9.88117443 6.78834190 5.56815326 0.00005365 -0.00326656 -0.00177020
C 3.50902313 7.77421656 5.64530326 0.00016739 0.00056149 -0.00344247
C 0.43746667 2.80071883 0.40054783 -0.00348702 0.00221228 0.00641213
C -5.95747589 2.91910359 24.33680202 0.00636502 -0.00189901 -0.00615478
C -1.83103463 7.69543562 6.04036105 0.00281742 -0.00605551 -0.00210455
C 4.38321367 6.79233123 5.97638346 0.00066951 -0.00735300 -0.00259066
C 0.40803387 1.93734137 24.30413966 0.00194394 -0.00176187 -0.00573475
C 2.13994590 5.17957708 3.27159542 0.01289516 -0.00445329 0.00131249
C 1.58388613 0.22293209 2.58880962 -0.00153539 0.00514117 -0.00056468
C 8.14662102 4.48292008 2.47852352 -0.00266414 0.00396858 -0.00287952
C 8.64224738 9.24883965 3.38361210 0.00404559 0.00141446 0.00541915
C 1.03116341 6.05762846 2.87488112 0.00798114 -0.00285498 0.00467988
C 2.67412187 1.12024335 2.84096132 -0.00371141 -0.00371501 -0.00529606
C 9.23591679 3.44696591 2.71137533 -0.00969051 0.00751891 0.00050456
C 7.34731235 8.56183781 3.06094170 0.00181216 0.00207050 0.00642878
C 0.21156000 3.81195701 11.23978473 -0.00792644 0.00651323 0.00261217
C -2.11172953 8.62125281 7.03687176 0.00369729 -0.00406694 0.00180373
C 4.09594417 5.87434174 6.97577211 -0.00142337 0.00577403 0.00206122
C 6.79547240 1.14180589 11.25969498 0.00797529 0.00849681 -0.00181974
C 1.37873303 3.74089248 10.47941256 -0.00509043 -0.00040813 0.00458026
C 9.34816769 8.64663783 7.55841516 -0.00012281 -0.00111766 0.00224226
C 2.96291421 6.06606220 7.70560202 -0.00749659 0.00121139 -0.00718228
C -4.95669286 1.12881806 10.68853511 0.00912324 0.00101470 -0.00598825
C 2.45744418 2.89774264 10.77812652 0.00338510 -0.00011448 -0.01046221
C 8.43872006 7.68442284 7.25931071 0.00211291 -0.00453318 0.00373551
C 1.92805133 6.93293284 7.28781173 0.00144530 -0.00002955 -0.00207605
C -4.06571801 2.06948327 11.06789872 -0.00154580 -0.00471145 -0.00386689
C 2.24147080 2.03176320 11.88677761 0.00042704 0.00678863 -0.00074168
C 8.63416376 6.83250051 6.14063254 -0.00225288 0.00414591 0.00142796
C 2.20710714 7.80737374 6.28036787 0.00074163 -0.00134609 0.01121643
C -4.26999201 2.90810341 12.19834732 0.00677256 0.00230034 -0.00074794
C 3.97638544 2.11736996 6.58077310 0.00348300 0.00031345 -0.00489204
C 6.89342528 7.05235673 11.48238670 0.00177142 0.00572320 0.00076987
C 0.42795393 7.69891007 11.26154589 -0.00189507 -0.00022257 0.00399765
C -2.59370420 3.10146198 6.66688705 0.00181378 0.00540377 -0.00291921
C 3.01388277 2.94559446 6.09613117 -0.00952888 -0.00150000 0.00491160
C -5.43357414 7.83264427 11.80001050 0.00023479 -0.00755374 0.00733055
C 1.37388567 6.92274122 11.86790851 -0.00067693 0.00624611 0.00264968
C 9.56963188 2.05868794 6.07008213 0.00083358 -0.01168443 0.00553092
C -1.14939997 5.10326465 9.70869858 -0.00579986 0.00256280 -0.00186966
C -1.53961128 0.33167347 8.78997303 -0.00805826 0.00833223 -0.00599267
C 5.39573436 4.48788752 8.56608247 -0.00031693 0.00463671 -0.00450057
C 5.45645626 9.47758798 9.67814852 -0.00406783 -0.00482585 -0.00107280
C -2.32211454 6.00396234 9.60396231 0.00256673 0.00123858 -0.00404288
C -0.37477549 1.24882285 9.10112791 0.00152294 0.00623810 -0.00714120
C 6.66735286 3.69261098 8.74387954 0.00372937 0.00777891 0.00650982
C 4.32941451 8.53213962 9.59140655 -0.00558821 -0.00391768 -0.00395293
C -2.80541762 3.90903261 17.19171534 -0.00362958 0.00705889 -0.00709020
C -5.58870737 8.66725877 12.91775952 -0.00341362 0.00756818 -0.00076154
C 1.11014086 6.10521070 13.01816672 0.00210639 0.00968748 0.00725085
C 3.68309269 1.11591493 17.30662759 -0.00373470 0.00506867 0.00055109
C -1.61947977 3.74852517 16.41669967 0.00575604 -0.00158989 0.00784511
C 6.29416160 8.58422223 13.76459701 -0.00465604 0.00432015 -0.00495444
C -0.13187782 6.17360966 13.63233991 0.00664752 -0.00126272 0.00508766
C -8.05596953 1.15213381 16.73394120 0.00779309 0.00300497 -0.00125482
C -0.74396929 2.70968289 16.73775489 0.00280312 0.00459861 0.00208377
C 5.37136851 7.78901894 13.16322168 0.00233535 -0.00133021 -0.00394114
C -1.10196031 7.01327358 13.06169605 0.00592900 -0.00258617 -0.00409323
C -7.12913160 2.06052645 17.10707218 -0.00356158 -0.00263914 -0.00042367
C -0.96737745 1.92704930 17.87419115 -0.00288454 0.00195861 0.00325340
C 5.66751525 6.90690429 12.08218431 0.00433101 -0.00315969 0.00382749
C -0.91582105 7.67297809 11.81856735 -0.00218368 -0.00061808 -0.00555571
C -7.31046082 2.92195050 18.20082717 -0.00353884 -0.00667450 -0.00164409
C 1.07887675 2.06338617 12.63870630 0.00365936 -0.00059955 -0.00659245
C 3.62898878 6.90842674 17.49759895 0.00645886 -0.00747818 -0.00170183
C -2.50159840 7.63718377 17.71065485 -0.00581706 0.00416940 -0.00430676
C -5.54086481 2.85595210 12.86312476 -0.00060769 -0.00441184 0.00479972
C 0.05690638 2.94718585 12.35656555 0.00177126 -0.00129021 0.00241398
C -8.50580366 7.53192425 18.01772440 0.00177261 0.00252315 0.00890075
C -1.67156415 6.64600684 18.02520096 0.00353428 0.00217831 -0.00534561
C 6.50070837 2.03587665 12.35438014 -0.00247268 0.00374919 0.00050276
C -4.14241061 5.12895287 15.59212739 -0.00846413 0.00231367 -0.00386013
C -4.45923055 0.27396238 14.87229850 -0.00061289 0.00067386 0.00753722
C 2.20881982 4.54281897 14.54109153 0.00096082 -0.00067912 -0.00691310
C 2.21192203 9.35588279 15.67563328 -0.00489370 -0.00455189 -0.00440943
C -5.58449679 5.62552960 15.29978003 -0.00541879 -0.00179602 0.00381191
C -3.21269123 1.09855220 15.09445885 0.00524135 -0.00181501 0.00451043
C 3.41490696 3.66122267 14.83607562 0.00165941 -0.00645364 0.00668968
C 0.88405431 8.78719223 15.33236020 -0.00593211 0.00412840 -0.00589128
C -5.70986946 3.73194942 23.21456992 0.00557953 -0.00337410 -0.00082477
C -8.62504004 8.37646966 19.16709462 -0.00684441 0.00318041 -0.00095852
C -1.92925500 5.88809248 19.18469915 -0.00306484 0.00450310 0.00281508
C 0.64780910 0.93251297 23.27659906 0.00032734 -0.00125360 0.00341047
C -4.44610844 3.70565299 22.59529571 0.00341873 0.00188494 0.00110113
C 3.15199731 8.42772671 19.82304341 -0.00095224 -0.00165456 -0.00007437
C -3.14576048 6.05350787 19.89855108 0.00248420 0.00403676 -0.00030599
C -11.13690356 1.01912906 22.74013508 0.00629756 0.00641157 -0.00076072
C -3.55244404 2.78889970 23.07154668 0.00059057 -0.00553170 0.00098421
C 2.28008981 7.41790539 19.36501134 -0.00264810 -0.00176775 0.00412567
C -4.05621587 6.99687185 19.48768159 -0.00219758 0.00505158 -0.00588937
C -10.09177575 1.86227106 23.09697729 -0.00315460 -0.00353115 -0.00457760
C -3.75433762 1.98150381 24.16282117 0.00388838 -0.00518336 0.00681281
C 2.49403627 6.65149085 18.22649159 -0.00199913 0.00009198 0.00420999
C -3.72622642 7.84507637 18.44940667 -0.00703184 -0.00210741 -0.00833865
C -10.29606191 2.85818488 24.06861030 -0.00106532 0.00714677 -0.00663726
C -2.03744441 2.13372362 18.65972652 0.00073249 -0.00505727 -0.00337078
C 0.66052174 6.87183461 23.57435289 0.00765767 -0.00105231 -0.00424572
C -5.85214144 7.70896272 23.88297768 -0.00146106 0.00008166 0.00509310
C -8.55992034 2.85485659 18.87202415 0.00797303 -0.00102015 0.00159209
C -2.96097276 3.12341981 18.30171466 -0.00096028 0.00237446 -0.00419210
C -11.28282834 7.68354635 24.17602449 -0.00829190 -0.00100420 0.01084830
C -4.81353073 7.00026863 24.32025455 -0.00131026 0.00074874 -0.00858459
C 3.60695708 1.73916917 18.56718288 0.01016741 0.01343878 0.00459759
C -6.80198873 5.20939254 21.74077182 -0.01044367 -0.00381588 0.00205177
C -7.25340161 0.00026674 20.81469133 0.00218193 -0.00780198 -0.00047823
C -0.84021110 4.42369047 20.79503991 0.00302007 0.00076242 0.00352071
C -0.53290892 9.22682591 21.73998161 0.00683224 0.00058649 -0.00021463
C -7.95186111 6.17794769 21.53075493 -0.00077902 0.00575473 0.00137538
C -6.21320388 1.09991910 20.96997123 0.00594277 0.00110066 -0.00278011
C 0.39966241 3.60164733 21.16254854 0.00445223 0.00235452 -0.00146011
C -1.75350063 8.34859788 21.61735738 0.00940284 0.00218402 -0.00104375
C 3.06946871 13.30367217 4.99581181 0.00018029 0.00194375 0.00051877
C 0.27766632 18.27121368 0.94734371 0.00570521 0.00291294 -0.00271022
C 6.86026110 15.66093328 0.97266262 0.00437785 -0.00215263 -0.00176629
C 9.63370895 10.68881824 4.98027357 0.00007155 -0.00342121 -0.00236174
C 4.32345050 13.28511005 4.34701809 -0.00585760 -0.00217454 -0.00563570
C 12.25106665 17.87009285 1.87163634 0.00290791 0.00742868 0.00640209
C 5.53896454 15.75091287 1.63202857 0.00444493 0.00188253 -0.00207465
C -1.93301214 10.88126059 4.31742281 0.00822448 0.00990824 0.00078401
C 5.24199119 12.30287729 4.69325084 -0.00224900 -0.00073462 0.00072685
C 11.23739503 16.97332213 1.57798616 0.00397389 0.00368962 -0.00184986
C 4.59359607 16.56706328 1.14083523 0.00731386 0.00149104 0.00037021
C -0.93601156 11.82665249 4.74139456 0.00174796 -0.00735708 0.00025339
C 5.02329004 11.41985275 5.80574169 -0.00509306 0.00105445 -0.00089151
C 11.30336524 16.17236093 0.33004492 0.00392599 0.00315858 0.00003655
C 4.86067499 17.40353600 0.04344656 0.00264861 -0.00787658 0.00000300
C -1.16509035 12.62096193 5.87312882 0.00894099 0.00463446 -0.00288332
C 6.81116272 11.63562184 0.49077668 0.00433871 -0.00392632 0.00268940
C 9.82986627 16.63039225 5.65678284 -0.00406906 -0.00004299 0.00861667
C 3.13209146 17.02059629 5.41248549 -0.00678834 0.00359895 0.00017795
C 0.31391574 12.43449744 0.57389762 0.00106198 -0.00208645 -0.00229212
C -6.21694753 12.39438990 24.34363273 -0.00086070 0.00453592 -0.00473905
C -2.22827001 17.32732427 5.92533884 0.00598787 -0.00527302 -0.00720139
C 4.10623324 16.16067816 5.87461307 -0.00590842 0.00185990 0.00389573
C 12.53334614 11.43647963 0.08336707 0.00250152 -0.00330459 0.00596999
C 1.83040539 14.73137695 3.45024360 -0.00305814 0.00580503 0.00021784
C 1.61494738 9.94429508 2.59087322 0.00230375 -0.00393857 -0.00099730
C 8.04356251 14.26849883 2.52078469 0.00783149 -0.00433921 0.00722853
C 8.25316105 19.13140411 3.62995096 -0.00410602 -0.00103814 -0.00429291
C 0.66015280 15.75412228 3.33173080 0.00471723 0.00109242 -0.00280804
C 2.57319712 11.04246562 2.84973153 -0.00785859 0.00398472 0.01072157
C 9.36499245 13.52086293 2.79680766 -0.00237925 -0.00166024 -0.00236755
C 6.90738099 18.46164566 3.34786067 0.00689020 -0.00142096 -0.00098740
C 0.18430920 13.45063372 11.39288753 0.00006322 0.00021479 0.00404023
C -2.46866623 18.16277466 7.09463998 -0.00049789 -0.00408849 0.00509487
C 3.93477011 15.32920285 7.00467556 0.00903632 0.00631917 0.00455229
C 6.68317990 10.83668734 11.29099473 0.00025632 -0.00057073 -0.00912848
C 1.46125878 13.46985087 10.72946073 -0.00511019 0.00059164 0.00203680
C 9.26927919 18.03648203 8.01481369 -0.00355878 -0.00314246 0.00039122
C 2.74145391 15.45808162 7.68392499 0.00335811 -0.00056324 0.00315836
C 34.21014700 10.81074914 10.40924162 -0.00426614 -0.00312367 0.00132954
C 2.41592407 12.54242507 11.03209207 0.01276955 0.00242813 -0.00014055
C 8.34952215 17.13583731 7.47858434 -0.00095730 -0.00044379 0.00200011
C 1.76208225 16.30603419 7.24031477 0.00979933 -0.00824114 0.00108216
C -4.34177693 11.81444683 10.80093674 -0.00427240 -0.00386652 -0.00071852
C 2.18354200 11.61958353 12.08576647 0.00344965 0.00084471 -0.00220821
C 8.54520307 16.55518474 6.23489135 -0.00263634 0.00222737 0.00121205
C 1.93709688 17.08449852 6.11611631 -0.00367617 0.00153768 0.00420279
C -4.48504729 12.55597173 12.00687911 0.00274175 -0.00142946 -0.00261126
C 3.81177029 11.58270702 6.50534984 0.00255998 0.00479868 0.00359346
C 6.58120827 16.58513676 11.62780189 -0.00218188 0.00028091 0.00883558
C 0.27161571 17.26465422 11.71334570 -0.00272104 -0.00410691 0.00103470
C -2.39543016 12.54191947 6.56210640 0.00153447 0.00143699 0.00221820
C 2.85029672 12.44521664 6.07164945 0.00828982 -0.00263069 0.00040786
C -5.55937459 17.20507406 11.82270950 -0.00159160 0.00343565 0.00269452
C 1.26289063 16.48949902 12.29715282 0.00510340 0.00120086 -0.00758393
C 9.52679258 11.48466079 6.22208564 -0.00950741 -0.00093920 -0.00356865
C -1.14537849 14.69386429 9.76446371 -0.00125157 0.00176760 0.00165134
C -1.02023161 10.06501353 8.68100293 -0.00253763 -0.00005556 -0.00085598
C 5.18601281 14.03861100 8.65765795 0.00310112 -0.00549398 0.00164377
C 5.51161820 18.80691497 9.63460763 -0.00204294 0.00371964 0.00944665
C -2.22627895 15.69636074 9.75647092 -0.00424076 0.00451385 0.00377226
C 0.38940173 10.67568812 8.97337076 -0.00302704 0.00313011 0.00302282
C 6.34518237 13.19523768 9.01959755 -0.00601212 0.00076137 0.00333171
C 4.34458288 17.97227342 9.22492683 -0.00001362 -0.00461882 0.00470409
C -3.05188856 13.13893209 17.20230355 0.00874204 -0.00791450 0.00045704
C -5.77506615 18.06901364 12.92614323 -0.00779990 -0.00053431 0.00587991
C 0.97056068 15.66877897 13.35317547 0.00656472 -0.00588397 0.00289670
C 3.45982011 10.71619789 17.40158275 -0.00437179 0.00492981 -0.00530418
C -1.85810809 13.17225140 16.58256940 0.00974970 -0.00190905 0.00059011
C 6.33093409 18.06571964 13.98912799 0.00039648 -0.00320617 -0.00214287
C -0.31624853 15.64102402 13.92573138 0.00144313 -0.00797897 -0.00020886
C -8.10093080 10.45194154 16.63462964 -0.00228128 -0.00622674 -0.00001970
C -0.89029632 12.29406801 16.95147482 -0.00105397 -0.00374282 -0.00210892
C 5.30754631 17.25466908 13.55411849 0.00164534 -0.00194099 0.00117942
C -1.27667183 16.44942407 13.34391790 -0.00381665 -0.00438864 -0.00474862
C -7.12494685 11.31205778 17.13844368 -0.00234496 -0.00060887 -0.00426502
C -1.04541027 11.48721889 18.07254832 0.00620815 0.00090762 -0.00201012
C 5.46555478 16.43670616 12.39810692 -0.00128754 0.00499165 0.00060319
C -0.98804115 17.30229432 12.24602063 -0.00385228 0.00389566 -0.00183613
C -7.29324098 12.14608012 18.31746172 -0.00102376 0.00008024 -0.00120668
C 1.03234657 11.74320992 12.83048313 -0.00189000 0.00156119 0.00571692
C 3.63919205 16.64218952 17.75099363 0.00087593 0.00123595 0.00236232
C -2.61304494 17.06734301 17.70272329 0.00123913 -0.00770834 0.00302067
C -5.65504714 12.32076680 12.70558999 0.00777810 -0.00225748 0.00399553
C -0.05901193 12.57546337 12.38097894 -0.00406263 -0.00156829 -0.01337204
C -8.47268532 17.27376190 18.10962222 -0.00571595 0.00572224 -0.00266194
C -1.80068443 16.09571697 18.12458161 -0.00306428 -0.00429046 0.00004695
C 6.60786442 11.57656978 12.49441298 -0.00475811 0.00278352 -0.00233366
C -4.23369208 14.59307694 15.66549715 0.00332289 -0.00507060 0.00304719
C -4.06250596 9.88798892 14.38611623 0.00260363 0.00228877 -0.00284751
C 2.13531130 14.27539173 15.00489186 -0.00607507 0.00352073 0.00001230
C 2.20636601 19.35957579 15.94829090 -0.00146234 -0.00455739 0.00211078
C -5.35917230 15.58371030 15.75325608 -0.00451300 0.00310959 -0.00384349
C -3.00584235 10.88632164 14.32037054 0.00188238 -0.00474102 0.00673487
C 3.36004206 13.40199532 15.23790711 -0.00909250 0.00204649 -0.00728237
C 1.07971640 18.45442966 15.88058995 -0.00716998 -0.00183555 0.00161324
C -5.88652289 13.31729288 23.32890004 0.00297846 -0.00254486 0.00520047
C -8.70919952 18.09477931 19.24707164 0.00222975 0.00317067 0.00390951
C -2.07025440 15.25158569 19.21002217 0.00771833 -0.00025719 0.00445305
C 0.73256515 10.57588478 23.36488778 0.00300211 0.00270534 0.00265108
C -4.75216539 13.22135016 22.57952633 0.00385943 -0.00275078 -0.00377911
C 3.29656136 18.10674701 20.20009761 -0.00044122 0.00129840 -0.00084103
C -3.24232965 15.55938999 19.96479396 0.00094441 0.00178942 0.00191652
C 28.11050566 10.81722791 22.59659648 0.00880171 0.01335408 -0.00119652
C -3.74759123 12.38263135 23.05729897 -0.00355246 -0.00166788 -0.00571328
C 2.32928754 17.26194260 19.73886368 -0.00203965 0.00326248 0.00151994
C -4.16918246 16.48853927 19.53784763 -0.00252686 -0.00181949 0.00422787
C -10.35250717 11.76308075 23.05174451 0.00209755 -0.00431819 -0.00062265
C -3.97522962 11.59395929 24.21982495 0.00115236 0.00200906 -0.00543906
C 2.47307636 16.47804616 18.54371322 -0.00037605 0.00465011 -0.01300333
C -3.88535931 17.21749370 18.39628903 0.00571338 0.00077187 -0.00397772
C -10.58639474 12.57760321 24.17392318 -0.00155527 -0.00135728 0.00706390
C -2.28026036 11.51909363 18.74271788 -0.00660683 0.00452564 -0.00484952
C 0.43021348 16.34908177 23.87768380 -0.00057253 0.00394838 0.00619079
C -5.86295760 17.35666801 23.82767940 -0.00446242 0.00433487 -0.00174409
C -8.51502861 12.04566930 18.96914648 -0.00806735 0.00217304 0.00324962
C -3.33263391 12.28845295 18.28821321 -0.00259421 -0.00109233 0.00095628
C -11.50510930 17.40277134 24.29092984 0.00199821 0.00039975 -0.00197871
C -4.95159543 16.48854537 24.27982579 -0.00097778 0.00183404 0.01104434
C 3.24991757 11.56497940 18.48688029 -0.00427637 -0.00025191 -0.00486406
C -7.23165474 14.66024983 21.85918349 0.00172722 0.00157723 0.00283164
C -7.45346487 9.81508050 20.78081920 0.00435574 0.00355254 -0.00010321
C -0.95820711 13.90951679 20.91961079 -0.00273391 -0.00721212 0.00120038
C -0.81753209 18.75142933 21.96564056 -0.00481888 0.00222279 0.00280359
C -8.51859700 15.51323885 21.67525955 -0.00164407 -0.00475747 0.01034052
C -6.48265960 10.87188553 21.05566441 -0.00443716 -0.00263384 0.00289474
C 0.22508071 13.12591826 21.22347956 -0.00540662 0.00390711 0.00315276
C -1.89267515 17.81643396 21.73620097 -0.00018142 -0.00134646 0.00408042
C 3.20192396 22.96056654 5.41652021 -0.00356534 0.00093490 0.00462121
C 0.39786585 27.57540684 1.19265494 -0.00509450 -0.00277216 0.00300136
C 6.83928732 25.20959813 1.14194633 0.00328861 -0.00873846 -0.00411695
C 9.53449608 20.52311195 5.20596787 0.00371165 -0.00043933 -0.00973859
C 4.41960929 22.83618533 4.73989605 0.00476063 0.00360494 -0.00383708
C 12.39264288 27.82031667 1.70197288 -0.00657306 -0.00063695 -0.00643412
C 5.65207040 25.40374505 1.84035330 -0.00547485 0.00526982 0.00046487
C -2.21293666 20.33081662 4.62007903 -0.00193148 0.00003500 0.00217753
C 5.45023230 22.02885539 5.18429367 -0.00195250 -0.00495897 -0.00319219
C 11.40333171 26.95312460 1.35122289 0.00263310 -0.00619462 0.00305043
C 4.76281333 26.39944390 1.48102794 -0.00052763 0.00171447 -0.00224143
C -1.25495259 21.27876823 5.05074163 0.00433078 -0.00361089 -0.00056198
C 5.18722306 21.06737232 6.23468193 0.00557986 -0.00565819 0.00187929
C 11.67329592 25.99416179 0.31766032 -0.00178413 0.00381898 0.00475942
C 5.02176600 27.31672924 0.45637575 0.00012872 0.00618694 0.00287342
C -1.50363738 22.02858170 6.21728295 -0.00338838 0.00841643 0.00515066
C 6.83103022 21.33215426 0.68087859 -0.00587738 -0.00264863 -0.00033697
C 9.64404230 26.03254465 5.70719455 -0.00589089 0.00208530 -0.00374755
C 3.10710439 27.25444198 5.99089513 -0.00098760 0.00581712 0.00529632
C 0.29101322 21.89747961 0.64586907 -0.00314873 0.00012581 -0.00471819
C 5.86303142 22.14072940 0.15078261 0.00752721 0.00324460 0.00007588
C -2.38888107 26.99623529 6.13267426 -0.00111799 0.00247495 -0.00185155
C 4.05829921 26.32918002 6.23872086 -0.00812188 0.00310940 0.00063255
C 12.22058027 21.07727160 0.09158173 0.00519954 0.00395995 0.00049364
C 1.95039311 24.29501719 3.84004957 0.00739757 0.00490441 0.00227435
C 1.36815407 19.57770067 2.66028385 0.00112089 0.00411311 -0.00091716
C 8.09553610 23.91432944 2.72157586 0.00163132 0.00047509 -0.00242820
C 8.61530094 28.68974346 3.40694490 -0.00408573 -0.00086977 -0.00262088
C 0.81909241 25.15292371 3.51475180 -0.00188436 0.01127974 -0.00635574
C 2.71692501 20.25315918 3.01095358 0.00404255 0.00916484 0.00244045
C 9.35195233 23.08892146 2.80381206 -0.00672717 -0.00077876 0.00088834
C 7.23527562 28.16311996 3.09872098 0.00362107 0.00553070 0.00290467
C -0.22428199 23.05983670 11.45812661 0.00130488 0.00331714 -0.00718503
C -2.67303931 27.86363950 7.18161479 -0.00060199 -0.00076440 0.00301397
C 3.86016080 25.40672925 7.26164260 -0.00314513 -0.00049746 -0.00506494
C 6.49300893 20.27597133 11.30873808 -0.00113243 -0.00967688 -0.00187300
C 0.97801994 23.01821248 10.69491534 -0.00019171 -0.00206510 -0.00329442
C 9.32146980 27.76937881 7.81659074 -0.00615620 -0.00015967 -0.00166519
C 2.62143158 25.45824558 7.92229832 -0.00327329 -0.00630874 0.00348593
C 34.01345748 20.49043284 10.63175055 0.00116105 -0.00776439 0.00036401
C 2.05026899 22.22305233 11.10406006 -0.00028030 -0.00474514 -0.00513799
C 8.31980794 26.85078514 7.48092988 -0.00692262 0.00191513 -0.00426279
C 1.60729226 26.30877825 7.58449369 0.00415016 0.00132157 -0.00006336
C -4.46648352 21.43544572 11.11245191 -0.00008220 0.00047613 -0.00300837
C 1.95075143 21.34509239 12.17295508 0.00975109 -0.00373509 -0.00181328
C 8.40416304 26.09121735 6.32670224 0.00016788 0.00571372 -0.00181910
C 1.86176866 27.19712273 6.49273180 0.00227289 0.00861793 0.00009343
C -4.86388361 22.27319995 12.13539398 -0.00110254 0.00008524 0.00269187
C 3.92335968 21.05360393 6.78864314 -0.00303393 -0.00590802 -0.00274016
C 6.64436623 26.12820892 11.63644532 0.00105887 -0.00231638 0.00812552
C 0.22242955 26.93951529 11.73915499 -0.00526911 0.00236576 -0.00443532
C -2.67942570 21.74145389 6.92741055 -0.00104753 -0.00454622 -0.00057479
C 2.93725588 21.97315115 6.44882122 -0.00553005 -0.00774717 -0.00174783
C -5.30064286 26.80426819 12.22460937 0.00476715 0.00123724 -0.00367025
C 1.25766634 26.03413897 12.04780380 -0.00413435 -0.00247896 0.00002562
C 9.42434438 21.28346528 6.36336744 0.00568714 0.00039903 0.00844548
C -1.44689463 24.37575077 9.87666893 0.00383496 0.00210552 0.00148151
C -1.51015380 19.64727407 8.74486878 0.00069026 0.00674978 0.00408125
C 4.90293313 23.82053994 8.74222807 -0.01269362 0.00145906 0.00230414
C 5.77650398 28.56711648 9.59638712 -0.00308342 0.00494851 0.00405659
C -2.69384215 25.22822210 9.73280140 -0.00349988 0.00275239 -0.00137083
C -0.26265788 20.43915064 8.95716323 0.00825253 -0.00458455 0.00445597
C 6.00314047 22.84415349 8.93600505 -0.00195129 0.00226748 -0.00249721
C 4.73072105 27.53917632 9.35361839 -0.00251581 0.00531380 0.00204279
C -2.87130315 22.77861365 17.38053287 -0.00136691 0.00053145 -0.00149051
C -5.52451372 27.62593609 13.37550648 0.00274861 -0.00027136 0.00879861
C 1.08456806 25.18523852 13.18695917 -0.00380063 -0.00200344 0.00585720
C 3.61320174 20.67997804 17.46609575 0.00305445 0.00519147 -0.00076309
C -1.60546642 22.70266941 16.80788846 -0.00331518 -0.00511899 0.00075911
C 6.23566368 27.75204500 13.72270118 0.00279031 -0.00226309 -0.00827157
C -0.09762161 25.30829638 13.87747581 -0.00329446 0.00782772 0.00929235
C -8.16019238 20.43480675 16.61688095 -0.00238553 -0.00799986 -0.00577712
C -0.57823673 21.91184316 17.21153626 0.00139965 -0.00304463 -0.00041982
C 5.21795219 26.95805638 13.29959328 -0.00092601 0.00543362 -0.01000984
C -1.11477137 26.20289185 13.57307673 -0.00281779 0.00273041 0.00057875
C -7.11354723 21.29207454 16.92058064 0.00665156 -0.00073821 -0.00910563
C -0.86126160 21.01808472 18.30071011 -0.00358094 -0.00328745 0.00398722
C 5.35923607 26.07300205 12.21241354 0.00454201 -0.00082481 0.00750468
C -1.03882901 26.97056007 12.38186079 -0.00610758 -0.00442057 -0.00156350
C -7.17847906 22.10025295 18.08572295 -0.00029049 -0.00250920 0.00102830
C 0.76215887 21.36468707 12.90636844 -0.00518525 -0.00199845 0.00140915
C 3.69656329 25.94191354 17.70250728 -0.00133857 0.00956969 0.01214835
C -2.89574624 26.59180147 17.62191590 -0.00644132 0.00055624 -0.00192168
C -6.12960996 22.08725129 12.76531759 -0.00229548 0.00026531 -0.00163300
C -0.27536406 22.22864848 12.59112623 -0.00437781 0.00176376 -0.00290049
C -8.44214356 26.82380223 18.21104670 0.00272137 0.00010619 0.00263905
C -1.88382572 25.77919453 18.14169836 -0.00257281 -0.00273765 -0.00787953
C 6.23667806 21.14380929 12.44600576 0.00644183 -0.00120529 -0.00250906
C -4.16462982 23.92388278 15.56823099 0.00242410 0.00834502 0.00197510
C -4.69361329 19.33523479 14.66650934 -0.00058829 0.00946018 0.00460606
C 2.18626997 23.77228979 14.79042501 0.00248536 0.00716994 0.00243090
C 2.57036404 28.53774084 15.70418596 0.00496244 -0.00150220 -0.00362748
C -5.45659613 24.57994052 15.18308043 -0.00678670 0.00291189 0.00014002
C -3.31484456 19.85681462 15.01165269 -0.00402957 -0.00119193 0.00096869
C 3.42401593 23.02297162 15.01416267 0.00459830 -0.00262114 0.00057564
C 1.56002233 27.54709145 15.48509118 0.00461612 -0.00409117 0.00291972
C -5.92659775 23.02214303 23.46521074 -0.00208763 0.00072864 -0.00551804
C -8.64143620 27.72447808 19.26046044 -0.00545233 0.00358169 -0.00167083
C -2.17164362 24.96918126 19.20235928 -0.00172470 0.00274586 -0.00021010
C 0.42185747 20.17044125 23.42966963 0.00042558 -0.00012720 -0.00319928
C -4.67560821 22.97854450 22.86985579 -0.00346576 -0.00014562 0.00136527
C 3.51370190 27.71366931 19.97058822 0.00361669 -0.00582012 0.00489083
C -3.48554125 24.99586468 19.82366780 0.00212951 -0.00180259 -0.00385059
C 28.03320461 20.35096118 22.72816634 -0.00339964 0.00002308 -0.00592440
C -3.73768638 22.06799769 23.26300882 -0.00334812 -0.00438428 0.00810314
C 2.48477396 26.86306699 19.60688446 -0.00063708 -0.00769832 0.00118181
C -4.47940202 25.74468736 19.22483639 -0.00555805 -0.00520228 0.00257994
C -10.40350685 21.20675254 23.17940559 0.00039373 -0.00396139 0.00932682
C -3.94554292 21.16793862 24.32776559 -0.00308249 -0.00543623 -0.00664161
C 2.48695945 26.04318760 18.46221798 0.00769392 -0.00506935 -0.00458243
C -4.17469354 26.57536464 18.14829804 -0.00518109 -0.00032060 -0.00055321
C 1.51690828 21.92789934 0.01617391 0.00430216 0.00098402 0.00029435
C -2.11151477 21.13604330 18.99108477 0.00730257 -0.00852093 0.00100105
C 0.82357883 26.04080867 23.97041097 0.00131754 0.00236341 -0.00313026
C -5.77930265 27.09966793 24.08747689 -0.00630777 0.00203159 -0.00024240
C -8.36218643 22.13157383 18.75329465 -0.00342627 -0.00545508 0.00286995
C -3.04225551 21.98876597 18.50475034 -0.00125011 -0.00454668 0.00069758
C 0.61361354 26.73509032 0.06083989 0.00595638 -0.00494919 0.00133047
C 7.12128260 26.13588809 0.11819576 0.00054537 -0.00340252 -0.00276627
C 3.42889474 21.50402094 18.59446531 0.00057998 -0.00517448 -0.00122861
C -7.01715100 24.37947983 21.92055860 0.00473077 0.00189795 -0.00415302
C -7.58395132 19.55146768 20.73878406 0.00832096 -0.00369401 0.00015471
C -0.99496113 23.64175483 20.93195449 0.00015000 -0.00151470 0.00416802
C -0.56858954 28.55106195 21.59095527 0.00283933 0.01267921 -0.00148010
C -8.25965664 25.05256347 21.58262133 -0.00175818 -0.00720523 0.00263981
C -6.32592186 20.35613389 20.94537886 0.00180699 0.00107614 -0.00166149
C 0.05301038 22.60706935 21.31826358 0.00544319 -0.00166320 0.00450688
C -1.79775366 27.68654184 21.26627666 0.00222566 0.00183770 -0.00786367
C 16.24653025 3.86897132 4.86953963 0.00506815 0.00270964 -0.00583827
C 13.49144665 8.51670218 0.92776510 -0.00174595 -0.00947045 -0.00257958
C 20.15439324 5.95299154 0.80886000 -0.00748576 -0.00843980 0.00072114
C 22.77139890 0.97469906 5.02591894 -0.00206748 0.00180992 0.00472592
C 17.45912066 3.65911266 4.18943853 -0.00270538 0.00587993 0.00375356
C 25.40565047 8.37493282 1.67412083 -0.01100290 -0.00359741 0.00606553
C 18.85634046 5.98015403 1.37657646 -0.00307239 0.00262379 0.00188428
C 11.15422350 1.25619479 4.39828527 0.00106591 0.00266733 0.00412594
C 18.40652123 2.75218711 4.59488358 0.00629123 0.00303418 0.00297797
C 24.44401981 7.47217536 1.37775734 -0.00697016 0.00814199 -0.00994032
C 17.90869856 6.79459103 0.84959650 0.00696413 0.00055441 0.00278607
C 12.09180585 2.09503893 4.97226888 -0.00781165 0.00045988 0.00162501
C 18.12650982 1.94738719 5.66703432 -0.00390412 0.00162796 -0.00404957
C 24.58258026 6.61748038 0.18281073 -0.00427864 0.00421927 -0.00531384
C 6.05317223 7.68638266 24.09937260 -0.00696782 -0.00363134 -0.00180530
C 11.79561226 2.86127963 6.14473392 -0.00508647 0.00380814 0.00010604
C 20.20223556 2.29947754 0.66624801 -0.00594039 0.00557549 0.00331300
C 23.03763676 6.49203159 5.66287743 -0.00107239 0.00566334 -0.00253295
C 16.36749119 7.71339478 5.53525463 0.00508165 -0.00134671 -0.01241007
C 13.41950694 2.77692141 0.36536201 -0.00150014 0.00127681 0.00172099
C 19.16846113 3.00466040 0.01484985 0.00432424 -0.00353940 0.00306087
C 10.85671350 7.65610245 5.95355987 0.00330820 0.01110843 0.00491061
C 17.32213774 6.82068949 6.01187416 -0.00256473 -0.00122812 -0.00006985
C 25.88520616 1.81223336 0.14953136 -0.00350797 0.01442867 -0.00234287
C 15.17581201 5.11788712 3.21387460 -0.00081314 0.00162453 -0.00419644
C 14.87802181 0.44958707 2.47011408 -0.00124257 0.00526012 0.00075739
C 21.38492495 4.65057900 2.39424340 0.00341488 0.00351278 0.00624599
C 21.99227706 9.12762816 3.31580914 -0.00150322 0.00418511 -0.00402617
C 13.90410555 5.90317883 2.83860839 -0.00840681 0.00051185 -0.00114463
C 16.15562700 1.12775883 2.71161993 -0.00587349 0.00087488 0.00602837
C 22.48686924 3.65912868 2.62282234 0.00675511 0.00417471 0.00403814