2880
Time=93000.00000001 pbc="T T T" Lattice="39.15801507 0.00000000 0.00000000 0.00000000 28.67208955 0.00000000 -12.03511081 0.00000000 24.43056952" energy=-18398.13440418 virial="135.17925882 5.90576958 -82.30774322 5.90576958 74.68898133 14.44085393 -82.30774322 14.44085393 66.44246710" stress="0.00749426 0.00021392 -0.00305574 0.00021392 0.00526766 0.00055661 -0.00305574 0.00055661 0.00507782" Properties=species:S:1:pos:R:3:vel:R:3
C 3.10783236 3.84285941 5.15113118 0.00298492 0.00148668 -0.00739629
C 0.31779140 8.58776868 0.95944661 0.00303912 -0.00413136 0.00077046
C 6.85204221 5.86464226 0.99034695 -0.00148750 0.00003807 -0.00472552
C 9.62284768 1.02574627 5.20325045 0.00599064 -0.00416103 -0.00335360
C 4.17532779 3.57103954 4.31858275 0.00033762 0.00329597 -0.00307303
C 12.27060957 8.25025421 1.50938002 -0.00306332 0.00730295 0.00286850
C 5.70728615 5.97806376 1.72246634 0.00038518 -0.00884834 0.00591188
C 36.96819706 1.44209660 4.43963634 -0.00081757 -0.00172608 -0.00481864
C 5.16950620 2.70127821 4.71920172 0.00049189 0.00573713 -0.00105216
C 11.21454573 7.43244057 1.11552618 0.00159466 0.00001895 -0.00220445
C 4.68304321 6.84065353 1.45871342 0.00062359 0.00240393 -0.00052394
C -1.21137441 2.31372952 4.79559808 -0.00118601 -0.00008872 -0.00819810
C 4.99345936 1.91983618 5.89549827 0.00188081 -0.00828517 0.00442796
C 11.47048512 6.62482586 0.04498942 0.00624109 0.00175287 0.00044770
C 4.76039530 7.55644103 0.27231678 0.00499520 0.00304326 0.00359776
C -1.41139525 3.23227767 5.86419716 -0.00604330 0.00107830 -0.00196155
C 6.79372956 2.24572267 0.62937121 0.00681184 0.00104399 -0.00051951
C 9.66267916 6.73617389 5.41116668 0.00205427 -0.00438600 -0.00137010
C 3.44603155 7.76968965 5.78083084 0.00256277 -0.00230095 -0.00216106
C 0.52597716 2.68935453 0.55310497 0.00273025 0.00140714 0.00344673
C 5.75670086 3.00670690 0.16116881 -0.00379147 0.00105435 -0.00139575
C -2.26334663 7.68594223 6.16779507 0.00217932 0.00449774 0.00138852
C 4.32625642 6.76906465 6.06980343 -0.00138317 0.00271770 -0.00510417
C 12.17012037 1.79765663 0.19603956 0.00554165 -0.00490228 0.00330227
C 1.78800031 5.07557106 3.67240288 -0.00081238 0.00544406 0.00292075
C 1.74612618 0.38486811 2.43342043 0.00347962 0.00040516 0.00263172
C 8.12145819 4.63668617 2.50836128 0.00170006 -0.00214161 -0.00027710
C 8.60904267 9.18353787 3.46341792 -0.00199809 -0.00398951 0.00008032
C 0.52111350 5.88001968 3.49021800 0.00337022 0.00245991 0.00040564
C 2.95739705 1.32749553 2.44192483 -0.00085022 -0.00462508 0.00180975
C 9.40325044 3.98229409 2.67385920 -0.00071196 0.00781704 0.00771004
C 7.57427026 8.13143904 3.26125344 0.00109219 -0.00850592 -0.00394302
C 0.08897076 3.53688919 11.30194978 0.00305298 0.00952194 0.00167055
C -2.58074511 8.58474262 7.13992869 -0.00568437 0.00184543 0.00964246
C 4.08463054 6.01345201 7.16019566 0.00182593 -0.00078966 -0.00129410
C 6.52205040 1.08830333 11.21466634 0.00509397 -0.00461949 -0.00515122
C 1.25629832 3.26195456 10.52122895 -0.00849270 0.00303785 0.00741649
C 9.18453851 8.30133158 7.70258006 -0.00604498 -0.00638022 0.00566463
C 2.90872971 6.16430613 7.89872476 -0.00244923 -0.00446134 0.00048356
C -4.95189746 1.03700136 10.55815183 -0.00140961 0.00555865 -0.00598915
C 2.18299894 2.35594638 10.97006834 0.00043855 -0.00049956 0.00341989
C 8.17374412 7.46244537 7.24707682 -0.00538956 0.00738139 0.00110416
C 2.02356791 7.15358781 7.63756937 -0.00619399 0.00241330 -0.00273800
C -3.98642681 1.89132991 11.08331297 -0.00492918 0.00375704 0.00227375
C 1.99180289 1.64278916 12.20583135 -0.00945882 0.00294008 0.00848904
C 8.41369810 6.66878081 6.08119342 -0.00382686 -0.00665619 0.00056626
C 2.24737685 7.98156298 6.52099056 0.00865575 -0.00603926 -0.00567789
C -4.16187526 2.64645751 12.23659782 -0.00317757 -0.00286105 -0.00089897
C 3.80135097 2.02979015 6.65584367 0.00672742 -0.00542614 0.00238014
C 6.50103467 6.61457290 11.59481862 0.00104680 -0.00169961 -0.00543172
C 0.22378898 7.43647793 11.63394814 0.00061332 -0.00066819 -0.00120558
C -2.59676638 3.08319023 6.59023840 -0.00132153 0.00419996 -0.00499907
C 2.89051177 2.99818023 6.24626187 0.00027370 -0.00015187 -0.00757496
C -5.47408976 7.67986532 12.01614744 -0.00185087 -0.00300109 0.00009631
C 1.22619002 6.58141665 12.12350420 0.00011429 0.00132400 0.00428485
C 9.34015142 1.81526514 6.35536049 -0.00766790 -0.00320481 0.00422674
C -0.93261320 5.04833207 9.64330675 0.00227590 0.00615816 -0.00687583
C -1.49133308 0.43733046 8.67385781 0.00483196 0.00643454 -0.00390571
C 5.13855893 4.35027364 8.58752164 -0.00362966 0.00193546 -0.01451862
C 5.56537647 9.30121642 9.61316801 -0.00276250 0.00384228 -0.00809877
C -2.19842715 5.91340841 9.40846351 -0.00458408 0.00448066 0.00031609
C -0.42247745 1.39386318 8.87205242 0.00183005 0.00373840 0.00182546
C 6.29466749 3.39046558 8.82648260 0.00299431 0.00255512 0.00247911
C 4.44262987 8.36052324 9.29400413 -0.00072992 -0.00120743 -0.00026981
C -3.06404956 3.59734848 17.25023257 0.00151423 0.00075019 -0.00366717
C -5.55136631 8.49550975 13.15363911 0.00286193 -0.00216002 0.00515101
C 0.96053773 5.66836295 13.17329943 -0.00125777 0.00116752 -0.00816352
C 3.50046885 0.82465293 17.64789567 -0.00827135 -0.00341194 -0.00488026
C -1.81242334 3.56157776 16.71286053 0.00526411 0.00041274 0.00330342
C 6.15426634 8.15602900 13.82002953 0.00428562 0.00288757 0.00305304
C -0.23087789 5.83749248 13.88460626 -0.00305592 0.00583634 -0.00610334
C -8.16710046 1.21726788 16.75075127 -0.00460211 0.00120218 -0.00450655
C -0.92851515 2.61989523 17.17227053 -0.00513003 -0.00249379 -0.00092945
C 5.09066416 7.43620983 13.30631095 0.00888492 -0.00207673 0.00790496
C -1.17848650 6.74165096 13.46515158 -0.00380764 0.00221450 0.00273438
C -7.22674680 2.18892189 17.01104391 0.00428239 -0.00416084 0.00306157
C -1.14814532 1.76349744 18.25366971 -0.00747213 0.00252102 -0.00224550
C 5.26029880 6.50867102 12.22081820 -0.00177875 -0.00641608 0.00193776
C -1.03611500 7.49147960 12.25285167 -0.00777720 0.00053565 -0.00394694
C -7.50673485 3.10564627 17.98654592 -0.01240036 -0.00665908 0.00308465
C 0.80912539 1.87531456 12.90800935 -0.00250882 0.00460045 0.00600337
C 3.66348086 6.75281760 17.76093566 0.00318390 -0.00036772 0.00380807
C -2.87359856 7.65562241 17.81341740 -0.00059562 0.00159055 -0.00699711
C -5.45745258 2.62916074 12.83241158 0.00300376 0.01387727 -0.00173990
C -0.11688779 2.74505535 12.42536592 -0.00513314 0.00651194 0.00331282
C -8.56202168 7.78824043 18.08695948 0.01017104 0.00431398 -0.00047326
C -1.92497438 6.70942567 18.16795922 -0.00929930 0.00343883 0.01233786
C 6.36169980 1.87422340 12.38587832 -0.00047784 0.00625846 0.01229369
C -4.14046457 5.13634803 15.75643517 -0.00004886 0.00126931 -0.00607153
C -4.46441252 0.46156831 14.76254022 -0.00521612 0.00602857 -0.00397669
C 2.01503542 4.30940158 14.89855905 0.00008279 -0.00677805 0.00568445
C 2.54732973 9.24634955 15.82401275 0.00245478 -0.00392758 0.00240121
C -5.22108603 6.19614801 15.49374185 -0.00244355 -0.00014454 0.00068156
C -3.22160868 1.31513923 14.91347432 -0.00475046 -0.00123956 0.00080896
C 3.16241824 3.45226622 15.19712679 -0.00040955 -0.00113165 0.00465196
C 1.34967173 8.28455545 15.55995994 -0.00524265 -0.00080478 0.00236266
C -5.95736754 3.79265317 23.49635608 0.00506218 -0.00122622 -0.00054003
C -8.72577973 8.50155529 19.29007460 0.00465489 0.00272655 -0.00888945
C -2.22017846 5.85535132 19.21071218 0.00110781 0.00048671 -0.00246941
C 0.37438066 0.92055555 23.55812544 -0.00446728 0.00213105 0.00291822
C -4.70527470 3.64970344 22.85632310 0.00298576 -0.00167138 -0.00094443
C 3.12813215 8.54036587 19.87218349 0.00983239 -0.00155438 0.00444836
C -3.38115744 5.94287680 19.90616242 0.00513676 0.00979689 0.00709877
C -11.11838120 1.23507249 22.64479820 -0.00162439 0.00234342 0.01172442
C -3.76734743 2.72640787 23.23966154 0.00304972 0.00305306 -0.00310333
C 2.17924924 7.57700564 19.47749341 0.00231033 -0.00726818 -0.00192350
C -4.38414200 6.86615278 19.55902807 0.00039630 -0.00075729 0.00326052
C -10.24428474 2.25283385 23.00662874 0.00277636 0.00166900 -0.00588664
C -4.00096088 2.03338380 24.41941124 0.00231914 0.00664773 0.00443170
C 2.44612019 6.63374844 18.43160374 -0.00043906 -0.00439105 0.00036471
C -4.06256281 7.76146792 18.52087562 -0.00613242 -0.00344076 0.00352065
C -10.40282839 2.97528317 24.21340896 -0.00120565 0.00074801 0.00073037
C -2.37321969 1.92335031 18.92371067 -0.00846839 0.00379313 0.00076317
C 0.73698126 6.58231219 23.91288392 0.00232579 0.00330711 -0.00437690
C -6.01543864 7.70106611 24.06602897 0.00208821 -0.00067835 -0.00269732
C -8.75001113 3.12061699 18.64319970 -0.00233312 0.01010903 0.00438005
C -3.31414585 2.78191899 18.36241747 0.00108150 0.00011633 0.00011398
C -11.50501078 7.75470483 24.26380756 0.00464648 -0.00011168 0.00080858
C -4.99658419 6.78915347 24.33097272 0.00027029 0.00383547 -0.00327765
C 3.26772632 1.77184453 18.66043206 -0.00142440 -0.00316276 -0.00216465
C -7.07838317 5.18646572 21.86930432 0.00799620 0.00407064 0.00496047
C -7.30667642 0.28873971 20.80452537 0.00047456 0.00605791 0.00001106
C -1.05827937 4.42914164 20.77147402 0.00232608 0.00256444 -0.00410884
C -0.85691139 9.18518087 21.96009855 0.00252448 -0.00702471 -0.00130702
C -8.25641443 6.02603199 21.54646515 0.00888257 -0.00301751 0.00473710
C -6.28106664 1.41585476 20.96070973 -0.00227893 -0.00557706 0.00126013
C 0.10275275 3.44154714 20.98870153 -0.00014591 -0.00456067 -0.00201258
C -2.19283528 8.47502385 21.81300769 -0.00120978 0.01093175 -0.00455427
C 3.23891093 13.28711182 5.14075602 0.00239923 0.00224071 -0.00056942
C 0.34671276 18.05189884 0.86660972 -0.00262840 -0.00428329 -0.00940459
C 7.00135200 15.43376900 0.95558882 0.00172946 -0.00561845 -0.00011168
C 9.68494499 10.58700366 5.12452378 0.00082579 0.00926617 0.00187982
C 4.44080545 13.16409717 4.45097580 0.00283624 -0.00353537 -0.01029890
C 12.41770210 17.91315781 1.68267600 -0.00629239 0.00301667 0.00678093
C 5.79845918 15.47032917 1.57219927 0.00076003 -0.00541617 -0.00486592
C -2.21199951 10.50851737 4.55133752 0.00271369 0.00443499 -0.00010319
C 5.33183943 12.14934360 4.78492593 -0.00994443 -0.00005986 0.00526542
C 11.39525436 17.12587605 1.24582774 0.00463519 -0.00225156 0.00128828
C 4.82800970 16.47897179 1.30589710 0.00253418 -0.00379334 0.00580645
C -1.23284601 11.43046023 4.92223853 -0.00124641 0.00228347 0.00352595
C 4.99663737 11.28771429 5.82705151 -0.00350595 -0.00263523 0.00265927
C 11.59563252 16.18786075 0.23134379 0.00110332 0.00198150 -0.00536292
C 5.00240396 17.29216988 0.17733205 -0.00244424 -0.00799521 -0.00504341
C -1.45871788 12.31886016 5.97426360 0.00900985 -0.00570693 0.00275991
C 6.84711545 11.64876232 0.44614504 0.00831957 0.00289291 0.00366674
C 9.46687733 16.15600456 5.30546864 -0.00263563 -0.00227041 0.00140218
C 3.24709271 17.38098500 5.58928956 0.00026864 0.00038585 -0.00086702
C 0.30199967 12.38461422 0.50809084 -0.00277080 -0.00512791 -0.00450332
C 5.84729126 12.51775296 0.00936160 0.00079336 -0.00308691 -0.00098006
C -2.48237778 17.16942857 6.05761339 -0.00556112 -0.00092839 -0.00169362
C 4.15935002 16.45376690 6.00902602 0.00355781 -0.00674421 0.00095540
C 12.35284026 11.21978200 0.20637419 -0.00038717 0.00122253 -0.00040733
C 2.00882198 14.71993407 3.60465708 0.00731753 0.00094792 -0.00029061
C 1.58153491 9.79254051 2.63665918 0.00064173 0.00085843 -0.00181941
C 8.07359367 13.93819594 2.48079465 -0.00542046 0.00098036 -0.00136080
C 8.21535686 18.78996397 3.39304245 -0.00748093 0.00185469 0.00428383
C 0.82668774 15.65748397 3.39339415 -0.00360937 -0.00335523 -0.00358137
C 2.73467962 10.65080066 2.78057081 0.00261401 0.00177581 -0.00095303
C 9.36331788 13.16371206 2.72629475 -0.00040376 0.00022777 -0.00999561
C 6.94821944 17.93677353 3.18675884 0.00003789 0.00889008 0.00068307
C 0.14422823 13.36621428 11.29413738 0.00133480 -0.00629917 -0.00605626
C -2.76057685 18.01069423 7.13422641 0.00513621 0.00447309 0.00234558
C 3.93459251 15.59330921 7.05300096 -0.00388155 0.00671269 -0.00719575
C 6.78143358 10.49960989 11.38689380 -0.00116560 0.00608859 0.00013465
C 1.34201099 13.19174091 10.59172127 -0.00294286 0.00274799 0.00221367
C 9.09400068 17.67188124 7.67913824 -0.00485459 0.00304356 0.00502581
C 2.72389980 15.68966380 7.75725169 0.00475047 -0.00045139 0.00030865
C 33.94593407 10.77801864 10.47012265 0.00095367 -0.00274088 -0.00292702
C 2.37515505 12.37202597 11.06695651 -0.00449965 -0.00695586 -0.00131960
C 8.06533080 16.92383884 7.17028034 0.00168267 0.00127679 -0.00543424
C 1.78139175 16.59768777 7.38017601 0.00730086 0.00318182 -0.00010221
C -4.17706727 11.62091909 10.87108770 0.00320181 -0.00239165 -0.00220983
C 2.18570216 11.64599865 12.18372088 0.00129084 0.00920352 0.00355291
C 8.28696909 16.09117804 6.02508609 0.00487207 0.00391413 0.00559888
C 1.97863378 17.42280903 6.21117156 -0.00275444 0.00038381 -0.00449056
C -4.29098288 12.26743875 12.16382087 -0.00144793 -0.00440117 -0.00502668
C 3.87716013 11.51249399 6.65883036 -0.00309739 -0.00495234 0.00070703
C 6.76047597 16.45342552 11.46386318 0.00035861 -0.00847697 0.00105070
C 0.34596297 17.28699125 11.73342540 0.00218714 -0.00544328 0.00206131
C -2.68850308 12.20587370 6.60741452 0.00069498 -0.00651961 -0.00105652
C 3.05575303 12.50838255 6.29512881 -0.00050328 0.00115843 0.00232218
C -5.43191460 17.04702043 12.17906389 -0.00174351 -0.00350588 -0.00199415
C 1.26143716 16.28781383 11.98917086 0.00662770 -0.00391388 0.00133730
C 9.56108995 11.34621616 6.28996774 0.00776377 -0.00347595 -0.00362284
C -1.05291518 14.64359130 9.65717583 0.00235831 0.00678660 0.00649731
C -1.34412114 9.96442511 8.68867180 -0.00597059 0.00895947 0.00310214
C 5.12365126 13.98556371 8.51101562 -0.00103726 -0.00577470 0.00120622
C 5.30176498 19.04822056 9.60060243 -0.00288417 0.00495744 -0.00556118
C -2.27283138 15.50665823 9.36541056 0.00186442 -0.00065570 -0.00384955
C 0.02839826 10.67662060 8.86443937 -0.00530934 0.00136064 0.00039532
C 6.40819149 13.21358980 8.65175721 -0.00741419 -0.00092643 0.00538813
C 4.02891266 18.21647304 9.38386755 0.01159307 -0.00045437 -0.00199027
C -2.91723827 13.36911374 17.31618200 -0.00264822 -0.00238560 0.00481399
C -5.68129191 17.86731508 13.26424882 -0.00710387 0.00218125 -0.00314576
C 1.10521673 15.54186362 13.18419847 -0.00273407 -0.00062908 0.00934437
C 3.57437357 10.66927389 17.36368166 0.00870785 0.00386027 0.00206298
C -1.69097811 13.25346683 16.69895882 0.00741379 -0.00879732 -0.00456600
C 6.39641399 17.89066058 13.72410283 -0.00801774 0.00227186 -0.00228551
C -0.06985908 15.61451921 13.92754980 0.00006780 -0.00170105 0.00337086
C -8.04937589 10.71792938 16.80343055 -0.00410530 0.00122274 0.00467744
C -0.70947574 12.40725851 17.18812584 -0.00456460 0.00304619 -0.00843670
C 5.36346830 17.15030004 13.23029486 -0.00641443 0.00344197 -0.00317221
C -1.08720569 16.35736951 13.39804726 0.00057101 0.00018901 0.00527285
C -6.98141802 11.48443244 17.22875882 -0.00658130 -0.00440590 -0.00796250
C -0.89776269 11.64571922 18.33798402 -0.00545194 0.00849083 -0.00261850
C 5.53130426 16.38908542 12.09272572 -0.00193272 -0.00053580 0.00050921
C -0.88324140 17.33149366 12.40785761 -0.00205698 -0.00491491 0.00558283
C -7.04443809 12.21589576 18.35245392 0.00044924 0.00291994 0.00269806
C 0.97336081 11.72852624 12.82965894 -0.00057282 -0.00061885 0.00092550
C 3.67584145 16.37734587 17.45797343 0.00115051 -0.00030207 0.00078539
C -2.94916849 16.86004121 17.75683737 -0.00690199 -0.00120601 -0.00724797
C -5.53236672 12.23682311 12.89844605 -0.00153335 0.00101763 -0.00000206
C -0.01604333 12.64147095 12.47028407 -0.00016376 0.00124931 -0.00188439
C -8.33729381 16.95420538 18.35703445 0.00906796 -0.00031418 0.00027709
C -1.84178268 16.24891964 18.28441697 -0.00425839 0.00097436 -0.00660630
C 6.57301121 11.27844402 12.49828856 0.00112137 0.00178021 -0.00045345
C -4.32683057 14.56649639 15.74901371 0.00960169 0.00011020 0.00009976
C -4.22924410 9.73460461 14.81476576 0.00525669 0.00458777 0.00373895
C 2.36212845 14.14004169 14.57996158 -0.00062656 0.00541717 -0.00661588
C 2.12889994 19.00506612 15.78701495 0.00298427 0.00086057 -0.00364026
C -5.75942141 14.93561770 15.44830163 -0.00214385 -0.00107632 -0.00351773
C -3.03663693 10.64986049 14.92345552 0.00287737 -0.00051019 -0.00627434
C 3.47781223 13.17739211 14.64683729 -0.00338142 -0.00502254 -0.00385165
C 0.84389646 18.19965753 15.73630745 0.00540060 -0.00388732 -0.00273936
C -6.01288543 13.29625508 23.30081371 -0.00142743 -0.00648371 -0.00306140
C -8.64449871 18.00544358 19.22528435 -0.00211936 -0.00012769 0.00355348
C -1.97810842 15.50850958 19.46551885 0.00900735 0.00469746 -0.00031690
C 0.43949008 10.41319510 23.54238028 0.00579420 0.00065277 -0.00019138
C -4.73517787 13.32449519 22.73558669 0.00113329 -0.01088416 0.00251653
C 3.08100997 18.03011259 19.70089914 -0.00399596 0.00220844 -0.00447747
C -3.18552384 15.56588870 20.12833570 0.00024261 0.00186319 0.00496186
C 27.92141495 10.94439015 22.60594028 0.00113196 0.00399288 0.00361630
C -3.76625676 12.44018026 23.10439780 -0.00127078 0.00398709 -0.00359729
C 2.24483837 16.98218145 19.31848865 -0.00287688 0.00261103 -0.01201268
C -4.24365980 16.30725501 19.66380067 -0.00212507 0.00799852 -0.00427645
C -10.33481246 11.83832972 23.11178034 -0.00337664 0.00366957 0.00123397
C -3.98674013 11.50235152 24.17416417 -0.00497336 0.00691638 0.00502836
C 2.48470822 16.17813743 18.20508257 -0.00650214 -0.01012859 -0.00014976
C -4.12459535 17.00402759 18.45144903 0.00023331 -0.00020301 -0.00290997
C -10.44497253 12.45330535 24.37792902 -0.00254964 -0.00206438 0.00929367
C -2.09695726 11.81482698 19.06340778 0.00010150 -0.00381660 -0.00306243
C 0.76271469 16.19529919 23.99538256 -0.00730413 -0.00726456 0.00941438
C -5.73545328 17.23794933 23.98274200 0.00092959 -0.00117743 -0.00572774
C -8.30147412 12.34290863 18.98380003 -0.00396191 -0.00381824 -0.00159166
C -3.12000203 12.52492454 18.50743162 -0.00264212 -0.00428820 -0.00297924
C -11.50084405 17.15492466 24.18329314 -0.00356472 0.00411765 0.00214604
C -4.78816470 16.29937750 24.26166096 -0.00033547 0.00705938 0.00363924
C 3.36450674 11.63311003 18.38911815 0.00416263 -0.00797762 0.00513005
C -7.02386091 14.84083589 21.73842683 -0.00028239 -0.00628121 -0.00329431
C -7.55714396 9.85159308 20.90047326 -0.00364515 -0.00129604 -0.00106889
C -0.85614427 14.01174451 20.96228582 -0.00145268 -0.00236233 -0.00494757
C -0.30911495 18.58394044 21.85701244 -0.00210930 -0.00643975 -0.00034188
C -8.13545388 15.92838667 21.39530098 -0.00587870 -0.00142046 0.00323503
C -6.31583263 10.62267340 21.16676282 -0.00681793 -0.00182006 0.00610384
C 0.12322237 12.94075032 21.17145942 -0.00691792 -0.00121094 -0.00034159
C -1.63638437 17.78988281 21.66108129 -0.00628842 -0.00107414 -0.00330485
C 2.98973963 22.84269312 4.94996311 -0.01224580 -0.00508652 -0.00779212
C 0.57364383 27.55708639 1.01786060 0.00304918 -0.00063716 0.00141141
C 7.03009057 24.92259792 0.88761587 0.01275897 0.00612496 0.00389479
C 9.55191144 20.09088445 4.97958087 0.00683972 0.00086546 -0.00425783
C 4.11126053 22.75332423 4.17801017 -0.00812700 -0.00345460 0.00264286
C 12.22493665 27.34679099 1.84657355 -0.00104118 -0.00545511 -0.00066071
C 5.79138280 24.98458317 1.58314504 -0.00238686 0.00316533 0.00411021
C -2.18496287 20.19363958 4.56272825 -0.00205332 0.00374971 0.00189467
C 5.10373192 21.96354220 4.64780454 0.00412594 0.00031746 -0.00388112
C 11.20670643 26.51747897 1.39850924 -0.00829589 -0.00128898 0.00029080
C 4.79351564 25.76254856 1.11662679 -0.00768078 -0.00266131 0.00646275
C -1.15037206 20.93557010 5.03565119 0.00603866 -0.00133690 -0.00257960
C 5.00734790 21.16581682 5.82420353 0.00088424 0.00650642 -0.00713825
C 11.32506188 25.85559718 0.17366477 0.00545648 -0.00226417 0.00332812
C 4.96648960 26.67844131 0.07958230 0.00402864 0.00424259 0.00409806
C -1.34136784 21.83027874 6.08663634 -0.00039580 0.00125616 -0.00210796
C 6.95241503 21.04362478 0.46317958 0.00269936 -0.00578474 -0.00288035
C 9.54990169 25.80530945 5.76682880 0.00285997 0.00204758 0.00152911
C 3.05166535 26.55802980 5.39702841 -0.00258321 0.00770401 -0.00002668
C 0.34582923 21.77377931 0.71583607 0.00295441 0.00254769 -0.00325885
C 6.01180395 21.99972435 0.12006695 0.00347597 -0.00286665 -0.00393939
C -2.46372217 27.13405079 5.80926579 0.00824406 -0.00238996 0.00316492
C 4.09262508 25.80862336 5.94447969 -0.00370614 0.01043674 -0.00451247
C 12.67102738 20.84681156 0.12080429 0.00538583 0.00822427 -0.00255882
C 1.72459086 24.23373352 3.52082412 -0.00111087 0.00179635 -0.00043115
C 1.62797429 19.41388285 2.59983070 -0.00026980 0.00555432 -0.00265749
C 8.20614406 23.71152330 2.55080673 0.00608915 -0.00591426 -0.01146214
C 8.51474319 28.15447761 3.64234694 -0.00584893 -0.00461806 0.00290461
C 0.47731041 25.02185173 3.33903916 -0.00203023 0.00858674 0.01538677
C 2.82855751 20.29287325 2.74814143 0.00544798 0.00855787 0.00069544
C 9.39912880 22.88432416 2.77814691 -0.00311842 0.00830105 -0.00192323
C 7.23810695 27.31650434 3.48124014 0.00109691 0.00097606 -0.00389372
C 0.10480505 23.08354402 11.32394223 0.00237915 0.00034766 -0.00116539
C -2.65395617 27.74404205 7.01223116 -0.00526293 -0.00338936 0.00003634
C 3.87009809 24.99114637 7.01180363 0.00241298 -0.00584274 0.00170599
C 6.65687937 20.18154633 11.24248303 0.00250073 0.00023650 -0.00694681
C 1.24214096 22.88959095 10.55515446 -0.00197405 -0.00356132 0.00008639
C 8.99232268 27.61769043 7.77013299 0.00325888 -0.00104768 0.00496495
C 2.66378798 25.08971488 7.69378527 -0.00215273 0.00030477 -0.00495488
C -5.11365573 20.25717123 10.70508341 0.00410760 0.00119055 0.00850647
C 2.09115015 21.88906721 10.85540277 0.00118372 0.00658991 -0.00256031
C 7.99962383 26.75027023 7.35543145 0.00735374 0.00880788 -0.00040869
C 1.66603765 25.94972535 7.30269303 -0.00024945 0.00953978 -0.00641133
C -4.17778410 21.26781409 10.92774871 -0.00087659 0.00123947 -0.00317226
C 1.83218229 21.00696548 11.93446957 -0.00714451 0.00435207 0.00353711
C 8.29624096 25.85256392 6.29724743 0.00170961 0.00541946 -0.00122145
C 1.77753458 26.68815626 6.09995154 0.00100532 -0.00639200 0.00571951
C -4.31852339 22.16633215 11.99326322 0.01122830 0.00085334 0.00056282
C 3.83050905 21.30739119 6.63260090 0.00048912 -0.00439712 0.00263868
C 6.63813137 25.92411584 11.65943170 -0.00699133 -0.00096155 0.00729833
C 0.28750743 27.13446652 11.92975937 0.00469661 0.00234360 -0.00135731
C -2.58631498 21.79357452 6.79184754 -0.00290152 -0.00021805 0.00208492
C 2.85384492 22.12935811 6.12185563 0.00136368 0.00095623 -0.00726307
C -5.28137439 26.72363838 11.99246792 -0.00075587 0.00280733 -0.00526132
C 1.17919059 26.11458446 12.28239551 -0.00314338 -0.00054702 -0.00201871
C 9.29251889 20.96406647 6.12042573 0.00807169 0.00130578 -0.00085565
C -1.01555151 24.49727333 9.67546163 0.00036818 -0.00165195 0.00810948
C -1.46222406 19.41849306 8.69667533 -0.00255537 0.00480544 0.00050527
C 5.12410177 23.61869762 8.66476965 0.00573346 0.00410798 0.00589755
C 5.30276235 28.37459907 9.62933993 -0.00083453 0.00119196 0.00584278
C -2.01673215 25.67745526 9.52914817 0.00292386 -0.00388606 0.00067545
C -0.20892531 20.25916039 8.78879347 -0.00027455 -0.00334742 0.00127989
C 6.52236661 23.05418131 8.92333475 0.00341317 0.00781291 0.00284636
C 4.18833551 27.46202214 9.28033410 -0.00151964 0.00495188 -0.00325968
C -3.00018109 22.55021568 17.31879119 0.00086200 -0.00645646 -0.00120565
C -5.49959464 27.59027220 13.10375435 0.00172133 -0.00646300 0.00430275
C 0.88097989 25.20621868 13.29721790 0.00234452 -0.00484354 0.00603048
C 3.43307022 20.39637421 17.34552780 0.00065622 -0.00298172 -0.00725512
C -1.89794882 22.43395107 16.54260509 0.00095927 -0.00242241 -0.00495477
C 6.27249014 27.46221796 13.83220832 0.00514860 -0.00112129 0.00214877
C -0.40609470 25.30776154 13.85265122 -0.00557678 -0.00241538 0.00744276
C 30.65988693 20.23671404 16.67455410 0.00442490 0.00336548 0.00123673
C -0.80198044 21.66218267 16.97046129 -0.00019190 0.00471398 0.00640211
C 5.32639177 26.47223330 13.48762488 -0.00831407 -0.00567523 -0.00071457
C -1.26191975 26.30848978 13.57139010 0.00151388 -0.00028539 -0.00268425
C -7.47861626 21.04851602 17.04796405 -0.00392649 -0.00454243 0.00214357
C -0.86804626 20.93909515 18.16076561 -0.00259429 -0.00085332 0.00221655
C 5.57073146 25.66726101 12.44284468 0.00153193 0.00259263 -0.00958705
C -0.94579480 27.25130634 12.54823524 -0.00289016 -0.00549048 -0.00243516
C -7.54162244 21.83617018 18.18469562 0.01113299 -0.00221863 0.00492933
C 0.63126254 21.21501606 12.65659524 -0.00258125 -0.00150943 0.00064531
C 3.61022324 25.61370285 18.01077890 0.00474131 -0.00483364 -0.00134394
C -2.57127101 26.64873671 17.92780556 -0.00061452 -0.00186276 0.00295133
C -5.58661586 22.20757063 12.60874037 -0.00272940 -0.00321439 0.00071385
C -0.23456210 22.22963410 12.33264263 0.00409814 -0.00497430 -0.00022003
C -8.27221675 26.52509583 18.23189387 0.00311543 0.00109144 -0.00699135
C -1.85084346 25.51760405 18.20496089 -0.00988639 0.00395971 0.00245853
C 6.55341380 20.90540266 12.41763289 0.00524951 0.00692291 0.00928678
C -4.11207408 24.09288879 15.80573526 -0.00067280 0.00601707 0.00095495
C -4.40733035 19.20048741 14.79604942 -0.00117074 0.00288960 0.00207839
C 1.94241459 23.74558469 14.91485219 0.00103426 -0.00440534 0.00012252
C 2.37804629 28.12276019 16.09414149 -0.00460477 -0.00370604 0.00431243
C -5.26096401 25.00085552 15.73941215 -0.00455066 0.00361466 0.00967198
C -3.19750976 20.09137748 14.92276797 -0.00705614 0.00536977 -0.00415415
C 3.11203352 22.89752477 15.19418772 -0.01242908 0.00246378 0.00760710
C 1.21965085 27.22692890 15.84344090 0.00433473 0.00355103 -0.00223521
C -5.96715729 22.82343789 23.42747201 0.00192280 -0.00279260 -0.00657343
C -8.43426077 27.40656407 19.35575902 -0.00017685 0.00045888 0.00423528
C -2.19459861 24.70386825 19.31674063 -0.00289774 -0.00523826 -0.00324410
C 0.88315965 20.01364231 23.46835242 0.00544074 -0.00128561 -0.00225909
C -4.73514063 22.79279644 22.75580014 -0.00752755 0.00825178 -0.00213863
C 3.26864666 27.33887783 20.19328843 -0.00767345 -0.00109620 0.00032003
C -3.40546138 24.86378032 19.93001994 0.00059901 0.00354617 0.00380510
C 27.87946616 20.20327628 22.87467630 -0.00004329 0.00513160 -0.00269255
C -3.82738341 21.80450589 22.94324806 -0.00001922 0.00164968 -0.00552369
C 2.22653162 26.49538333 19.84737277 0.00461344 -0.00284528 -0.00447133
C -4.35051070 25.78010096 19.39117991 -0.00634979 0.00485620 0.00404569
C -10.23013361 20.95373654 23.46669504 -0.00300925 -0.00280378 -0.00252779
C -3.95352381 20.92344616 24.08320528 0.00731411 0.00893809 0.00299614
C 2.40807928 25.64280859 18.72968806 -0.00496206 0.00062894 0.00070819
C -3.85359093 26.77481764 18.45611661 -0.00172540 0.00767388 0.00361942
C 1.53589795 21.90336630 0.02351125 0.00050496 0.00212925 0.00335759
C -2.17574941 20.80609047 18.71526200 -0.00353961 -0.00002479 0.00215714
C 0.60840630 25.73821952 23.98711648 -0.00241367 0.00296697 0.00325022
C -5.81841553 26.67194968 23.92137870 -0.00858180 -0.00616763 0.00093487
C -8.71521748 21.73055756 19.02459272 -0.00144185 -0.00005728 0.00048192
C -3.16550851 21.67341854 18.38849292 -0.00166931 -0.00861023 -0.00425207
C -11.39341455 26.83316013 24.25944247 0.00426056 -0.00296091 0.00743302
C -4.84806037 25.78927046 24.22677403 -0.00398625 0.00119002 0.00284119
C 3.34970453 21.28617350 18.48238178 -0.00107646 -0.00075066 -0.00196657
C -7.51244655 23.98607674 21.95151692 0.00575444 -0.00126902 -0.00183273
C -7.38020607 19.23583254 20.92926641 -0.00687210 0.01019752 0.00305810
C -1.03555659 23.56046323 21.04940657 0.00546376 0.00424045 0.00380852
C -0.69917353 28.26987269 21.80658002 -0.00296466 -0.00270956 0.00007444
C -8.89851959 24.66181864 21.92580756 0.00325413 0.00318624 -0.00854797
C -6.00947150 19.90298218 21.03800200 -0.00187760 0.00907014 0.00070340
C 0.35059797 22.98562122 21.43856701 0.00711998 0.00256621 0.00323917
C -1.78414881 27.31247354 21.47836976 -0.00428231 0.00416675 -0.00151124
C 16.09552133 3.60313840 5.00455865 -0.00115633 0.00012913 -0.01327829
C 13.54909684 8.22424664 1.00130668 0.00145422 0.00133803 0.00247427
C 20.06688772 5.86344834 1.14800485 -0.00663475 -0.00069789 0.00004593
C 22.97611765 1.11852824 5.18045304 -0.00795273 -0.00120166 0.00524886
C 17.29909367 3.51998142 4.33213882 0.00155333 -0.00095461 -0.00021669
C 25.22938601 8.53439914 1.42615353 0.00424112 -0.00278200 -0.00170530
C 18.77874606 5.92295749 1.74025600 0.00433786 0.00140617 -0.00683670
C 10.84504192 1.03539056 4.58192871 -0.00785405 0.00394476 -0.00407680
C 18.27441062 2.71012838 4.84900513 -0.00064028 0.00015178 0.00305557
C 24.40496615 7.50560330 1.03268193 -0.00927746 -0.00191264 -0.00581228
C 17.89072006 6.80064293 1.27402229 -0.00733833 0.00515280 -0.00519046
C 11.76251098 1.97707713 4.93547849 -0.00594544 -0.00230979 -0.00136870
C 18.27872802 2.07854794 6.07175631 -0.00737758 0.00498109 0.00002045
C 12.56216000 6.79072701 24.26991399 -0.00281835 -0.01189108 0.00169661
C 18.18323468 7.67505014 0.21231513 0.00431071 -0.00044986 0.00086666
C 11.54639516 2.80529246 6.07041826 0.00659243 -0.00461007 0.00023372
C 19.71424371 2.19611742 0.60716480 0.00327460 -0.00108736 0.00709081
C 22.75114662 6.66696274 5.55182163 0.00325853 0.00676603 0.00362488
C 16.22900691 7.58807908 5.60215784 -0.00267957 0.00563160 -0.00443614
C 13.07013590 2.69138998 0.61912834 0.00957472 -0.00434656 -0.00430783
C 18.72069289 3.05035097 0.20385212 -0.00334289 -0.00646804 0.00490360
C 10.61522387 7.58938333 5.85991490 0.00014131 -0.00085708 0.00271873
C 17.13306262 6.63477404 5.84155251 0.00532134 -0.00118858 0.00241731
C 13.24626028 1.86783668 24.40166680 0.00647444 0.00579707 0.00465574
C 14.99360081 5.15168206 3.43046555 -0.00008298 -0.00504343 -0.00408329
C 14.56567866 0.14914835 2.70878485 -0.00026489 0.00911964 -0.00010218
C 21.05338729 4.30936274 2.72263682 -0.00421769 0.00000035 -0.00345404
C 21.67216864 9.27323420 3.44513858 -0.00287156 -0.00277449 0.00499983
C 13.69953829 5.87902533 3.20184710 -0.00413123 0.00104776 0.00343298
C 15.56681418 1.26657622 2.95325250 -0.00230652 0.00330622 0.00044725
C 22.13317129 3.24337969 2.83624400 0.00375216 0.00131947 0.00067568