2880
Time=28000.00000000 pbc="T T T" Lattice="39.23635726 0.00000000 0.00000000 0.00000000 28.82830642 0.00000000 -12.01414592 0.00000000 24.34552866" energy=-18399.30531943 virial="42.94504122 0.22873809 -69.94868465 0.22873809 16.29028154 0.14072684 -69.94868465 0.14072684 15.68612220" stress="0.00405455 0.00004283 -0.00258520 0.00004283 0.00324198 -0.00003656 -0.00258520 -0.00003656 0.00312840" Properties=species:S:1:pos:R:3:vel:R:3
C 3.29626757 3.40331947 4.95692076 0.00391185 -0.00159905 0.00267134
C 0.55410921 8.69103716 0.84490549 -0.00117382 0.00092331 -0.00046310
C 7.11759255 5.73334672 0.98776159 -0.00581784 0.00213212 0.00164777
C 9.60878202 0.98082447 5.07486114 -0.00168062 0.00434278 0.00502538
C 4.52234731 3.17226896 4.28992636 0.00399344 0.01137782 -0.00059995
C 12.37467869 8.42950955 1.64518424 0.00528301 -0.01049973 -0.00364731
C 5.96640485 5.97142581 1.70987331 0.00375643 -0.00086552 0.00216743
C 36.94799989 1.19970142 4.48193991 0.00446981 0.00101705 0.01034781
C 5.52498625 2.28382927 4.66478518 0.00270754 0.00089164 0.00594490
C 11.40049461 7.54136030 1.20604216 0.00220105 -0.00262059 -0.00123785
C 5.06231045 6.92222176 1.32500882 0.00513423 0.00334843 -0.00384858
C -1.28337784 2.04305114 4.85325397 -0.00190943 -0.00365878 0.00366967
C 5.38599617 1.53742850 5.91120278 -0.00247536 -0.00820008 -0.00230427
C 11.54026792 6.76088335 0.09287492 -0.00085292 -0.00404796 -0.00548447
C 5.25462193 7.77635091 0.19542633 -0.00117483 0.00634732 0.00363058
C -1.41472168 2.85898354 6.01880178 0.00776859 0.00165765 -0.00284119
C 6.95872480 1.66533732 0.61162381 0.01140142 0.00144504 -0.00284483
C 9.54457357 6.81153988 5.34169959 -0.00066605 0.00279799 0.00010937
C 3.34829372 7.50340873 5.53068018 0.00180664 -0.00217974 -0.00188974
C 0.30120948 2.56580557 0.67627516 -0.00495432 0.00662035 -0.00288036
C 6.00231693 2.58071132 0.18349926 -0.00225034 0.00090702 0.00322937
C -2.14768245 7.56308444 5.96516271 0.00086231 0.00779236 0.00207595
C 4.23384242 6.52851487 5.84712573 0.00666323 -0.00034729 0.00248981
C 12.42195750 1.80840802 0.13767254 0.00194004 -0.00360308 -0.00838950
C 2.18054221 4.88378322 3.41881468 0.00263560 0.00274755 -0.00769360
C 1.62235144 0.21092316 2.43512759 0.00845069 0.00263885 0.00125778
C 8.13320920 4.14561802 2.56823169 -0.00033810 0.00708502 -0.00066497
C 8.36092533 9.58628434 3.50617168 0.00306050 -0.00162568 -0.00587309
C 0.97368717 5.83072170 3.36687744 -0.00192394 -0.00296158 0.00073931
C 2.73233509 1.23255400 2.69443746 -0.00817368 0.00173797 -0.00113269
C 9.43259447 3.42805765 2.86915903 -0.00101556 -0.00448670 0.00209170
C 7.10189659 8.75053477 3.40877948 -0.00334064 0.00594660 -0.00251552
C 0.31699889 3.71711924 11.33098279 0.00345480 -0.00182189 0.00270365
C -2.35497507 8.44447443 6.98955477 0.00618477 -0.00373402 0.00182014
C 4.04448155 5.75448928 7.01440246 0.00135011 -0.00834368 -0.00225175
C 6.71635070 1.07051552 11.27508837 -0.00090870 -0.00747711 -0.00358236
C 1.45631536 3.62858628 10.52368554 0.00009159 0.00393620 0.00216667
C 9.21623971 8.22497004 7.70998878 -0.00407574 -0.00213390 -0.00191304
C 2.75925027 5.91239688 7.72331126 -0.00287290 -0.00133493 0.00220678
C 33.87611797 1.32164476 10.47834293 -0.00097069 0.00067230 0.00219469
C 2.47998888 2.76243458 10.97392432 0.00427797 -0.00030519 -0.00572271
C 8.12469313 7.55009762 7.18836449 0.00413378 -0.00433332 0.00119739
C 1.89345233 6.92124289 7.32940485 -0.00123423 0.00216919 0.00466133
C -4.30045471 2.03398111 10.88100945 -0.00992135 0.00406673 -0.00292392
C 2.38045036 1.99521405 12.17189139 0.00251902 -0.00523206 0.00839948
C 8.27549551 6.73448324 6.04999405 -0.00295609 -0.00205460 -0.00064085
C 2.14614784 7.74270038 6.26038734 -0.00274995 0.00129842 -0.00186825
C -4.37773928 2.76772796 12.05678315 -0.00944695 -0.00413789 -0.00338902
C 4.17565072 1.75305196 6.64453725 0.00059033 -0.00281367 0.00738204
C 6.48136277 6.80009724 11.31807528 -0.00375326 0.00205701 -0.00225501
C 0.22808662 7.72662999 11.88798119 -0.00237971 0.00045776 0.00538303
C -2.60669703 2.73023396 6.71412699 0.00149561 -0.00781664 -0.00297274
C 3.19815492 2.63052382 6.17544380 0.00012488 -0.00517377 -0.00224604
C -5.40379542 7.70502274 11.81630578 -0.00538610 -0.00236418 -0.00101579
C 1.24014258 6.82077443 12.21656872 -0.00167487 0.00471106 -0.00166925
C 9.44104177 1.69276264 6.23317021 -0.00110786 0.00034546 0.00314842
C -1.01005983 5.07371354 9.82568517 0.00139523 0.00667878 -0.00797274
C -1.44618477 0.29520677 8.71565705 0.00700705 -0.00667470 0.00419227
C 4.98788634 4.23474936 8.58564803 0.00239082 0.00482687 -0.00011352
C 5.41592809 9.20199149 9.67384242 -0.00982226 0.00514731 0.00022139
C -2.08908939 6.05957184 9.79618650 0.00122238 -0.01012693 0.00077533
C -0.11519231 1.06694563 8.90772472 -0.00273521 0.00254903 0.00058133
C 6.22959713 3.45619858 8.81251676 -0.00495147 -0.00165786 -0.00101059
C 4.13089926 8.35149111 9.49280556 -0.00275770 -0.00316401 -0.00682552
C -2.68730447 3.86948131 17.43327339 0.00191084 0.00579953 -0.00039771
C -5.56005706 8.39700326 13.05204375 0.00126475 -0.00296435 -0.00231273
C 1.05002441 5.91157944 13.24950557 -0.00499330 0.00384592 0.00252177
C 3.58713273 1.01712978 17.26539614 0.00158080 0.00626259 0.00093653
C -1.56857350 3.74758317 16.67784727 -0.00409178 -0.00017939 -0.01107937
C 6.11610651 8.49015552 13.55489457 -0.00305833 0.00538369 -0.00206185
C -0.21662200 5.85122577 13.86710252 -0.00606517 -0.00266730 -0.00301425
C -7.98427187 1.41589702 16.72833443 -0.00418414 -0.00089178 0.00105365
C -0.59506179 2.86629711 17.11478126 0.00489850 0.00179854 0.00201270
C 5.17570943 7.54364570 13.20081081 -0.00206235 0.00400830 0.00495204
C -1.18304972 6.72316226 13.62042111 0.00014911 0.00073126 0.00138092
C -7.02093446 2.16098212 17.32659015 -0.00428882 -0.00118403 0.00439941
C -0.64888940 2.09663788 18.30147938 -0.00653856 -0.00344144 -0.00012112
C 5.31784344 6.73004985 12.07979818 -0.00421464 -0.00572475 -0.00490267
C -1.04429070 7.62003752 12.48053829 0.00138191 -0.00120800 -0.00446233
C -7.23293936 3.04767820 18.41352309 -0.00196287 -0.00321538 -0.00563241
C 1.12804082 2.11777893 12.89236987 0.00433952 -0.00219897 -0.00163020
C 3.76633942 6.69681493 17.72132459 -0.00670437 -0.00165143 0.00041918
C -2.63157116 7.56976256 17.57571802 -0.00355975 0.00149159 -0.00019311
C -5.63823605 2.80809581 12.70829955 -0.00147297 0.00104535 -0.00185232
C 0.09312500 2.86429944 12.37950310 -0.00158450 0.00319082 -0.00064470
C -8.24405033 7.59659974 17.98110915 0.00609071 0.00411353 -0.00261644
C -1.60352302 6.82843026 18.12430249 0.00845298 0.00842797 0.00102511
C 6.43543646 2.02840541 12.29122584 0.00124158 0.00224224 0.00118951
C -3.95912235 5.15030774 15.88185041 0.00131126 -0.00229686 0.00166771
C -4.56593752 0.32914087 14.84785448 -0.00468492 -0.00803660 0.00098894
C 2.22689365 4.46249200 14.78206928 -0.00545802 -0.00030864 -0.00544444
C 2.13396593 9.26558865 15.70811533 -0.00335704 -0.00520702 0.00676196
C -5.22596159 5.96117656 15.77398049 0.00006583 -0.00126109 -0.00162875
C -3.36010938 1.33351942 15.05335549 -0.00239332 0.00258678 0.00026962
C 3.56713826 3.84011402 15.01624249 0.00192217 0.00583273 -0.00020311
C 0.84815492 8.55819522 15.46309471 -0.00073711 0.00774324 -0.00767881
C -5.81238929 3.48880501 23.42644414 -0.00263371 0.00346606 0.00246158
C -8.34645497 8.48513485 19.08111027 0.00165493 0.00413376 0.00084168
C -1.76786821 6.02134789 19.28953573 -0.00488182 -0.00358224 -0.00014853
C 0.61706958 0.93912840 23.33865729 -0.00299711 -0.00409614 0.00402408
C -4.54660085 3.49255188 22.88777412 0.00435156 0.00015434 0.00294964
C 3.26235544 8.45783066 19.85116538 0.00443041 0.00138509 0.01016413
C -3.01576722 6.11698813 19.98125336 0.00619017 -0.00841566 -0.00860253
C 27.75311461 1.27380360 22.57901261 0.00181775 -0.00141816 0.00688997
C -3.59486263 2.68216243 23.38473794 -0.00111407 0.00313029 0.00276102
C 2.30516978 7.56540434 19.45222744 -0.00405697 -0.00082702 0.00264299
C -3.98340268 7.04986944 19.55246580 0.00095139 0.00885008 0.01070823
C -10.46731407 2.03569040 23.03066839 -0.00492890 0.00043769 -0.01113818
C 8.17950850 1.70808659 0.03954646 -0.00106625 0.00080941 -0.00104512
C 2.48112274 6.67356642 18.40758950 -0.00313220 0.00056132 0.00292872
C -3.86977771 7.72761743 18.30232851 -0.00224222 -0.00161184 0.00069083
C -10.54006228 2.65771960 24.28396774 0.00395804 -0.00066852 -0.00179789
C -1.94879595 2.13518199 18.94483656 0.00471069 0.00323238 0.01075618
C 0.81589664 6.66011144 23.87718756 -0.00276260 0.00144823 0.00138822
C -5.55919826 7.53581178 23.84117151 0.00439619 -0.00316628 -0.00034173
C -8.52030521 2.98051250 18.96649377 0.00119319 0.00491136 0.00370937
C -2.89607096 3.08987100 18.57436446 0.00841158 0.00231259 -0.01382751
C -11.18522759 7.84662634 24.15055298 -0.00701792 -0.00010798 -0.00046152
C -4.64023216 6.56278329 24.18192566 -0.00519036 -0.00018562 0.00288227
C 3.38068023 1.94039302 18.29257375 0.00271216 0.00440689 0.00062703
C -6.75561379 5.13585382 21.91557322 -0.00050051 0.00902772 -0.00181678
C -7.58105478 0.25082608 20.78110102 0.00446742 -0.00281697 0.00247039
C -0.77424024 4.54715650 20.99724572 -0.00641943 -0.00112553 -0.00082139
C -0.30403515 9.17633527 21.70439223 -0.00600675 0.00054695 0.00256613
C -7.76747552 6.20477335 21.83326696 -0.00206449 -0.00443247 0.00496430
C -6.22213270 1.05510388 20.92585686 0.00611880 -0.01048988 0.00402214
C 0.45547674 3.85251799 21.25207416 0.00295297 -0.00721101 0.00178819
C -1.51481267 8.24933920 21.63528241 -0.00286592 -0.00036457 -0.00386687
C 3.12757545 13.42054955 5.14823256 -0.00560123 0.00192071 -0.00829782
C 0.22497471 18.23209236 1.07483881 0.00838028 -0.00005092 -0.00354497
C 6.85770831 15.57936482 1.00594709 -0.00099050 -0.00576566 -0.00737799
C 9.65265699 10.89458109 5.11374165 -0.00228422 0.00121955 0.00144283
C 4.43020162 13.39749888 4.56701192 0.00190255 -0.00618064 -0.00120840
C 12.44173389 18.16120274 1.62448786 -0.00372646 0.00010910 0.00188225
C 5.68641608 15.73360073 1.77498600 0.00566189 0.00554458 0.00062720
C 36.89662063 10.68611259 4.25786456 -0.00245461 -0.00195987 -0.00011935
C 5.37126161 12.44190217 4.84324134 0.00279507 -0.00086868 0.00456688
C 11.46615196 17.30065713 1.20777929 -0.00809257 0.00568294 -0.00488721
C 4.70200105 16.61722180 1.41546427 -0.00687972 -0.00048848 -0.00511377
C -1.32712516 11.52880713 4.71684182 -0.00053123 -0.00325409 -0.00282006
C 5.09658010 11.52162902 5.91208418 -0.00423713 -0.00133225 0.00120798
C 11.56814869 16.54166783 0.02155102 0.00560725 -0.00554498 -0.00079572
C 4.72408457 17.32761710 0.17218653 -0.00153694 0.00707305 -0.00074675
C -1.56210486 12.46682126 5.76364893 -0.00170349 -0.01084952 0.00184973
C 7.06519144 11.56756341 0.43793943 0.00635737 -0.00562615 0.00053473
C 9.77475402 16.48770801 5.45041640 0.00064709 0.00169095 0.00699323
C 3.30531555 17.42268012 5.74564468 0.00724933 -0.00265682 -0.00103235
C 0.46412751 12.37828907 0.48014364 0.00084225 -0.00786298 -0.00246597
C 6.04330207 12.40558735 0.02016307 -0.00396334 0.00059794 -0.00325763
C -2.23801512 17.53367205 5.89871410 0.00946738 0.00108273 -0.00559159
C 4.16248225 16.43736715 6.00904541 0.00158623 -0.00219744 -0.00327753
C 12.72428847 11.52479798 0.01303533 -0.00129189 -0.00104590 0.00508148
C 1.81009059 14.73496910 3.47969128 -0.00288730 -0.00390109 -0.00366924
C 1.82915436 9.98074466 2.48478570 0.00023319 -0.00185699 0.00180954
C 8.04316046 14.22756484 2.60741206 -0.00199738 0.00282702 -0.00547764
C 8.32223470 19.05107171 3.56830308 0.00382942 -0.00051791 -0.00020934
C 0.60876144 15.63182849 3.43705118 0.00225077 0.00085772 0.00103395
C 2.97899250 10.90625100 2.66721648 -0.00471145 -0.00123450 -0.00869610
C 9.42080892 13.67110418 2.78981157 0.00343859 0.00325731 0.00299814
C 7.26026056 17.91822713 3.55495246 0.00154422 -0.00268186 0.00620734
C 0.11152362 13.34531359 11.13869504 -0.00341947 0.00440317 0.00543193
C -2.35609669 18.22566363 7.13704801 -0.00813035 0.00738111 -0.00354208
C 3.91027229 15.55062287 7.07830238 0.00555999 0.00262470 0.00438611
C 6.65157445 10.63757597 11.13578562 0.00103542 -0.00062136 0.00335080
C 1.30287875 13.21671063 10.40650100 0.00337701 -0.00744587 0.00000384
C 9.34141632 18.06196538 7.64853917 0.00963173 0.01046005 -0.00892387
C 2.69374701 15.53188247 7.73935699 0.00763197 0.00108476 -0.00272988
C 33.75207544 10.73163475 10.45330929 0.00139644 0.00106057 0.00145210
C 2.20463053 12.26829785 10.83240593 -0.00616699 -0.00171704 0.00859525
C 8.39512892 17.19303402 7.28358625 -0.00421668 0.00833267 0.00609564
C 1.74610992 16.37751021 7.31421830 0.00417860 0.00374465 0.00237800
C -4.57885551 11.68464333 10.71686159 -0.00570325 -0.00295373 -0.00021712
C 2.12426167 11.62439154 12.08579645 0.00054154 -0.00492847 0.00757656
C 8.51506284 16.49531046 6.05846378 -0.00100744 -0.00950029 0.00515045
C 2.07849639 17.36523372 6.34010791 0.00467507 -0.00059100 0.00200269
C -4.65426523 12.60739966 11.81270847 0.00309742 0.00302079 0.00037731
C 3.95059749 11.66844528 6.57832201 -0.00101676 0.00305127 -0.00143207
C 6.76396782 16.34184680 11.77015113 0.00275740 -0.00233921 0.00239065
C 0.03376290 17.32549520 11.77685876 0.00108545 0.00132212 0.00476144
C -2.70647981 12.23288466 6.56867737 0.00700123 -0.00279738 0.00233439
C 2.90567798 12.55961882 6.20386698 -0.01189981 0.00524259 -0.00060558
C -5.53800752 17.31436313 12.09051699 0.00480401 0.00336686 0.00400970
C 1.14029032 16.53081325 12.08693951 -0.00030977 0.00245036 -0.00680863
C 9.50008541 11.60738578 6.29674646 -0.00167309 -0.00141617 0.00245080
C -1.06644866 14.70615199 9.47112247 -0.00236005 -0.00316200 -0.00011050
C -1.19324140 9.72623754 8.72898087 -0.00171134 0.00983742 -0.00085518
C 5.01454576 14.10285132 8.57399653 0.00523702 0.00416634 0.00138122
C 5.36153215 18.89790833 9.49730898 0.00329225 -0.00175250 -0.00647496
C -2.03461100 15.84215027 9.25709771 -0.00071397 0.00470599 -0.00045452
C -0.01880626 10.62680765 8.91174195 0.00238526 0.00025372 -0.00857636
C 6.29211469 13.30758406 8.84725836 0.01294576 -0.00651409 0.00511526
C 4.10233626 18.09506235 9.28401190 -0.00144429 0.00117606 -0.00349444
C -2.95980600 13.40470479 17.15416025 0.00520433 -0.00219471 0.00020357
C -5.77956316 18.20704948 13.18050634 -0.00155843 -0.00738020 0.00503290
C 1.00556990 15.60824373 13.05977826 0.00049431 -0.00463978 -0.00310441
C 3.53970367 10.62996849 17.19539951 0.00456014 0.00488384 -0.00159554
C -1.63693726 13.49122496 16.64081402 0.00885999 0.00039137 0.00134414
C 6.33248324 18.17685471 13.84984834 -0.00126063 0.00612437 0.00336124
C -0.19265168 15.52822814 13.75796249 -0.00479915 0.00200070 -0.00046408
C -8.07620601 10.80576190 16.59679820 -0.00214722 0.00098778 -0.00164849
C -0.66421246 12.72559484 17.17549129 0.00033547 -0.00322794 -0.00672538
C 5.32261477 17.31261426 13.48973041 0.01052216 0.00095223 -0.00589141
C -1.25128001 16.22765666 13.38090990 0.00413357 -0.00305437 -0.00723992
C -7.17593979 11.70269466 17.04771129 0.00003883 -0.00171917 -0.00291115
C -0.96050213 11.79291851 18.26157526 -0.00295027 -0.00528157 -0.00147465
C 5.54576500 16.41059809 12.43958737 -0.00217754 0.00208540 0.00547722
C -1.22357681 17.19558492 12.37666947 -0.00670613 -0.00051296 0.00050713
C -7.42480453 12.53833624 18.19145059 0.00725508 0.00596420 -0.00057603
C 0.93409994 11.78852419 12.78077785 0.00084264 0.00137481 -0.00308769
C 3.74416707 16.29776876 17.42955332 -0.00535255 -0.00512774 -0.01356343
C -3.07290397 17.27356471 17.57654652 -0.00116981 0.00481097 -0.00296309
C -5.76835504 12.40944507 12.64586043 -0.00678653 0.00223580 -0.00001135
C -0.05585186 12.58102648 12.27086305 -0.00742334 -0.00631174 0.00077819
C -8.29254112 17.15402039 18.19612183 -0.00666730 0.00856287 -0.00337768
C -2.13023505 16.35122861 17.98266860 0.00248083 -0.00228537 -0.00639300
C 6.56605179 11.55228095 12.16459751 -0.00481209 0.00038602 0.00214186
C -4.18690684 14.49463892 15.36859007 0.00038952 -0.00298574 0.00062387
C -4.49340131 9.97925072 14.61801000 0.00329985 0.00048899 -0.00387281
C 2.30943110 14.10904990 14.51046677 0.00193339 0.00545335 -0.00456864
C 2.34328977 18.97245734 15.81948669 -0.00221017 -0.00037021 -0.00182817
C -5.34766449 15.44391848 15.09930860 -0.00049654 0.00135714 -0.00107888
C -3.32802076 10.93486449 14.69366992 0.00107699 0.00005551 -0.00584467
C 3.55186725 13.30981936 14.70817273 -0.00224941 0.00144861 0.00213720
C 1.07850393 18.11066347 15.72684890 -0.00576988 0.00076239 0.00229091
C -5.86111104 13.34699345 23.32778747 -0.00155776 0.00576957 0.00296722
C -8.53797040 18.14651937 19.21367004 0.00014573 -0.00557966 -0.00069453
C -2.18165377 15.64211272 19.10953167 -0.00208655 -0.00231068 0.00139350
C 0.83116985 10.71854910 23.25599485 -0.00282687 0.01041003 -0.00321339
C -4.64867411 13.33632643 22.63188249 -0.00052120 -0.00099393 0.00020737
C 3.28486519 17.80987541 19.78271729 -0.00542730 -0.00155389 0.00114482
C -3.28998256 15.87062277 19.94105064 0.00120540 -0.00376473 -0.00485515
C 28.10087817 10.77584152 22.53019014 -0.00572791 -0.00221802 -0.00352588
C -3.64703479 12.40485490 22.93792138 0.00044417 0.00879863 0.00186291
C 2.27374307 17.06747421 19.19630655 0.00037338 -0.00080996 0.00395590
C -4.28035297 16.73872980 19.52875887 0.00384481 -0.00895709 -0.00089854
C -10.22848894 11.78248623 22.88074692 -0.00390525 0.00343224 0.01009809
C -3.72328590 11.53120418 24.09603685 -0.00045141 0.00029735 -0.00365877
C 2.50778944 16.20100761 18.07861633 0.00059432 0.00234381 0.00575132
C -4.22724782 17.50588130 18.32213088 -0.00152986 -0.01017128 -0.00730758
C -10.41588810 12.61810035 24.04356781 0.00547111 0.00043503 -0.00217008
C -2.25136070 11.79094148 18.82691114 -0.00266182 0.00030239 0.00489186
C 0.82423461 16.59283574 23.77876224 0.00254080 0.00145833 -0.00173063
C -6.05486467 17.25160399 23.90243329 -0.00138337 -0.00394070 -0.00342702
C -8.68324813 12.42266705 18.77957484 -0.00381051 -0.00379650 0.00037100
C -3.18803430 12.64457959 18.29612666 -0.00928307 -0.00123694 -0.00340971
C 0.49802401 17.41113483 0.00267610 -0.00434508 -0.01250612 0.00014801
C -4.98764571 16.43599918 24.23795709 -0.00248555 -0.00131039 -0.00165230
C 3.34810538 11.63289196 18.21291010 0.00184836 -0.00316628 0.00323205
C -7.10379117 14.85144382 21.87207748 -0.00034525 0.00979378 -0.00474869
C -7.13414819 9.86030426 20.71522330 -0.00012363 -0.00285578 -0.00353770
C -0.85813818 14.31612145 20.70095713 -0.00392447 -0.00201908 0.00345072
C -0.44805598 18.99838276 21.72698851 0.00270245 0.00009258 -0.00519905
C -8.32024767 15.62292112 21.65527864 0.00015170 0.00299679 -0.00189532
C -6.09341363 10.92808726 20.97787454 -0.00237430 -0.00124452 -0.00080662
C 0.23711637 13.26883995 20.74082573 -0.00155499 0.00471890 0.00510528
C -1.66143277 18.24642673 21.57193958 0.00137294 -0.00387173 0.00381213
C 3.03376466 22.99590089 4.98410561 0.00314330 0.00421322 -0.00087082
C 0.44116878 27.70237743 0.76619428 0.00216323 -0.00514160 -0.00067025
C 6.88052618 25.17435382 0.86250443 -0.00293270 -0.00106199 -0.00543257
C 9.64616355 20.45837035 5.17460857 0.00078038 0.01173495 -0.00687057
C 4.21095925 22.82254131 4.28643921 -0.00566872 0.00656561 0.00174538
C 12.32252679 27.59566520 1.65765749 0.00384219 -0.00112711 0.00029427
C 5.66174418 25.23506522 1.56381083 0.00199580 -0.00309736 -0.00052654
C -2.10380254 20.53367121 4.61585474 -0.00108991 0.00333655 0.00331343
C 5.18907088 21.93506789 4.69199118 0.00427065 0.00505642 0.00629320
C 11.35368838 26.68970782 1.20669705 0.00327310 -0.00459127 -0.00242825
C 4.72737122 26.16938627 1.18499947 -0.00830729 -0.00315208 0.00836189
C -1.19335391 21.48358584 4.92688548 -0.00147580 -0.00371945 0.00975619
C 5.07607122 21.11116288 5.86356321 -0.00065063 -0.00035828 0.00224305
C 11.58389518 25.81941248 0.14827044 0.00310086 -0.00593914 -0.00262915
C 4.95044636 27.01091707 0.12466390 -0.00172993 0.00325208 -0.00184897
C -1.47097178 22.35950655 5.98418271 -0.00807996 -0.00653729 0.00121702
C 6.80677469 21.09392081 0.34218561 -0.00298587 0.00344332 0.00614847
C 9.59367047 25.73824629 5.77872427 -0.00340162 -0.00142567 0.00512466
C 3.13956652 26.83922213 5.45801876 -0.00238235 -0.00077690 0.00358641
C 0.46350568 22.09205866 0.50695952 -0.00112920 -0.00254058 -0.00039005
C -6.12114314 21.97422840 24.22007093 0.00565268 -0.00396751 -0.00102611
C -2.34691111 26.93818388 5.95129844 0.00438568 -0.01036729 -0.00169475
C 4.11918434 25.92143543 5.91306914 0.00009696 0.00863517 0.00090250
C 12.55451810 20.99667634 0.23064521 -0.00841448 -0.00395680 0.00022922
C 1.90284811 24.38260832 3.45247833 -0.00214135 -0.00605930 -0.00718094
C 1.27955549 19.54621111 2.72903014 0.00173712 -0.00279378 -0.00593997
C 8.03658271 23.69539501 2.45786613 0.00359493 0.00171481 0.00413065
C 8.67524172 28.22985214 3.53172414 -0.00007692 -0.00723587 -0.00195195
C 0.59647640 25.07403482 3.20691006 0.00642485 -0.00855898 0.00427269
C 2.43783547 20.51075167 3.02357681 -0.00988269 -0.00665440 -0.00126242
C 9.02397051 22.61834661 2.58047488 0.00233059 -0.00260618 -0.00189795
C 7.64656706 27.16306500 3.32992524 0.00100432 0.00247359 0.00208702
C 0.29016052 23.10058804 11.08279413 -0.00050014 0.00292892 -0.00587605
C -2.65616725 27.76297884 7.05595192 -0.01190816 0.00057783 -0.00010098
C 3.88748154 25.12136308 7.02065148 0.00634864 -0.00514347 0.00710839
C 6.55504629 20.16086909 11.10017712 -0.00582329 -0.00328291 -0.00219536
C 1.50541982 22.93493842 10.31898066 0.00212042 0.00002128 -0.00085801
C 9.29506520 27.43609030 7.93836033 -0.00473995 -0.00003621 0.00241253
C 2.62063057 25.18408075 7.59442258 -0.00062452 0.00706576 0.00030591
C 34.01640047 20.35188256 10.45578548 0.00149299 -0.00394603 -0.00087390
C 2.47670897 22.07668742 10.87447802 0.00182436 -0.00021132 0.00240367
C 8.25603641 26.51450655 7.55082235 -0.00525037 -0.00451989 0.00060701
C 1.71319669 26.11067183 7.13219584 -0.01081117 0.00998173 0.00165807
C -4.12735828 21.22712331 10.80648371 -0.00049922 0.00304696 0.00229913
C 2.21663945 21.29255023 12.02842758 -0.00406491 -0.00501576 -0.00083748
C 8.37664874 25.78205577 6.38740939 -0.00381863 0.00041532 0.00782601
C 1.89551126 26.93341928 6.02814570 -0.00781037 -0.00619179 -0.00247062
C -4.28894698 22.18158833 11.85371520 -0.00017992 -0.00346860 0.00029484
C 3.82067019 21.25848534 6.57588423 0.00386804 0.01356177 -0.00110638
C 6.88703659 25.95300574 11.69100060 0.00291958 -0.00845862 0.00279815
C 0.33205532 26.93247710 11.85523513 -0.00638395 -0.00205622 0.00214713
C -2.59523590 22.12776234 6.82366429 -0.00297615 -0.00351469 0.00246966
C 2.83649510 22.14418354 6.14920203 -0.00381100 -0.00862409 -0.00224501
C -5.42042080 27.09051750 11.96022323 0.00802580 -0.00412879 -0.00029007
C 1.23555361 25.92288078 12.13123683 -0.00349258 0.00480638 -0.00583391
C 9.57048183 21.23820888 6.38123255 -0.00286533 0.00273768 -0.00088231
C -1.05901341 24.36505837 9.50978390 -0.00486158 0.00333261 0.00804967
C -1.34832618 19.51433576 8.84196479 0.00337747 -0.00000327 -0.00826427
C 5.13553941 23.54949323 8.54592735 -0.00125337 0.00130044 0.00904521
C 5.58259128 28.32390503 9.80128727 -0.00099319 -0.00365628 -0.00371593
C -2.46321338 24.84495583 9.28377843 0.00276988 -0.00118592 0.00633128
C -0.28906688 20.51553333 9.09851350 0.00099622 -0.00157021 -0.00539099
C 6.21679957 22.50452185 8.49745962 0.00975553 -0.00118094 0.00408520
C 4.52609226 27.37052470 9.51203972 0.00109517 -0.00130728 0.00572553
C -2.79120312 22.87805672 17.16637350 -0.00606647 0.00031765 -0.00035314
C -5.55685587 27.69548685 13.23130141 0.00495507 -0.00206552 -0.00638507
C 1.03329552 25.03625912 13.18067099 -0.00004944 -0.00564568 0.00010226
C 3.69272314 20.26850337 17.34333135 -0.00124663 0.01304386 -0.00277294
C -1.62212518 22.70493308 16.50394944 -0.00787502 0.00151204 0.00029195
C 6.30401575 27.40746220 13.96520302 -0.00218431 0.00541874 0.00128971
C -0.19255436 25.07939713 13.84773796 0.00009657 0.00103313 0.00250470
C -8.12761476 20.41677292 16.65124026 -0.01165487 -0.00134162 0.00073585
C -0.80408033 21.71744214 16.97641351 0.00011710 0.00364050 -0.00128665
C 5.32086763 26.67942119 13.39591452 0.00318066 -0.00328222 -0.01011030
C -1.08990511 26.11701112 13.60667393 -0.00203074 0.00542629 0.00498340
C -7.13145615 21.32665715 16.97638226 -0.00374050 0.00199245 -0.00286559
C -0.88209846 21.13140771 18.23991608 0.00430787 -0.00279857 0.00960018
C 5.60355355 25.75770683 12.33306350 -0.00064662 0.00713934 -0.00473030
C -0.87574872 27.02852066 12.54992306 0.00003164 0.00061358 -0.00052831
C -7.29375210 22.22532588 18.13686312 -0.00128917 0.00192461 0.00170262
C 0.97848856 21.39426912 12.67602229 0.00087791 -0.00551812 -0.00312936
C 3.63211358 26.04986857 17.64747115 0.00080159 0.00803943 0.00297941
C -2.60372275 27.02440024 17.73486080 0.00057675 0.01068216 0.00359463
C -5.53990976 22.26634443 12.47905458 -0.00214725 0.00329403 -0.00017810
C 0.09688411 22.33884281 12.21994762 -0.00428777 0.00568594 -0.00069118
C -8.60448119 26.72930032 18.07713682 -0.00761918 0.00365924 0.00040104
C -1.62151434 26.16797852 18.24586727 -0.00619652 0.00635624 0.00404764
C 6.33511111 21.00947708 12.21401970 0.00404240 0.00216348 -0.00148521
C -4.04392297 24.19159020 15.63855176 0.00078988 -0.00642977 0.00194310
C -4.52243319 19.65763326 14.60834643 -0.00133207 -0.00300217 -0.00019901
C 2.04250748 23.45193791 14.85631685 -0.00318635 0.00006924 0.00666900
C 2.47733739 28.34169630 15.70126843 0.00708867 0.00532663 -0.00187017
C -5.24094123 25.05849527 15.47713041 -0.00217655 0.00290719 0.00523619
C -3.30591722 20.55796346 14.62499959 0.00597815 0.00317179 -0.00518598
C 3.14048414 22.49994650 15.10715061 0.00569595 -0.00086323 -0.00074714
C 1.16500689 27.67075796 15.44964643 0.00173639 -0.00268282 -0.00585709
C -5.81297654 22.85889762 23.15955343 0.00097211 -0.00074597 -0.00392928
C -8.79486961 27.63153794 19.15025889 0.00077689 0.00185496 -0.00364206
C -1.98781020 25.15332975 19.14083876 -0.00349552 -0.00215070 -0.00513102
C 0.79702122 20.23547824 23.44003562 0.00294601 -0.00245501 -0.00330203
C -4.59063481 22.80128587 22.57097952 0.00067725 0.00363599 -0.00349768
C 3.26532453 27.53866736 19.96522994 0.00009559 0.00418786 -0.00182608
C -3.23398187 25.17674879 19.75347745 -0.00030267 0.00117085 -0.00173574
C -11.11698259 20.34659110 22.62569193 0.00244376 0.00248856 -0.00600678
C -3.67297523 21.78310339 22.93629843 0.00153973 -0.00195719 0.00540330
C 2.23309728 26.73104682 19.56120425 0.00237781 -0.00401117 -0.00287858
C -4.10576453 26.19646880 19.41297949 -0.00119595 0.00423912 -0.00383974
C -10.23469893 21.34500598 22.90338570 0.00016349 -0.00217523 0.00431104
C -3.99992853 20.90304787 23.97359679 -0.00264445 -0.00089836 0.00034173
C 2.41498420 25.91886205 18.39101080 0.00207934 -0.00329075 -0.00772066
C -3.85065699 27.10764103 18.38512348 -0.00045647 -0.01122176 0.00075417
C -10.51083960 22.25312341 23.98922324 -0.00019073 -0.00546343 -0.00427761
C -2.10690834 21.27299402 18.90337617 -0.00174658 -0.00200957 0.00616875
C 0.78637189 25.87459242 23.84237185 -0.00036816 -0.00195436 -0.00022045
C -5.85169047 26.97932469 23.76476987 0.00540859 0.00588738 0.00198973
C -8.46235828 22.09456044 18.89936600 -0.00118072 0.00631603 0.00140126
C -3.03984053 22.13404880 18.34861817 0.00461063 -0.00212528 0.00571406
C -11.50234322 26.90137508 24.00825345 -0.00497268 -0.00382782 -0.00212469
C -4.95030199 26.03924502 24.09929135 0.00508696 -0.00016644 -0.00222006
C 3.54356027 21.18171862 18.41572784 0.00330989 -0.00412282 0.00079941
C -6.97311312 24.38720965 21.74697861 -0.00707411 -0.00226050 0.00481876
C -7.40137074 19.54142366 20.71745078 0.00016927 -0.00091269 0.00485995
C -0.79192781 23.71528425 20.68944669 -0.00691052 0.00082337 -0.00474739
C -0.47659314 28.31250307 21.84404489 -0.00540040 -0.00347201 0.00029314
C -7.98181481 25.44551134 21.63050403 0.00344601 -0.00332994 0.00572261
C -6.13594789 20.40076824 20.86182002 0.00795245 0.00230217 -0.00305907
C 0.31684690 22.76845792 20.98674436 0.00289685 -0.00896028 -0.00400964
C -1.79090360 27.47883031 21.76423954 0.00894597 0.00305360 -0.00113477
C 16.29691262 3.63331456 5.25494719 -0.00417319 0.00541488 0.00143154
C 13.56698648 8.53406781 0.94726016 0.00149112 0.00106952 0.00031039
C 19.89336198 5.93481655 0.85394850 -0.00196502 -0.00937141 0.00096485
C 22.63839785 1.00644230 5.11521590 0.00637469 -0.00250858 0.00099604
C 17.58571501 3.60696348 4.66412460 0.00762228 0.00619503 0.00270162
C 25.36603288 8.50575053 1.61893345 -0.00090630 -0.00135479 -0.00089507
C 18.63685711 5.88645278 1.51536859 0.00148979 0.00353147 0.00746160
C 10.84160860 1.06201291 4.39671212 -0.00039052 0.00703904 -0.00288472
C 18.53849913 2.79789165 5.15301955 -0.00389553 0.00309087 -0.00452152
C 24.36478954 7.58947031 1.22176998 -0.00794012 -0.00363809 0.00051309
C 17.56473032 6.67549808 1.09016639 0.00676097 0.00066145 -0.00337245
C 11.81584590 1.93083697 4.80804983 -0.00184808 0.00893622 0.00508794
C 18.36093327 1.99372273 6.31838493 0.00282503 -0.00061558 -0.00475630
C 24.51413887 6.83158933 0.04613772 -0.00040300 0.00408048 -0.00095149
C 17.74249732 7.52907696 0.01833476 -0.00153677 -0.00004030 -0.00114735
C 11.60890750 2.76786986 5.94412731 -0.00073292 0.00629059 0.00427077
C 19.93398121 2.08354691 0.56885710 0.00037309 -0.00175516 -0.00180671
C 22.62937246 6.75054570 5.61677420 0.00023511 0.00488282 -0.00062228
C 16.09162492 7.36353076 5.40225507 0.00732269 0.00499259 0.00313816
C 13.45521366 2.67197914 0.52633296 -0.00006674 -0.00608229 0.00329314
C 18.93489574 2.97463585 0.20454936 0.00363316 -0.00264906 0.00887697
C 10.59165401 7.59384776 5.86463698 0.00629214 -0.00097877 0.00285953
C 17.12416847 6.68304593 5.96288848 0.00600814 0.00261943 -0.00091715
C 25.34910930 2.18670424 0.07042278 0.00089810 0.00585568 -0.00065484
C 14.95966514 4.93141955 3.56605269 0.00928135 0.00008161 0.00234739
C 14.73262796 0.35186625 2.51837368 0.00565002 -0.00184970 -0.00052492
C 21.17234899 4.66216732 2.53139856 0.00569729 -0.00256907 -0.00089094
C 21.48794592 9.23845757 3.50759412 -0.00157987 -0.00677232 0.00244662
C 13.74355310 5.82850417 3.27177466 -0.00096879 -0.00032718 -0.00394083
C 15.98923199 1.23796522 2.72714554 0.00005843 -0.00001071 -0.00608014