2880
Time=10000.00000000 pbc="T T T" Lattice="39.41053065 0.00000000 0.00000000 0.00000000 28.76687742 0.00000000 -12.03983007 0.00000000 24.44973295" energy=-18400.06986570 virial="36.81653174 -12.45289663 -47.13879502 -12.45289663 37.33261009 18.17228603 -47.13879502 18.17228603 23.56818288" stress="0.00386584 -0.00049194 -0.00176891 -0.00049194 0.00383007 0.00077196 -0.00176891 0.00077196 0.00336663" Properties=species:S:1:pos:R:3:vel:R:3
C 3.21282489 3.78049169 4.97784778 -0.00024065 -0.00534212 -0.00508993
C 0.38502793 8.44246350 0.89355242 0.00106735 -0.00087855 0.00609245
C 7.03572880 5.80771638 0.81916504 0.00096462 0.00092228 -0.00025354
C 9.78606449 1.06409760 5.06088515 -0.00329935 0.00384380 -0.00474177
C 4.46867643 3.69106741 4.31159928 -0.00216366 0.00365811 0.00295838
C 12.26475403 8.56391601 1.67070494 0.00217752 0.00550968 0.00324164
C 5.80428758 5.86761568 1.49038275 -0.00044681 -0.00033891 0.00257114
C -2.17868458 1.10842745 4.55700413 -0.00558005 -0.00274971 -0.00203166
C 5.37564671 2.73649866 4.68629901 -0.00477471 -0.00480141 -0.00064730
C 11.32315286 7.66996414 1.27360588 0.01299694 0.00734541 0.00461888
C 4.85754411 6.81701557 1.18998340 0.00640376 0.00244045 0.00451348
C -1.25585708 1.99817058 5.02312996 0.00544836 -0.00078649 0.00172096
C 5.24292373 1.93179277 5.83559496 0.00319336 -0.00101327 0.00069651
C 11.55172208 6.73908959 0.13350770 -0.00163941 -0.00399851 -0.00455894
C 4.96323276 7.68290259 0.12214217 -0.00817101 -0.00516070 0.00220690
C -1.49618626 2.89211821 6.07547037 -0.00608576 0.00365969 -0.00054390
C 6.97518489 2.03663296 0.57215759 0.00009116 -0.00044476 0.00299842
C 9.78036558 6.85902840 5.52606265 0.00218445 0.00171561 0.00063175
C 2.98491978 7.53474817 5.63730673 0.00234439 -0.00334342 -0.00100932
C 0.16890949 2.84134436 0.44234741 -0.00363075 0.00157200 0.00010113
C 5.97158825 2.84713698 0.03210816 -0.00209805 0.00428737 -0.00320223
C -2.48892747 7.85550942 5.91803970 -0.00534333 0.00389835 -0.00050560
C 3.97275257 6.64438809 5.94889697 0.00058245 -0.00195475 -0.00337277
C 12.35200316 2.10173970 0.14195227 0.00373076 -0.00121526 0.00484223
C 2.02716408 5.15346851 3.45842893 -0.00064910 -0.00318796 -0.00158325
C 1.36919034 0.31832076 2.63849934 0.00314811 -0.00222360 0.00213115
C 8.23617000 4.56520654 2.49034591 -0.00206880 -0.00237388 -0.00150655
C 8.68038065 9.09148791 3.49193724 -0.00806186 -0.00244799 -0.00007006
C 0.95804424 6.21725434 3.33982744 -0.00814412 0.00198999 0.00440127
C 2.62699818 1.13759212 2.96039629 -0.00414508 0.00214515 -0.00178764
C 9.47274284 3.94164324 2.77494381 0.00612020 0.00406770 -0.00137716
C 7.49383721 8.22104316 3.36628103 0.00289217 0.00356961 0.00020280
C 0.23366735 3.67011372 11.28346052 0.00063837 -0.00995080 0.00600309
C -2.72022498 8.61992163 7.06749045 0.00130523 -0.00969805 -0.00235002
C 3.91333209 5.86582855 7.09601497 -0.00328929 0.00012318 -0.00114013
C 6.73913983 1.18706339 11.02539916 0.00668002 -0.00556974 -0.00254113
C 1.44396730 3.57552826 10.54260150 -0.00338574 0.00183330 -0.00656696
C 9.42707103 8.48753776 7.76515581 0.00538583 -0.00025669 -0.00449273
C 2.78177396 5.95324362 7.91970715 0.00428704 0.00749801 -0.00311535
C -5.12204713 1.38060987 10.63409958 -0.00239059 0.00284249 0.00728890
C 2.32183858 2.65034658 10.94211215 0.00032444 0.00417634 0.00018316
C 8.44538471 7.57402670 7.38005812 -0.00201691 0.00493861 -0.00204424
C 1.78144615 6.91520942 7.67463793 -0.01024834 -0.00017977 0.00064830
C -4.11498205 2.11637595 11.12382906 -0.00162935 0.00338600 -0.00315985
C 2.27204553 1.85436565 12.11112584 -0.00769981 0.00391135 0.00109037
C 8.58663535 6.73900744 6.29959336 0.00263683 -0.00367034 -0.00119955
C 1.82744076 7.66428278 6.46489794 -0.00305099 0.00110360 0.00080122
C -4.26441070 2.80680848 12.32922392 0.00342434 0.00032750 0.00881333
C 4.00782592 1.96222781 6.47772523 -0.00125158 0.00202526 -0.00273898
C 6.84762149 6.95678983 11.54007201 -0.00028329 -0.00345652 -0.00595785
C 0.20249423 7.81940781 11.68300027 -0.00207108 0.00000714 0.00419513
C -2.76340597 2.84986583 6.69034736 -0.00202188 0.00506369 -0.00188040
C 3.04805859 2.81306413 6.05396155 0.00213650 -0.00046064 -0.00640692
C -5.36985831 7.73956929 12.06739225 0.00018838 0.00022396 -0.00440865
C 1.16632619 6.94062103 12.08132007 0.00069450 -0.00190476 -0.00388634
C 9.60672297 1.78989992 6.21971733 -0.00230991 -0.00291760 -0.00208568
C -0.79414049 5.13645622 9.68341860 -0.00129496 -0.00310724 0.00682045
C -1.40679213 0.33351102 8.70314217 0.00183138 0.00160290 -0.00551417
C 5.21364520 4.49222902 8.54958760 -0.00608202 0.00345312 0.00164701
C 5.82320929 9.30149251 9.58955027 -0.00077825 0.00083772 -0.00029381
C -2.02028816 5.91054671 9.49161616 -0.00116485 -0.00353053 0.00457361
C -0.12407150 1.06147344 8.75963444 0.00477417 0.00091639 0.00126666
C 6.33116792 3.53826959 8.57313917 0.00135542 -0.00339788 -0.00360656
C 4.73393377 8.27303556 9.31963493 0.00070505 0.00173155 -0.00348690
C -2.77669489 3.73323465 17.35371064 0.00120290 0.00273998 0.00112603
C -5.60316825 8.55425232 13.21152615 -0.00573901 -0.00378096 0.00605146
C 1.01071338 6.13271353 13.22329517 -0.00809962 0.01002896 0.00495510
C 3.64650529 1.04807644 17.30716900 -0.00410006 0.00138308 0.00115725
C -1.51266973 3.74362370 16.83101535 -0.00108263 0.00502641 -0.00233133
C 6.33703798 8.42095418 13.93172105 -0.01278639 -0.00198463 0.00477887
C -0.17488080 6.19411001 13.93059296 0.00502936 -0.00170895 -0.00569692
C -8.16432313 0.95266981 16.83396815 -0.00593971 -0.00399075 -0.00194418
C -0.49953864 2.93020755 17.34350892 0.00324560 -0.00279632 0.00865335
C 5.37983201 7.57400582 13.40236933 0.00235340 0.00400195 -0.00523956
C -1.15642214 7.16799398 13.54706124 -0.00205287 -0.00228907 0.00241133
C -7.27469892 1.95749640 17.16775322 -0.00234533 0.00570872 0.00179263
C -0.77491663 2.14688046 18.45707938 -0.00084538 -0.00156570 -0.00542039
C 5.65699674 6.79659198 12.23594512 -0.00269193 0.00094082 -0.00196692
C -1.07340862 7.80304778 12.32828646 0.00480359 0.00151196 0.00597608
C -7.53873237 2.79497058 18.31017655 0.00122481 -0.00397765 -0.00741712
C 1.08231683 2.04151693 12.87312337 0.00286646 0.00208480 0.00816218
C 3.77712305 6.91868044 17.76100208 -0.00434236 -0.00684571 0.00096768
C -2.93158787 7.69164747 17.75114947 0.00265360 -0.00410849 0.00805374
C -5.52324077 2.76895691 13.03401624 -0.00041806 -0.00165173 0.00253437
C 0.10146174 2.93093290 12.46027093 -0.00464765 -0.00055114 0.00092131
C -8.37036924 7.72794253 18.19360206 -0.00357945 0.00293542 -0.00386032
C -1.90069041 6.91910071 18.23217775 0.00056635 -0.00069088 0.00019999
C 6.57562776 2.06349454 12.11205784 0.00507263 -0.00057362 -0.00005118
C -3.76137848 5.30581422 15.76751965 -0.01274323 0.00642437 -0.00659032
C -4.37677614 0.20826067 14.70545919 -0.00099559 -0.00039724 -0.00261122
C 2.06534834 4.61321093 14.75112212 0.00046730 0.00548485 0.00150782
C 2.67741152 9.48182456 15.70603474 -0.00582999 -0.00406379 -0.00426456
C -4.92662992 6.24844072 15.53408393 0.01047015 -0.00248799 0.00175682
C -3.16174601 1.07115589 14.79318422 -0.00831909 0.00202953 -0.00023649
C 3.22282090 3.70038726 14.90492911 -0.00202911 -0.00785836 -0.00359699
C 1.61688194 8.46378553 15.51028304 0.00551723 -0.00196270 0.00249236
C -5.80568442 3.67933377 23.38037823 -0.00010485 -0.00056185 0.00464708
C -8.64077797 8.48979342 19.31970509 0.00136864 0.00643602 -0.00003238
C -2.10564199 5.93752097 19.23689256 -0.00432330 -0.00364721 0.00210273
C 0.62830302 1.18935605 23.54616630 0.00001766 0.00123307 0.00101631
C -4.51153222 3.60010657 22.77461822 -0.00238257 0.00113427 0.00286919
C 3.22516033 8.57696443 19.87406816 -0.00200589 -0.00284049 -0.00229081
C -3.37205994 5.91955631 19.80674785 -0.00155889 -0.00539105 -0.00990551
C -11.23876630 1.04665354 22.88400103 0.00071380 0.00225813 0.00046114
C -3.54091593 2.83934145 23.36710393 -0.00627371 -0.00767791 -0.00100035
C 2.27937755 7.67342962 19.37789173 0.00043185 0.00245126 -0.00147886
C -4.36744966 6.81400590 19.44195163 0.00124026 0.00014532 0.00320925
C -10.43170405 2.15163812 23.16206424 -0.00345364 -0.00225522 -0.00268134
C 8.28785103 2.06630291 0.08657913 0.00126169 -0.00152404 -0.00182525
C 2.51730751 6.79165264 18.38978900 0.00095863 0.00605634 -0.00253801
C -4.20051811 7.63216687 18.31773560 0.00729754 0.00468491 -0.00107881
C -10.70039727 3.06237501 24.14313560 -0.00282255 -0.00091418 -0.00445803
C -2.09714590 2.15487014 18.95243740 -0.00875104 0.00577295 0.00306693
C 0.70966491 6.86283205 23.87656339 0.00307047 0.00557663 0.00100344
C -5.80703603 7.52900594 23.82482165 -0.00257206 0.00011800 0.00471347
C -8.76465448 2.68303098 18.93438462 -0.00159878 -0.00400573 -0.00324122
C -3.08345604 2.93803706 18.47055658 0.00134588 0.00222183 0.00168611
C -11.42521675 7.50681885 24.30745346 0.00343844 -0.00633702 0.00616915
C -4.87293052 6.55693652 24.12633095 0.00263233 0.00264692 -0.00255076
C 3.55036193 1.83745958 18.48572989 -0.00321857 -0.00782221 0.00734870
C -6.91626853 5.11336299 21.76884882 -0.00561217 -0.00358855 -0.00683442
C -7.54961858 0.23592317 21.10858305 -0.00040878 -0.00237050 0.00321336
C -0.85363996 4.46851340 20.90492706 -0.00617617 -0.00116387 -0.00517431
C -0.53001690 9.34310002 21.93855816 0.00516469 -0.00107500 0.00254046
C -8.21030994 5.92899530 21.59963693 0.00854730 0.00619925 -0.00236278
C -6.26513447 1.03401644 21.18174517 -0.00275854 0.00350611 -0.00080509
C 0.37627392 3.63461739 21.13268045 0.00598744 0.00044368 0.00834776
C -1.83053789 8.53699326 21.82419039 -0.00084101 0.00090058 -0.00297032
C 3.23438252 13.32686022 5.05013967 -0.00174495 -0.00188933 -0.00634143
C 0.34477490 18.09218899 0.92307629 0.00261059 0.00073012 0.00273661
C 7.00593610 15.62027748 0.92335773 -0.00283872 -0.00220891 -0.00130945
C 9.65815025 10.72224969 5.01421134 0.00457646 0.00015387 -0.00276886
C 4.46008218 13.15079533 4.40490406 0.00137028 -0.00166390 0.00179553
C 12.24362540 18.29578842 1.65291521 -0.00272932 0.00057554 0.00031211
C 5.77474182 15.73430420 1.62827314 0.00014922 0.00080879 -0.00220782
C 37.24733090 10.82668990 4.28773435 -0.00191398 0.00232266 0.00422174
C 5.31303978 12.16576212 4.85151499 0.00300629 -0.00547162 0.00213008
C 11.20211092 17.50537216 1.25574793 0.00258986 -0.00380128 0.00304126
C 4.81846077 16.61905160 1.19589504 -0.00794967 -0.00267825 -0.00886876
C -1.18094936 11.69552658 4.66884372 0.00227222 -0.00241327 -0.00456951
C 4.95969962 11.18768616 5.84501996 0.00418806 -0.00199983 0.00201899
C 11.37930809 16.65886554 0.15261134 0.00572120 0.00198453 0.00809437
C -7.09035402 17.29848808 24.43221610 0.00154688 -0.00201206 -0.00803836
C -1.35844290 12.57681209 5.72578743 0.00801136 0.00028063 -0.00087803
C 6.92185464 11.58068745 0.66811640 -0.00517262 0.00060484 0.00826795
C 9.77852822 16.75656425 5.37169498 -0.00245185 0.00582315 -0.00286644
C 3.28495642 17.26791407 5.59264834 0.00066358 0.00198311 0.00528603
C 0.41776497 12.34406915 0.51445129 0.00230423 -0.00789212 -0.00184677
C 5.97512923 12.51608445 0.21782934 0.00265467 -0.00212284 -0.00088749
C -2.40273954 17.28575652 6.02901639 0.00764123 0.00561784 0.00295985
C 4.27625311 16.41028820 5.99539929 0.00357303 -0.00047661 -0.00266834
C 12.68889886 11.43846290 0.15348908 -0.00453372 -0.00255095 -0.00416874
C 2.02311898 14.68423249 3.43570106 0.00005128 0.00031982 -0.00199925
C 1.66402024 9.68515149 2.49136189 0.00216996 0.00230150 -0.00200723
C 8.20965206 14.21989783 2.48077157 0.00257059 0.01110983 0.00120740
C 8.48212798 19.01050770 3.59794702 0.00009599 0.00415775 -0.00477531
C 0.76861309 15.32401632 3.13912833 -0.00605492 -0.00100968 0.00665885
C 2.80625851 10.61079493 2.69623574 -0.00054019 -0.00140450 0.00023286
C 9.43461825 13.47959043 2.70967656 -0.00132091 -0.00006445 -0.00526039
C 7.24031879 18.20087522 3.32453195 -0.00359625 0.00515923 -0.00438629
C 0.25184812 13.39387842 11.18415142 -0.00015245 -0.00026176 0.00285052
C -2.54815869 18.18213526 7.08158147 0.00053280 -0.00014136 0.00469722
C 3.99271148 15.44023337 6.98149304 -0.00061770 0.00347789 0.00034205
C 6.88780797 10.84014395 11.21581763 -0.00211965 0.00199357 -0.00630028
C 1.48967215 13.40040677 10.42688353 0.00210809 -0.00643315 -0.00383043
C 9.41557255 17.98848262 7.81207751 -0.00273404 0.00265719 0.00078590
C 2.83302679 15.50798048 7.72699958 -0.00544937 0.00397838 -0.00238168
C -5.07473883 10.84631560 10.56914273 -0.00590285 -0.00475887 0.00649914
C 2.51770127 12.57182643 10.75991836 -0.00036819 -0.00760752 -0.00460802
C 8.43393553 17.15729189 7.31747977 0.00452724 0.00549452 0.00352724
C 1.89398640 16.51483068 7.38660165 -0.00063475 -0.00012264 -0.00477432
C -4.22683853 11.80956732 11.01582792 0.00232196 0.00122763 0.00641826
C 2.38118409 11.67921553 11.93450932 -0.00167806 -0.00317228 0.00007294
C 8.60620366 16.45426473 6.12494897 -0.00371800 0.00026271 -0.00031533
C 2.02004230 17.25993323 6.22630145 0.00122281 -0.00051710 -0.00406370
C -4.37899573 12.46737793 12.20582883 -0.00360839 -0.00011139 0.00038714
C 3.75447577 11.49198711 6.56138858 -0.00228201 -0.00686158 -0.00318440
C 6.90978980 16.50325225 11.81441663 0.00255060 -0.00049408 0.00615973
C 0.13946585 17.39229936 11.68925869 0.00141590 -0.00403963 0.00638375
C -2.57336742 12.54765749 6.40684111 -0.00226783 0.00175700 0.00077361
C 2.90585161 12.50749375 6.15842600 0.00752096 0.00578969 -0.00511823
C -5.52850927 17.09152610 12.15942568 0.00321995 -0.00483255 -0.00370640
C 1.10637944 16.48822204 12.00712910 -0.00277082 -0.00125488 0.00081398
C 9.32360466 11.52925013 6.09024944 0.00189274 -0.00074319 -0.00515902
C -1.06308880 14.78946104 9.66746234 -0.00639620 0.00404136 0.00097028
C -1.57458689 10.03520852 8.68709456 -0.00076308 -0.00489957 0.00142532
C 5.30774764 14.15934677 8.56179058 0.00659921 -0.00636241 -0.00128699
C 5.38788891 19.07955941 9.74263460 0.00351240 0.00226130 0.00696572
C -2.11288856 15.97698155 9.46069023 -0.00425587 0.00160892 0.00421741
C -0.37936736 10.91811029 8.93686087 0.00161002 0.00453634 -0.00856523
C 6.56517404 13.27090692 8.69863669 -0.00338762 -0.00774032 0.00509310
C 4.14599885 18.29743906 9.68536642 -0.00104365 0.00588044 0.00933325
C -2.84184914 13.12602112 17.54818632 -0.00886451 -0.00241992 0.00277229
C -5.70600286 17.90397238 13.32032592 0.00317615 0.00315401 -0.00140471
C 0.95452433 15.59631598 13.14033066 0.00225119 0.00458921 -0.00739408
C 3.82808057 10.90511285 17.30748939 0.00677010 -0.00329300 0.00772477
C -1.57298094 13.12224871 16.89722337 0.00023791 -0.00042362 -0.00190624
C 6.35660743 18.14023679 13.95621599 -0.00460653 0.00423943 0.00377091
C -0.20964946 15.70368098 13.92808543 -0.00334807 0.00060554 -0.00040786
C 31.09565563 10.63022206 16.66452336 -0.00022033 0.00001880 -0.00522491
C -0.56879724 12.22890198 17.20005115 -0.00446408 -0.00172188 -0.00105008
C 5.37386093 17.29986302 13.49727461 0.00325129 0.00418530 -0.00357316
C -1.17864828 16.59057719 13.47535867 -0.00598040 -0.00384816 0.00320161
C -7.39568775 11.52423043 17.14020856 -0.00207469 -0.00004884 -0.00451724
C -0.59741435 11.51864998 18.41776287 0.00393978 -0.00460771 -0.00289906
C 5.62279170 16.49377054 12.39424177 -0.00269173 -0.00846306 -0.00565072
C -0.96498081 17.50091519 12.51030893 0.00090618 -0.00198301 -0.00130857
C -7.61672096 12.30840896 18.25632267 0.00097487 0.00282498 0.00059763
C 1.16334881 11.67766352 12.60953413 -0.00029863 0.00108006 -0.00427866
C 3.92142854 16.49570291 17.92391865 0.00129523 0.00750912 -0.00225383
C -2.67477597 17.01542437 17.79477357 -0.00740345 -0.00449996 0.00169785
C -5.61365328 12.31153565 12.86205862 -0.00112411 -0.00096185 0.00324961
C 0.15502861 12.48551965 12.27771370 0.00131867 -0.00218341 -0.00938728
C -8.45300361 17.03514809 18.18861988 0.00301503 -0.00292945 0.00007557
C -1.68742487 16.19686337 18.27838347 -0.00446974 0.00627519 -0.00175697
C 6.65037772 11.67772313 12.35605061 -0.00721529 0.00318265 -0.00329319
C -3.99244993 14.51757386 15.99965998 -0.00044656 -0.00196667 -0.00337079
C -4.45684772 9.90189936 14.83390170 -0.00589769 -0.00266234 0.00132641
C 2.15147622 14.16711107 14.73810878 0.00023515 -0.00353203 0.00205444
C 2.54046773 18.97979598 15.84865392 -0.00419402 0.00397536 -0.00138064
C -5.16159419 15.42574876 15.92066186 -0.00115957 -0.00515756 0.00645123
C -3.27480816 10.80230316 15.05669189 0.00527290 -0.00283592 0.00207449
C 3.43118832 13.33970293 14.82779463 -0.00178223 -0.00229874 0.00392078
C 1.15589063 18.36238004 15.54038226 -0.00691636 -0.00129731 -0.00374158
C -5.93211073 13.23228667 23.50623873 -0.00210087 0.00261418 -0.00239344
C -8.57894288 17.93713221 19.26915384 -0.00195765 0.00359885 0.00424005
C -1.80321891 15.35526290 19.42040527 0.00228447 0.00095223 -0.00483113
C 0.82987403 10.73373160 23.41298239 0.00205841 0.00423593 -0.00587800
C -4.69658774 13.20684707 22.86832234 -0.00856513 -0.00145712 -0.00544363
C 3.54591712 18.11892954 20.15131059 0.00141910 0.00240711 -0.00229097
C -3.05256222 15.34821689 20.05599546 -0.00788171 -0.00921064 -0.00232164
C 28.14440765 10.84859564 22.68673313 0.00121547 -0.00850056 0.00632691
C -3.71550061 12.26666614 23.20827852 -0.00454865 -0.00073269 -0.00098216
C 2.54512623 17.30628634 19.73558068 -0.00540971 0.00000130 -0.00197323
C -4.09346480 16.15617675 19.60172357 -0.00095618 -0.00229307 -0.00354655
C -10.26649327 11.62256163 23.22927035 0.00643327 -0.00390230 -0.00524677
C -3.93848066 11.45413930 24.35496830 0.00258441 0.00125817 0.00301656
C 2.68576224 16.53030658 18.53883709 -0.00022113 0.00813358 -0.00298407
C -3.92243375 16.98741188 18.47670397 -0.00072873 0.00306801 0.00176474
C -10.37343464 12.37113211 24.40753602 -0.00920497 0.00039913 -0.00140829
C -1.78802610 11.64898934 19.17158582 -0.00111355 0.00074784 0.00391748
C 0.50020189 16.71089176 23.77256805 -0.00178765 -0.00649501 -0.00087959
C -5.92007603 17.04062200 23.71701921 0.00158235 -0.00610692 0.00338838
C -8.89851525 12.19351926 18.94194861 0.00049110 -0.00171880 0.00356885
C -2.89401811 12.36407723 18.70670675 0.00080632 0.00054303 0.00365655
C -11.56131360 17.22750782 24.28289381 0.00030504 0.00516584 0.00332847
C -4.83725580 16.43830354 24.28344896 -0.00270417 -0.00123918 -0.00098548
C 3.56548383 11.84811410 18.38781962 -0.00661866 0.00530276 0.00179050
C -7.14434528 14.54630466 21.93204473 -0.00259869 0.00630246 0.01017245
C -7.38316941 9.80026297 21.06085739 -0.00643143 -0.00824811 -0.00007375
C -0.38269988 14.38564214 21.08057337 0.00063835 0.00495237 -0.00244877
C -0.62750911 18.94278435 21.88058550 -0.00006981 0.00086316 -0.00048959
C -8.19654779 15.56104747 21.80315607 0.00260334 -0.00047515 0.00090621
C -6.16101505 10.52946718 21.33433594 0.00030978 -0.00006177 0.00728623
C 0.75479016 13.41436390 21.14752547 -0.00077034 0.00024996 0.00327674
C -1.89014006 18.11966648 21.83310039 0.00478992 -0.00128222 -0.00388305
C 2.89055194 22.91866697 5.11486991 0.00274023 0.00122138 -0.00178344
C 0.30527896 27.53655700 1.10508167 -0.00012247 -0.00109708 0.00620821
C 6.83065216 25.06780344 1.07157802 -0.00732821 0.00579796 0.00309631
C 9.69158743 20.32939403 5.29173929 0.00086278 0.00537579 0.00678698
C 4.13313412 22.91123038 4.50715535 -0.00301077 0.00042803 -0.00408332
C 12.28422422 27.53397489 1.73630564 -0.00106770 0.00729230 -0.00177341
C 5.51772532 25.01224009 1.63902060 -0.00047718 -0.00681797 -0.00611987
C -2.12367734 20.40082226 4.31821476 0.00718484 -0.00300521 -0.00940083
C 5.09906245 22.01164600 4.87920522 -0.00588256 -0.00512333 0.00078337
C 11.27376017 26.71242345 1.29516610 -0.00084905 0.00321708 -0.00572159
C 4.58608307 25.87127809 1.22024396 0.00001575 0.00591118 -0.00277434
C -1.23858658 21.27934181 4.89001383 0.00325552 0.00465004 0.00173565
C 4.90930926 21.04580845 5.88649390 0.00207621 0.00147019 0.00561043
C 11.34465239 25.91816954 0.13161283 0.00700828 -0.00423562 -0.00057501
C 4.71780617 26.74498809 0.07522073 -0.00006747 -0.00453404 -0.00531125
C -1.53798765 22.19891750 5.89353667 -0.00648916 -0.00411699 -0.00050965
C 6.81256034 21.07855421 0.55778019 -0.01129186 0.00450967 -0.00169752
C 9.79629072 26.21586694 5.49198914 -0.00354221 0.00075649 0.00575148
C 3.28290133 26.69127605 5.56436505 0.00282313 0.00202078 -0.00114493
C 0.31082543 21.80689698 0.55910824 -0.00590727 -0.00417178 0.00352624
C 5.89389417 22.05865586 0.11697870 -0.00472825 0.00642449 -0.00027994
C -2.48485754 26.82013731 6.18320036 -0.00014869 0.00509607 0.00603268
C 4.23338272 25.78248558 6.02259333 -0.00353263 0.00112454 -0.00053192
C 12.49730192 21.28105524 0.06514021 0.00326567 -0.00206394 0.00545189
C 1.74037672 24.17760685 3.49884537 -0.00385021 -0.00577190 -0.01394415
C 1.65485855 19.53955793 2.43200784 0.00263272 -0.00441575 -0.00173340
C 8.06874415 23.71462099 2.67458233 0.00435941 0.00720493 -0.00418113
C 8.72882367 28.32570474 3.46747689 -0.00071528 -0.00279793 -0.00047916
C 0.64541390 25.12885356 3.27276016 0.01393180 -0.00067846 0.00243152
C 2.83099223 20.51107074 2.47597019 0.00847010 0.00290408 0.00643574
C 9.27496707 22.84473901 2.70763015 -0.00087783 0.00019894 -0.00216125
C 7.42827499 27.54957003 3.24278146 -0.00118244 -0.00467070 -0.00313017
C 0.36265917 22.88558714 11.36211573 -0.00274551 0.00095210 0.00052794
C -2.76494695 27.73523252 7.18096859 -0.00358105 -0.00390078 -0.00154806
C 3.97352943 24.92907998 7.10050634 0.00133571 -0.00850905 0.00311995
C 6.76682900 20.26112184 11.25712314 -0.00018795 0.00838818 -0.00147400
C 1.53369323 22.80482430 10.65321905 -0.00322718 -0.00473674 -0.01188490
C 9.36675501 27.56004024 7.86401444 -0.00355122 -0.00580898 0.00138831
C 2.75157815 25.03653001 7.76056207 0.00163236 -0.00227735 -0.00273002
C -5.01631231 20.09460644 10.81208048 -0.00156060 0.00652494 0.00663473
C 2.49354597 21.89597940 11.08939840 -0.00281145 -0.00627403 -0.00326412
C 8.37021676 26.69272744 7.38606419 0.00519637 0.00268386 0.00217223
C 1.79569626 25.95405493 7.31952274 0.00492688 0.00394237 0.00281873
C -4.00130770 20.85762692 11.31124567 0.00065915 -0.00230803 -0.00651831
C 2.37644717 21.08757247 12.23055256 -0.00097467 0.00431417 0.00697742
C 8.57489910 26.02382846 6.15014765 -0.00427164 -0.00065065 -0.00076809
C 2.06045536 26.78644324 6.18417560 0.01002512 0.00231137 -0.00157637
C -4.17041670 21.80645726 12.30696309 0.00350700 0.00322953 0.00746500
C 3.67008939 21.09543487 6.52462067 -0.00081278 0.00059557 0.00035882
C 6.61580262 25.98793232 11.60898592 -0.00500331 0.00051371 0.00861437
C 0.12993946 26.67550133 11.60270941 -0.00260592 -0.00230019 0.00084770
C -2.84018232 22.01584373 6.59350907 0.00229983 0.00984894 -0.00129611
C 2.68962529 22.04173312 6.17977358 0.01093463 0.01178091 0.00875280
C -5.52797649 26.70355658 12.11138317 -0.00078800 0.00314695 -0.00279497
C 1.24597382 26.08176707 12.19339619 0.00164501 -0.00050645 -0.00510242
C 9.54644209 21.14205182 6.40674436 0.00110615 -0.00028306 0.00466830
C -0.94555559 24.10559647 9.70908441 -0.00022138 0.00465467 -0.00671360
C -1.29166115 19.45333467 8.65096554 0.00625907 -0.00036282 0.00050433
C 5.06255203 23.46744090 8.68124371 0.00115727 -0.00734010 -0.00566356
C 5.50385237 28.59077720 9.48040011 -0.00833151 -0.00243345 0.00057305
C -2.05981876 25.05968905 9.62644078 -0.00119453 -0.00934190 -0.00372375
C -0.17569040 20.45089433 8.89981099 -0.00423109 -0.00326829 -0.00262629
C 6.33182392 22.60586112 8.97007652 0.00005141 0.00136414 -0.00498116
C 4.25038803 27.76461379 9.31073043 -0.00000106 -0.00112993 0.00694212
C -2.78896770 22.97895083 17.42238075 -0.00266336 0.01050802 -0.00515980
C -5.76037980 27.54122814 13.20642859 0.00007603 -0.00205486 0.00053260
C 1.10901410 25.17225556 13.24691229 -0.00096846 0.00048088 -0.00465560
C 3.58395508 20.31774803 17.49860746 0.00080635 -0.00035261 -0.00060999
C -1.52494358 22.94049059 16.85123585 0.00208311 -0.00518878 -0.00415248
C 6.13029388 27.64514709 13.90614457 -0.00257268 0.00830737 -0.00136632
C -0.13512729 25.17038276 13.89766021 0.00443183 0.00297214 0.00177544
C 31.21199754 20.24734443 16.61010180 0.00423267 -0.00373992 -0.00117844
C -0.54251065 22.13477606 17.38002280 0.00475425 -0.00132843 0.00235606
C 5.15807574 26.72548827 13.45717606 0.00022653 -0.00954969 0.00676177
C -1.16648326 25.98525097 13.51152874 0.00123510 -0.00148737 -0.00745549
C -7.20895122 21.09524601 17.08640156 0.00015476 -0.00047938 0.00057205
C -0.79252571 21.28454714 18.46628013 0.00308671 0.00222812 0.00079051
C 5.37480873 25.85001445 12.35962792 0.00107802 -0.00423227 0.00611789
C -1.07877364 26.75445361 12.32298030 0.00000504 -0.00367430 -0.00312293
C -7.44500882 21.89781046 18.16109200 -0.00041024 -0.00283284 0.00244734
C 1.16815264 21.33728151 12.98930499 0.00067403 -0.00073876 0.00701804
C 3.68387492 25.92153501 17.77848680 0.00121482 -0.00579386 -0.00551871
C -2.91311735 26.89251054 17.86025998 -0.00451523 0.00105481 0.00076381
C -5.44568094 21.98365602 12.74696218 -0.00037895 -0.00479243 -0.00052580
C 0.24439035 22.21879023 12.58781942 0.00050813 -0.00522205 0.00315270
C -8.40404217 26.78820200 18.39104485 -0.00563821 0.00929324 0.00818583
C -1.96003500 25.97251885 18.24967081 0.00206420 -0.00780418 0.00164184
C 6.59529779 21.12431043 12.38844927 -0.00497815 0.00529927 0.00794738
C -3.91393425 24.25447820 15.77054254 0.00668534 0.00450234 -0.00636110
C -4.53643024 19.26428393 14.89559144 0.00749827 0.00237908 -0.00051872
C 2.39964903 23.93823256 14.88456972 0.00124990 0.00095958 -0.00091300
C 2.37179842 28.52619879 15.73973794 0.00036436 0.00406677 -0.00468902
C -5.15000965 25.03215690 15.43168165 0.00228706 -0.00902380 -0.00086313
C -3.35738102 20.24301952 15.02602005 0.00524976 -0.00834143 -0.00123356
C 3.75864415 23.28046301 15.20031842 0.00547261 -0.00104347 0.00383215
C 1.06835880 27.82194054 15.56724504 0.00055250 0.00053006 -0.00080755
C -5.93925563 22.89583776 23.49279836 0.00222593 -0.00138178 -0.00291142
C -8.71007286 27.53994251 19.47167118 -0.00181656 -0.00551821 -0.00561062
C -2.21417644 25.20278660 19.42702737 -0.00022785 0.00284501 0.00014255
C 0.51392113 20.44594176 23.37772722 -0.00762160 0.00842794 0.00273495
C -4.64328376 22.75502290 22.82580120 0.00547163 0.00300716 -0.00400521
C 3.23966353 27.58758160 20.00019347 -0.00085293 0.00508866 0.00389766
C -3.50001530 25.20254019 20.00032287 -0.00485847 -0.00416687 0.00360167
C 28.14165597 20.29419759 22.70785878 -0.00628011 -0.00355955 -0.00471493
C -3.78655289 21.74431703 23.23357470 -0.00135627 0.00291657 -0.00291183
C 2.30192677 26.65891068 19.66001815 0.00272723 0.00308935 0.00265595
C -4.45962845 26.05100577 19.53023318 0.00067552 -0.00913554 -0.00092655
C -10.28449606 21.13228426 23.12351469 -0.00106335 -0.00064390 0.00529249
C -4.05861307 20.87920200 24.35183735 0.00515534 -0.00218862 0.00187304
C 2.46042954 25.82276846 18.53805460 0.01060217 0.00503581 0.00162171
C -4.18832449 26.91062414 18.45804528 -0.00143061 -0.00646914 0.00072172
C -10.48755712 21.93307746 24.29939072 0.01252404 -0.00395495 0.00385444
C -2.11980918 21.28538023 18.98391582 -0.00349817 0.00147572 0.00274563
C 0.54833748 25.94846879 23.93366644 0.00285298 -0.00179448 -0.01079501
C -5.98029241 26.80368393 23.96633726 0.00777830 0.00308159 -0.00251897
C -8.64865548 21.78181621 18.92631317 0.00199707 0.00019241 -0.00725469
C -3.08323166 22.09995043 18.45518269 -0.00699735 -0.00399613 0.00193649
C -11.51433828 26.69902022 24.43716042 0.00396748 0.00542414 0.00695095
C 7.06824822 26.03985241 0.03035887 0.00202278 -0.00180605 0.00062923
C 3.41629522 21.15020537 18.60152395 0.00251356 -0.00124812 0.00730691
C -7.13693508 24.23853461 21.95560160 0.00420904 -0.00290935 -0.00315902
C -7.47582979 19.46919967 20.77240491 0.00430210 -0.00534519 0.00051917
C -1.14904208 23.74342668 21.05458989 -0.00766053 0.00504046 0.00414526
C -0.68922124 28.50068925 21.98430618 -0.00057195 -0.00157450 -0.00503031
C -8.39542815 25.11010444 21.71446906 -0.00014891 -0.00355918 0.00489215
C -6.24057956 20.38543688 20.87121187 0.00845974 0.00287389 -0.00651448
C 0.04363695 22.87693096 21.42854665 0.00373967 -0.00228555 -0.00084850
C -2.12910445 27.96546433 21.71552689 -0.00067785 -0.00121573 -0.01040766
C 16.38107198 3.60611456 5.09272845 0.00069745 -0.00281726 0.00803497
C 13.51992595 8.56972649 1.04036100 -0.00039928 -0.00707460 0.00313418
C 20.14819518 6.02157158 0.82782345 -0.00787934 -0.00476752 0.00702006
C 22.79339757 0.99053764 5.23175026 -0.00298833 0.00522745 -0.00013124
C 17.65993577 3.43297748 4.47218254 -0.00594330 0.00251063 -0.00978683
C 25.32060069 8.11735633 1.68635570 -0.00200741 -0.00464567 0.00014288
C 18.97615503 6.12226995 1.53825214 0.00393197 -0.00100912 0.00809429
C 10.94344253 1.35714153 4.22619186 -0.00436237 -0.00272136 0.00464164
C 18.70538638 2.78297975 5.01946041 -0.00148380 0.00650623 -0.00414509
C 24.38951010 7.23411146 1.21948914 -0.00043981 0.00422377 -0.00149219
C 18.04577313 6.99864211 1.16145742 -0.00266252 0.00293538 0.00430490
C 11.92609363 2.17878725 4.59210972 0.00368440 0.00088134 -0.00854539
C 18.42807840 1.92962495 6.15763869 -0.00187414 -0.00068525 -0.00520198
C 12.62025536 6.51823573 24.43770796 -0.00071941 -0.00096690 -0.00181311
C 18.18649899 7.87425979 0.05071982 0.00382674 -0.00120709 -0.00420574
C 11.76481534 2.97097527 5.79035098 -0.00420937 -0.00037225 0.00406706
C 19.96849766 2.18859047 0.54228083 0.00094469 -0.00008095 0.00297651
C 22.73543376 6.38368390 5.65361853 -0.00206287 -0.00289754 -0.00217733
C 16.33697396 7.41036112 5.38672578 -0.00488565 -0.01049023 -0.00185354
C 13.26206146 3.03505714 0.48859006 -0.00687706 0.00453648 -0.00471489
C 19.04230178 3.06101946 0.13967628 0.00271457 0.00125866 0.00116520
C 10.80024165 7.71113817 5.93446620 0.00053798 0.00492061 0.00631120
C 17.32908972 6.65680734 5.93036253 -0.01007696 -0.00502014 0.00710559
C 25.76020642 1.80247770 0.25031922 -0.00163041 -0.00138430 -0.00115973
C 15.38452199 5.10509482 3.49017423 -0.00216166 0.00447398 0.00413060
C 14.63455636 0.30616679 2.54735676 -0.00260586 -0.00222727 -0.00103415
C 21.23444183 4.46510799 2.29552192 0.00832509 -0.00249817 -0.00529212
C 21.77912114 9.08118472 3.48971390 -0.00548781 0.00401701 -0.00157649
C 14.39202931 6.15537481 3.04174419 0.00226142 0.00210279 -0.00275196
C 15.61136119 1.43472644 2.61981111 -0.00339459 -0.00052571 0.00688092