2880
Time=55000.00000004 pbc="T T T" Lattice="39.36984037 0.00000000 0.00000000 0.00000000 28.85578545 0.00000000 -12.02013483 0.00000000 24.36980666" energy=-18395.49323577 virial="-1.73372013 5.64737056 -25.80090831 5.64737056 12.76677637 -31.37850171 -25.80090831 -31.37850171 37.48459876" stress="0.00258301 0.00012055 -0.00092924 0.00012055 0.00295592 -0.00112798 -0.00092924 -0.00112798 0.00398282" Properties=species:S:1:pos:R:3:vel:R:3
C 2.83796161 3.55612280 5.33932449 0.00445474 -0.00014837 -0.00323244
C 0.45464207 8.44209063 1.17450086 0.00262378 0.00117712 0.00316283
C 6.98125123 5.90531417 1.13470475 -0.00930872 -0.00309078 -0.00377878
C 9.58347555 1.01929115 5.03332864 0.00268083 -0.00029168 -0.00542721
C 4.08278964 3.60825340 4.60994824 -0.00069487 0.00499419 -0.00999501
C 12.10481789 8.38310803 1.51844102 -0.00146568 -0.00121270 0.00050463
C 5.87957948 6.05127784 1.91072773 0.00577002 -0.00394010 -0.00285464
C -2.24427388 1.11997635 4.66029986 0.00440428 -0.00112799 0.00520982
C 5.17417649 2.78346382 4.90248547 -0.00516618 -0.00008563 0.00327590
C 11.06160744 7.63796745 1.05212753 -0.00350026 -0.00031693 -0.00240053
C 4.80835558 6.85006814 1.42843286 -0.00287988 -0.00576017 -0.00270884
C -1.22190847 1.87828202 5.20974158 0.00181653 -0.00158965 0.00606752
C 5.11667828 1.94723563 6.04294211 0.00869447 -0.00796706 -0.00209606
C -0.79847701 6.81819103 24.28747346 0.00090717 0.00112153 -0.00184993
C 4.98077071 7.65450313 0.27898939 -0.00061141 0.00105290 0.00051727
C -1.40838312 2.56493730 6.43188281 -0.00368353 0.00497958 -0.00349370
C 6.81651884 1.94849450 0.57310100 -0.00475805 0.00175170 0.00774624
C 9.30811939 6.77969261 5.54407136 0.00674186 0.00055573 0.00329141
C 2.97617003 7.45395148 5.68204984 0.00455570 -0.00280237 -0.00038465
C 0.34547227 2.83047054 0.54935404 -0.00452129 0.00310007 0.00508918
C 5.94774769 2.90436527 0.23225737 -0.00683971 -0.00461168 -0.00988354
C -2.14924001 7.50897358 6.38607907 -0.00279075 0.01145656 -0.00198206
C 4.00164759 6.55777882 6.03208325 0.00554194 -0.00044518 0.00134044
C 12.63557850 1.93534431 0.24450362 0.00111357 -0.00448396 0.00266233
C 1.70895848 5.11416885 3.81317987 -0.00844274 -0.01132095 -0.00304789
C 1.63916088 0.34701211 2.47844192 -0.00208511 0.00330348 -0.00022479
C 8.24450205 4.44816927 2.72408062 0.00053495 -0.00313643 -0.00529302
C 8.30778591 9.29980160 3.64254552 0.00119784 0.00219048 -0.00036353
C 0.42983574 5.78192013 3.41276899 -0.00481025 0.00012114 0.00177290
C 3.03003460 0.92035808 2.69785044 0.00015776 0.00141420 0.00906501
C 9.46397415 3.57482136 2.77529961 0.00549334 -0.00020631 0.00357882
C 7.11445399 8.37983785 3.58679861 0.00557198 0.00194364 -0.00547829
C 0.20962296 3.54050980 11.24044966 -0.00476745 0.00011813 0.00390660
C -2.48274139 8.37026956 7.45384635 0.00426618 -0.00365963 0.01009767
C 3.82934119 5.81134970 7.19808258 0.00448015 -0.00230555 -0.00028694
C 6.65743692 1.11456253 11.13981280 0.00354610 -0.00289463 0.00275546
C 1.46284156 3.62726858 10.63078883 0.00066350 0.00264702 0.00022874
C 9.11236491 8.33091375 7.80959252 -0.00267936 -0.00196401 -0.00414029
C 2.65781915 5.98818622 7.98401509 -0.00093682 -0.00199163 0.00736006
C -5.15121085 1.02477105 10.55275704 -0.00795169 0.00798340 -0.00372823
C 2.53794879 2.81790372 11.05014868 0.00529919 0.00073930 -0.00434552
C 8.10105192 7.48419208 7.44453789 -0.00193223 -0.00533832 0.00486076
C 1.68385123 6.98509452 7.59111387 -0.00252817 -0.00391326 0.00213359
C -4.26237581 2.00964841 10.88255976 -0.00256656 -0.00375894 0.00202329
C 2.27522270 1.82002638 12.00821992 -0.00520739 -0.00904900 0.00173867
C 8.12473624 6.60981661 6.29018428 0.00050720 -0.00771550 0.00771355
C 1.86725823 7.77533403 6.51543049 -0.00278175 -0.00008357 0.00117131
C -4.37801340 2.73763108 12.06447562 0.01016469 0.01186418 0.00720453
C 3.90977642 1.92433224 6.69609328 -0.00226249 -0.00449718 0.00173586
C 6.68805733 6.73660803 11.61481841 -0.00618574 0.00947221 -0.00134739
C -0.12125336 7.36030450 11.66051437 0.00381985 0.00422254 -0.00110223
C -2.73076524 2.60729575 6.94856787 0.00280983 0.00327840 -0.01017181
C 2.79752208 2.73824592 6.45987196 0.00164627 0.00218607 0.01114123
C -5.31762377 7.58106274 12.24488886 0.00573880 -0.00609021 -0.00377470
C 0.98040861 6.58542882 12.08305509 -0.00240732 0.00016007 0.00748297
C 9.33739042 1.89150884 6.14401060 -0.00318293 -0.00321038 -0.00037552
C -1.16828975 5.02099971 9.85174715 -0.00295342 0.00156881 0.00232525
C -1.36894231 0.17474420 8.45919281 -0.00427562 -0.00220265 -0.00414609
C 4.96996947 4.31790425 8.68607896 -0.00012749 -0.00672027 0.00497328
C 5.48603815 9.45223416 9.62307337 0.00185871 -0.01151633 -0.00366400
C -2.48791660 5.76135410 9.93387976 0.00403449 0.00048548 0.00037024
C -0.08605740 0.92988686 8.66472053 -0.00309827 0.00552312 -0.00718804
C 6.16086466 3.39939115 8.87769320 -0.00301562 0.00176983 0.00258686
C 4.29629884 8.53602140 9.41833491 0.00039477 0.00643078 0.00202841
C -2.73680361 3.59545248 17.41189365 0.00023319 0.00526928 0.00197903
C -5.51659345 8.46297636 13.29833118 -0.00465442 -0.00140303 -0.00188420
C 0.83966619 5.80201050 13.24822309 0.00076255 -0.00048356 0.00062083
C 3.93932477 1.12500397 17.41488082 0.00221402 -0.00324839 -0.00701562
C -1.63006034 3.47080806 16.59072776 0.00355166 -0.00618406 -0.01157327
C 6.09534285 8.24917532 13.84520594 0.00158074 0.00063561 -0.00490184
C -0.31016645 5.91825176 13.96365162 -0.00508023 -0.00291968 0.00072536
C -8.16851086 1.31784180 16.56799852 0.00038224 -0.00253846 -0.00073070
C -0.61346683 2.52665235 16.86099380 -0.00004886 0.00133337 0.00028259
C 5.11941702 7.46639824 13.33073880 -0.00081602 0.01400251 -0.00509152
C -1.41801501 6.54865045 13.59932182 0.00941393 0.00430364 -0.00166777
C -7.23256059 2.26309408 16.95945800 0.00233197 -0.00191192 0.00939455
C -0.78738930 1.72093270 17.97240756 -0.00286740 -0.00670301 -0.00626616
C 5.41637695 6.59373696 12.22267640 0.00037658 -0.01083140 0.01322871
C -1.23391080 7.48336650 12.49214209 0.00036384 -0.00207850 -0.00543354
C -7.37524899 2.95986047 18.16193273 -0.00074693 -0.00263481 -0.00713674
C 1.05844506 1.78356316 12.64569688 0.00497589 -0.00050917 -0.01182568
C 3.66406710 6.69315743 17.68568086 -0.00381179 0.00607133 -0.00741738
C -2.84275571 7.58616369 17.64297020 -0.00264474 -0.00512814 0.00458607
C -5.59142593 2.55528469 12.83777887 -0.00273023 -0.00333690 0.00240607
C 0.04508053 2.69191218 12.34944343 0.00216636 0.00475980 -0.00109550
C -8.30438966 7.65204080 18.26311672 -0.00165822 0.00274024 -0.00275324
C -1.88726724 6.76518699 18.18278212 -0.00089418 0.00258600 0.00283985
C 6.39229804 1.99978180 12.18449293 0.00398694 -0.00292046 0.00631079
C -4.17114217 4.89447149 15.90111231 0.00349743 0.00163076 0.00126025
C -4.17950349 0.25462267 14.81701857 -0.00027700 0.00071305 -0.00417713
C 1.99621256 4.37297409 14.78459571 -0.00629716 0.00646380 -0.00361943
C 2.59116262 9.14070224 15.40415262 -0.00258547 -0.00064095 -0.00665544
C -5.17356477 5.97932306 15.83450842 -0.00158136 0.00182499 -0.00039732
C -2.95153507 1.06278555 14.89767709 0.00313085 0.00244306 -0.00595653
C 3.13783983 3.34627374 14.96898633 -0.00325434 -0.00452588 -0.00257755
C 1.33828197 8.41127142 15.13758916 0.00448937 -0.00337685 -0.00315709
C -5.82930235 3.89951917 23.51978706 0.00029583 0.00164367 0.00608945
C -8.48764130 8.41112941 19.42406879 -0.00089957 0.00134576 0.00226058
C -2.00619653 5.93560755 19.31079286 -0.00013099 -0.00011142 -0.00323149
C 0.75788797 1.15953104 23.51736276 -0.00377719 -0.00095642 -0.00192825
C -4.66695738 3.71387731 22.77127070 -0.00187032 -0.00195949 -0.00001310
C 3.17987800 8.44979323 19.76939362 0.00818760 -0.00827046 -0.00099590
C -3.17613402 6.10086877 20.05048283 0.00375212 0.00019011 0.00125789
C 28.07812051 1.15522906 22.75691020 -0.00726158 -0.00001321 0.00362463
C -3.66171533 2.86387950 23.18395202 0.00381609 0.00353896 -0.01286092
C 2.21758134 7.58448640 19.39900745 0.00230727 -0.00497129 0.00041869
C -4.16459075 6.99525065 19.68582532 -0.00239086 -0.00142850 -0.00406259
C -10.24706441 2.02711740 23.21529696 -0.00700183 -0.00202944 -0.00234264
C -3.96030915 1.93578733 24.22830230 0.00706777 0.00289058 0.00514578
C 2.41023254 6.73394726 18.27326460 -0.00473759 -0.00812311 0.00191262
C -4.06608399 7.68985579 18.44118251 -0.00334391 0.00466800 -0.00383720
C -10.43183079 2.78097170 24.32742583 0.00185392 0.00122577 0.00056791
C -1.81172055 1.96750513 18.89616167 -0.00619771 0.00327518 -0.00091223
C 0.41138753 6.79119308 23.69815208 -0.00419005 -0.00372357 -0.00225443
C -5.81209241 7.63533949 24.00900330 -0.00266692 -0.00274124 -0.00514206
C -8.50519404 2.75777390 18.93932136 0.00001382 -0.00670103 -0.00330343
C -2.77892682 2.90713106 18.62237481 -0.00017719 -0.00140764 0.00234423
C 0.64359931 7.58811360 0.08938366 0.00358802 0.00010869 0.00445868
C 7.16908443 6.73700172 0.05702631 0.00302133 -0.00097737 -0.00563477
C 3.70433770 1.98813623 18.51234194 0.00037910 -0.00194050 0.00218453
C -7.22959039 5.02956493 21.95887952 -0.00149360 0.00393054 0.00047827
C -7.27397689 0.25019072 20.73751260 -0.00461252 -0.00444725 -0.00028586
C -0.89512771 4.44795326 20.76344583 -0.00193316 0.00045371 -0.00468986
C -0.45388186 9.41355885 21.87913256 0.00374642 -0.00697565 0.00484501
C -8.58321099 5.70946355 21.78243415 0.00386318 -0.01013542 0.00484467
C -5.93139102 0.94266851 20.92036132 0.00521360 0.00593161 0.00918258
C 0.39310961 3.63990625 20.94058781 -0.00090978 -0.00495188 -0.00027666
C -1.81648591 8.81733064 21.66453770 0.00124609 0.00510449 0.00147181
C 2.95731257 13.33963349 5.20012442 0.00759191 0.00288685 0.00080576
C 0.26839265 18.06074187 0.74270155 -0.00204771 0.00243164 0.00075830
C 7.13220623 15.51592027 0.97805343 -0.00152837 0.00072444 -0.00228002
C 9.48329810 10.72551420 5.10861368 0.00056068 0.00500225 -0.00320913
C 4.11424916 13.23511861 4.43681184 -0.00312775 0.00269910 -0.00199829
C 12.38568404 18.20720509 1.53422095 0.00196271 0.00330302 0.00350159
C 5.87238479 15.56957265 1.57405808 0.00090823 -0.00220056 0.00206902
C -2.22082740 10.49229442 4.62227449 0.00173418 0.00537285 0.00257861
C 5.17528472 12.42046834 4.81995178 -0.00503538 -0.00001961 -0.00572428
C 11.34156315 17.33959106 1.21536976 -0.00271187 -0.00069455 0.00106699
C 4.88537348 16.38710765 1.17111385 -0.00174666 0.00106623 -0.00372607
C -1.29242608 11.47405502 5.04807875 0.00496726 -0.00237819 -0.00270198
C 5.01052552 11.65376888 5.97541077 0.00768599 0.00342855 -0.00386843
C 11.44904799 16.48786662 0.10442268 0.00166513 -0.01187683 -0.00988442
C 5.06896699 17.30441137 0.12623009 -0.00527617 -0.00274590 -0.00211105
C -1.56184062 12.46375270 5.93927393 0.00503646 0.00070026 -0.00162522
C 7.02978411 11.81290053 0.68820493 -0.00745896 0.00128653 0.00046060
C 9.88805757 16.74752143 5.46179453 0.00262286 0.00155666 -0.00394415
C 3.27992740 17.24207766 5.47039419 -0.00829872 0.00052486 0.01018064
C 0.58492469 12.38885827 0.76598051 -0.00583929 -0.00423871 -0.00363935
C 6.07308460 12.72142916 0.21051457 -0.00061890 0.00202910 0.00128698
C -2.49027179 17.06758027 5.65462574 -0.00130113 0.00619392 0.00045971
C 4.16652016 16.24554527 5.94691616 0.00258516 -0.00112332 0.00399998
C 0.55564186 11.76151629 24.35482221 -0.00072443 -0.00658049 -0.00010370
C 1.69703713 14.72882904 3.73720317 -0.00692037 0.00270077 -0.00521193
C 1.66595913 9.83928379 2.66398711 0.00406804 -0.00779141 -0.00107804
C 8.20283943 14.09522931 2.60537461 0.00323479 -0.00730214 0.00564175
C 8.51563204 19.03259514 3.60024354 -0.00113114 -0.00741182 0.00309325
C 0.61686000 15.77175738 3.45976149 0.00466072 -0.00442286 0.00539720
C 2.91591885 10.70661824 2.87566106 0.00357961 -0.00216820 0.00369235
C 9.35864849 13.15111173 2.94249262 -0.00119704 -0.00532246 0.00689921
C 7.29206076 18.13556243 3.57118670 -0.00259996 0.00531739 0.00021584
C 0.09551504 13.42449008 11.16526987 0.00080918 0.00227181 0.00794528
C -2.51732406 17.97697723 6.74767978 0.00105539 0.00708053 0.00660650
C 3.90050566 15.54285920 7.10766446 0.00152683 0.00209019 -0.00486785
C 6.70553881 10.81833269 11.09137443 0.00945742 -0.00481930 -0.00165450
C 1.27617285 13.19638460 10.37974632 0.00076499 -0.00296994 -0.00333757
C 9.37907846 18.35883724 7.69734185 0.00876207 0.00526308 -0.00126455
C 2.66718714 15.74236424 7.75702586 0.00077483 -0.00332533 -0.00129236
C 34.08520525 10.70402799 10.70802477 -0.00173734 -0.00102506 -0.00041293
C 2.26000679 12.34361405 10.80964900 0.00383513 0.00795800 -0.00203801
C 8.45560745 17.48184436 7.33306217 -0.00553473 -0.00346173 -0.00077729
C 1.74478188 16.61361780 7.28133513 0.00315733 0.00881245 0.00056754
C -4.31644626 11.63621969 11.05158253 -0.00822689 -0.00253618 0.00258963
C 2.11353244 11.57397307 12.02908426 -0.00085665 -0.00108998 0.00425529
C 8.62126421 16.67758556 6.14729366 -0.00068184 0.00290364 0.00398867
C 2.03998544 17.36169494 6.11262687 -0.00387146 -0.00084405 -0.00098514
C -4.60309511 12.50208293 12.20788668 -0.00471047 -0.00332524 -0.00116221
C 3.74848771 11.56909921 6.63533883 0.00030652 -0.00284962 0.00641529
C 6.87584149 16.59800271 11.57505223 -0.00208744 0.00420857 0.00313250
C 0.44688636 17.28467278 11.56707283 0.00344593 0.00601551 0.00335422
C -2.75618651 12.20916296 6.68392782 -0.00386613 0.00243523 -0.00938737
C 2.78971439 12.44010008 6.30636667 -0.00423169 0.00112110 0.00181934
C -5.13697564 17.18298259 11.97492256 -0.00069674 -0.00065510 -0.00556497
C 1.36213655 16.45337906 12.06391485 -0.00940224 0.00068649 0.00277147
C 9.30173945 11.66074586 6.10450403 0.00378372 -0.00227363 0.00217140
C -1.31906239 14.68338340 9.70398040 0.00091400 0.00111380 -0.00230469
C -1.56781034 9.77730624 9.08473797 -0.00297925 -0.00305055 -0.00420963
C 4.96292603 14.18054281 8.77828829 -0.00886979 -0.00615282 0.00323590
C 5.53299348 19.09201208 9.69007978 -0.00217323 -0.00365568 0.00023147
C -2.49270122 15.61131371 9.70733671 -0.01078539 -0.00056147 0.00370072
C -0.32828235 10.55070369 9.42006608 -0.00254653 0.00632540 0.00272452
C 6.27816674 13.40221873 8.94709046 0.00202969 -0.00484196 0.00121559
C 4.43126988 18.13287854 9.53689313 0.00503008 0.00407287 0.00417701
C -2.77336053 13.23868678 17.25298429 0.00286994 -0.00053448 -0.00077217
C -5.35130494 18.07148886 13.04164453 -0.00526228 0.00191004 0.00120412
C 1.02592484 15.55000462 13.10428520 -0.00334509 -0.00096836 0.00387653
C 3.75815660 10.47655467 17.13170323 0.00215016 -0.00481040 0.00580882
C -1.54524315 13.24779035 16.58963679 0.00204724 -0.00764740 0.00227003
C 6.67869183 18.02896738 13.90263358 -0.00150395 0.00593636 0.00318941
C -0.23441271 15.66438393 13.73978717 -0.00366844 0.00461813 0.00563458
C 31.12754211 10.84600069 16.38182612 -0.00462618 -0.00934972 -0.00098704
C -0.58265795 12.29415628 17.02613330 0.00431412 -0.00072614 0.00320751
C 5.77004139 17.08690390 13.58444468 -0.00296369 -0.00082331 -0.00228993
C -1.14393238 16.60761480 13.31620282 0.00703825 0.00607909 0.00291443
C -7.25586846 11.73985443 16.78833215 -0.00094802 0.00680336 -0.00346331
C -0.77042352 11.53331225 18.24672359 -0.00935690 -0.00199619 -0.00014544
C 5.66277244 16.48339802 12.30596296 0.00123543 -0.00063026 -0.00438956
C -0.85011722 17.39529432 12.14301972 -0.00177220 -0.00744892 -0.00288163
C -7.51321319 12.49630423 17.89915754 -0.00492162 -0.00208182 0.00331545
C 0.87862072 11.73575848 12.74031653 0.00378857 0.00562238 0.00794342
C 3.76619769 16.58630119 17.67521017 0.00132361 -0.00518547 0.00682322
C -2.59858877 17.32115773 17.83623881 -0.00971231 -0.00074697 -0.01026764
C -5.92509587 12.46914704 12.72897203 0.00228422 0.00235037 0.00389510
C -0.05699042 12.65160454 12.28558255 -0.00339770 -0.00025828 0.00907324
C -8.36526983 17.27036954 17.99941971 -0.00180027 0.00148008 0.00207360
C -1.72873817 16.27899943 18.11691455 -0.00448614 -0.00302335 -0.00707860
C 6.51465852 11.49640007 12.29552413 -0.00370654 -0.00048084 0.00298124
C -3.84364847 14.82989692 15.74190322 -0.00604587 -0.00839183 -0.00039167
C -4.10769115 9.86298025 14.75290847 0.00338023 -0.00281498 0.00539736
C 2.06415322 14.07070280 14.63713861 0.00289978 -0.00826447 -0.00707748
C 2.44745186 18.74991694 15.70337404 -0.00216269 0.00272089 -0.00059679
C -5.05819268 15.69416275 15.60343465 0.00529264 -0.00079232 0.00750634
C -2.75258572 10.26652831 14.95323788 -0.00866846 0.00317003 0.00433867
C 3.25999465 13.24838183 14.82872073 -0.00046597 -0.00070935 -0.00096976
C 1.19953665 17.97290094 15.68580934 0.00289110 -0.00738100 -0.00796904
C -5.76073645 13.45964924 23.41480570 0.00183692 0.00156145 -0.00212164
C -8.54941036 18.11436141 19.14439730 -0.00048355 -0.00181852 -0.00040236
C -1.96920246 15.46454379 19.21210514 -0.00414229 -0.00605680 -0.00275036
C 0.82625382 10.83666338 23.39382467 0.00108955 0.00389798 0.00265919
C -4.59144362 13.27638620 22.66738884 0.00295118 0.00415877 -0.00285565
C 3.32885296 18.04012089 19.90102086 0.00041547 0.00371245 0.00045022
C -3.21389424 15.60884494 19.88637011 -0.00080273 0.00130710 0.00115996
C 28.08718761 11.01743521 22.77996762 -0.00399479 -0.00037926 0.00197882
C -3.63835069 12.38444197 23.15333958 -0.00227165 -0.00063738 -0.00340278
C 2.37639592 17.15640431 19.48310230 0.00216851 0.00590884 0.00121686
C -4.20067471 16.43429333 19.40285452 0.00110273 0.00432285 -0.00191390
C -10.23127501 11.76182086 23.21336520 -0.00273130 0.00177946 0.00205350
C -3.82426371 11.60805216 24.33985462 0.00639951 0.00903869 -0.00140148
C 2.54233928 16.40742600 18.27398258 -0.00001772 0.00223924 -0.00273146
C -3.90104391 17.39715123 18.42576717 -0.00444946 -0.00104275 -0.00148546
C 1.80272943 12.49366562 0.07286728 0.00317377 -0.00876305 -0.00674451
C -2.04248716 11.55791845 18.83648236 0.00216969 0.00176890 0.00047317
C 0.68914933 16.44990766 23.85232393 -0.00503093 -0.00100658 0.00843404
C -5.73918513 17.22674375 23.82697106 0.00230953 0.00147026 0.00300368
C -8.59444199 12.13411550 18.75108861 0.00716814 0.00361680 -0.00283265
C -3.08514923 12.40872486 18.33963105 -0.00203891 -0.00193988 -0.00131296
C -11.54234838 17.13834842 24.11455127 -0.00153697 -0.00569538 0.00891139
C -4.69090141 16.39245551 24.25077291 -0.00099880 0.00368144 0.00134145
C 3.49176171 11.23848646 18.27195284 -0.00532273 -0.00632356 -0.00305203
C -6.90461129 14.77035135 21.69952262 -0.00377262 -0.00540016 -0.00935032
C -7.30262860 9.80680865 21.01699652 -0.00105339 0.00192490 -0.00349659
C -0.70455570 14.22921702 20.83750261 0.00052123 0.00401306 -0.00509599
C -0.38866926 19.00176190 21.92653050 0.00345703 -0.00218565 -0.00411991
C -7.84043084 15.86901525 21.47764608 0.00076867 0.00175389 0.00008546
C -6.24503958 10.82790376 21.33339070 0.00537781 -0.00095885 0.00137342
C 0.37616930 13.21218687 21.06282343 0.00104280 0.00391718 -0.00372684
C -1.59706827 18.03385912 21.90658841 0.00376081 -0.00192530 -0.00273721
C 3.00423269 22.92058104 4.89083012 0.00951837 0.00295726 0.00485235
C 0.38855263 27.81581314 0.93841960 0.00183245 -0.00507605 0.00541461
C 7.02681661 24.97629043 1.12954004 0.00028017 -0.00292374 -0.00488175
C 9.88494159 20.45285774 5.10745829 -0.00759296 -0.00023204 0.00079778
C 4.21563680 22.64092867 4.22815433 -0.00362004 0.00933985 0.00786492
C 12.23130735 27.77223778 1.65537348 -0.00336647 0.00405618 0.00586763
C 5.82028820 25.09699559 1.82477210 0.00379578 -0.00190895 0.00981233
C 37.12739246 20.40846241 4.45144286 0.00106834 0.00103490 -0.00347950
C 5.03707022 21.55715221 4.71894330 0.00444505 -0.00406401 -0.00155742
C 11.22917948 26.95350098 1.19108122 0.00415658 -0.00476725 -0.00078092
C 4.82753189 26.00965067 1.38121754 -0.00154079 -0.00147745 0.00748387
C -1.27305777 21.34215083 4.80701738 0.00187316 -0.00042684 0.00041030
C 4.80577290 20.78378898 5.83868007 -0.00589359 -0.00197490 0.00175857
C 11.46188543 26.11490815 0.00699857 -0.00040914 -0.00830011 0.00222490
C 4.93553761 26.61826350 0.20453683 0.00151136 0.00945859 0.01147492
C -1.51841008 22.25128887 5.84103383 0.00549526 -0.00558579 0.00500808
C 7.25017934 21.25313394 0.76243343 -0.00125233 0.00340672 0.00166279
C 9.81750790 26.17430468 5.49167753 -0.00159755 0.00194689 -0.00675110
C 3.08563693 26.75025627 5.55155873 -0.00096979 0.00363672 -0.00103316
C 0.01663436 22.05164207 0.41929605 -0.00128739 0.00992659 -0.00346422
C 6.15762200 21.90130418 0.30770953 -0.00300756 -0.00144387 0.00515549
C -2.47761508 26.83320773 5.81211519 -0.00128604 -0.00595966 -0.00069763
C 3.91174753 25.72081800 5.85143480 -0.00150064 -0.00036485 -0.00366143
C 12.75062110 21.30940347 0.10096621 -0.00657446 0.00656519 -0.00067928
C 1.90824764 24.30753459 3.20942433 -0.00202638 0.00048373 -0.00287823
C 1.55773475 19.19353295 2.42309937 -0.00383325 0.00323975 -0.00430316
C 8.20134143 23.57807933 2.68696205 -0.00475180 0.00584284 -0.00272506
C 8.48633661 28.51317204 3.50044375 0.00059344 -0.00149639 -0.00054699
C 0.66306617 25.13192671 2.99631648 0.00410940 0.00361378 -0.00708542
C 2.93042990 19.78180212 2.59957936 0.00168189 0.00203670 -0.00449085
C 9.54721335 23.05937358 3.04500386 -0.00000023 -0.00616898 0.00073222
C 7.45983191 27.49166536 3.33090539 0.00279245 0.00528189 -0.00764848
C 0.28127991 22.57085138 11.13866668 0.00901233 -0.00053772 0.00072982
C -2.58895800 27.54777655 6.99893483 0.00444676 0.00162815 0.01009169
C 3.67510288 24.92729807 6.94755603 0.00188486 -0.00335560 0.00088393
C 6.86795071 20.46517741 11.23945833 -0.00406884 0.00528905 0.00410521
C 1.51336243 22.41383340 10.41979443 -0.00116716 0.00811451 0.00511333
C 9.27264320 27.81168312 7.67524547 0.00095794 -0.00619663 -0.00192185
C 2.50298935 25.06726358 7.71208093 0.00340465 0.00253822 0.00039559
C -5.02842947 20.36074085 10.29220860 -0.00420394 0.00152306 -0.00964614
C 2.53398372 21.67602639 10.89628652 -0.00368332 0.00219771 0.00578914
C 8.30083495 26.90318000 7.25286626 -0.00094804 -0.00608896 -0.00014496
C 1.51046722 25.93092574 7.24019722 0.00270670 -0.00530702 0.00584512
C -3.99066395 21.22788697 10.69547110 0.00426982 0.00187416 -0.00260402
C 2.39799979 20.97504129 12.08412182 0.00557175 -0.00778757 -0.00381438
C 8.61374466 26.01279370 6.13470910 0.00045580 0.00176979 0.01106002
C 1.86101367 26.79279798 6.14629819 0.00705007 -0.00758556 0.00005242
C -4.18491890 21.92365411 11.91151350 -0.00952353 -0.00178930 0.00185760
C 3.59057749 21.12440815 6.46964815 -0.00301482 -0.00081036 -0.00181658
C 6.83346964 26.06780939 11.63101166 -0.00328352 -0.00270495 -0.00617104
C 0.17082620 26.68878726 11.59924029 0.00342707 0.00260497 -0.00169272
C -2.70046432 22.12206133 6.59755387 0.00690975 0.00213152 0.00135744
C 2.62974854 22.11151393 5.99995782 0.00091436 -0.00361886 -0.00147830
C -5.13383625 26.65770866 12.18866225 -0.00397730 -0.00269371 -0.00176219
C 1.18951146 25.87850214 11.98198476 0.00951884 0.00062039 -0.00378195
C 9.70562454 21.33400071 6.13645655 -0.00544073 -0.00344561 0.00122048
C -0.89090533 24.15274962 9.69922568 -0.00514923 -0.00029144 0.00370398
C -1.21814009 19.48914827 8.19011792 0.00195670 0.00077869 -0.00133156
C 4.99280843 23.68013607 8.57976266 0.00035608 0.00542904 -0.00267108
C 5.46249464 28.46474872 9.64107362 -0.00428934 -0.00608697 0.00129447
C -1.98498440 25.15597808 9.60273380 0.00613569 0.00556241 -0.00111274
C -0.00120722 20.35137086 8.28779352 0.00139921 0.00429779 0.00205152
C 6.19188217 22.84482699 8.77636280 0.00155170 -0.00078440 -0.00138943
C 4.23358978 27.65622365 9.54345009 0.00416892 -0.00214878 0.00216422
C -2.49524064 22.81669408 17.40345862 -0.00224867 0.00251484 -0.00816993
C -5.30928927 27.48774765 13.31348010 -0.00059784 -0.00092632 0.00334097
C 1.00709026 24.97278978 13.07397625 -0.00492021 -0.00647015 0.00597428
C 3.69945527 20.24637765 17.17956867 0.00257482 0.00589619 -0.00350199
C -1.34178307 22.73871640 16.61076528 0.00107864 -0.00022664 -0.00495825
C 6.16496194 27.69299966 13.89402839 -0.00136971 -0.00112005 -0.00290505
C -0.26141249 25.06436636 13.73362992 -0.00629409 0.00189912 0.01162092
C 31.22834336 20.58661026 16.47464161 0.00085689 -0.00166709 0.00064372
C -0.29673805 21.89217202 17.05101092 0.00257678 -0.00092807 0.00133294
C 5.32374473 26.74754066 13.43240975 -0.00056206 0.00056790 0.00325324
C -1.17113857 25.96384370 13.37864689 -0.00776380 0.00048930 -0.00116201
C -7.25292389 21.57683416 16.89204394 0.00318280 0.00594591 0.00055498
C -0.43511299 21.17475016 18.21484239 0.00616713 0.00089174 0.00494895
C 5.56391048 25.95408131 12.30877639 0.00039039 -0.00473425 0.00601498
C -1.01503711 26.74740020 12.28187913 -0.00190484 -0.00569666 0.00155543
C -7.36587745 22.32560699 18.01464107 0.00193257 -0.00058896 0.00582775
C 1.25223817 21.19456683 12.89065475 0.00232284 0.00162496 0.00257242
C 3.83549205 26.16983779 17.67433644 -0.01078130 0.00126239 -0.00976112
C -2.59368390 26.84220564 17.77417681 -0.00120038 0.00080365 -0.00823625
C -5.39009947 21.71309210 12.61838992 -0.00162666 -0.00279548 -0.00355577
C 0.13991586 21.87209275 12.31765861 -0.00060787 0.00738604 0.00100473
C -8.38472086 26.77777928 18.28842112 -0.00159936 -0.00446221 0.00561610
C -1.62378846 25.97911699 18.15902516 -0.00826005 0.00123441 0.00278164
C 6.71046520 21.31454250 12.29868841 0.00284938 -0.00155892 0.00068225
C -3.64273979 24.05321210 15.61603192 0.00214872 0.00059574 0.00198901
C -4.24997565 19.57929563 14.59330765 0.00291951 0.00125962 0.00039706
C 2.30701403 23.68223977 14.68895488 -0.00440528 0.00091704 -0.00072807
C 2.67489473 28.61640912 15.98146404 -0.00344576 0.00245253 -0.00300945
C -4.78577192 24.99395619 15.37959500 -0.00252283 -0.00249085 0.00717357
C -3.15947365 20.59567327 14.65319994 0.00931820 0.01238914 0.00528615
C 3.45012351 22.70859562 14.67523556 0.00421984 0.00504307 0.00495185
C 1.34338920 27.96215327 15.78355928 -0.00695844 0.00432601 0.00681478
C -5.81085363 22.74197314 23.54603596 0.00426755 0.00443709 0.00273146
C -8.59660989 27.77572014 19.18083931 -0.00345568 0.00426806 -0.00319401
C -1.80868304 25.17422846 19.28330680 -0.00714704 0.00008141 0.00263354
C 0.92507534 20.43748250 23.38264749 -0.00322061 -0.00473246 -0.00229718
C -4.67515291 22.61538932 22.75623085 0.00613818 0.00820414 0.00496615
C 3.66860372 27.70525252 20.00036934 0.00153235 0.00301929 0.00310418
C -3.10706173 25.04566743 19.83733726 -0.00083499 0.00519963 0.00672271
C 27.92421668 20.34458643 22.60086188 -0.00349464 0.00449334 -0.00396463
C -3.59337393 21.88185351 23.16754785 0.00078941 0.00218028 -0.00151994
C 2.62273619 26.86100768 19.64288126 0.00363504 0.00647174 -0.00755085
C -4.07880063 25.94874392 19.46725812 0.00742638 -0.00435975 0.00219568
C -10.49126162 21.19840656 23.02518047 -0.00378333 0.00248875 0.00488851
C 8.45876278 21.14665010 0.01434179 -0.00319757 -0.00065590 -0.00262598
C 2.74189289 26.09171883 18.49253558 -0.00079291 0.00389559 -0.00314956
C -3.87468514 26.82800116 18.34487861 0.00318742 0.00202926 -0.00131972
C -10.73961539 22.11057640 24.12950783 0.00124981 0.00162161 0.00099692
C -1.68600711 21.23032188 18.98062257 -0.00668991 -0.00080481 -0.00141876
C 0.64276794 26.07668702 23.69822181 -0.00499101 0.00512865 -0.00072951
C -5.83174968 26.56964820 23.87000981 -0.00225958 0.00555938 0.00309888
C -8.54196017 22.13124039 18.82529367 -0.00155346 -0.00085818 0.00471546
C -2.70655553 21.97229247 18.53391787 0.00027547 0.00268419 -0.00030985
C -11.44079559 26.98417291 24.21881512 -0.00506102 0.00470295 0.00128075
C -4.84417226 25.70029114 24.32524269 0.00323085 -0.00724597 -0.00446062
C 3.49090183 21.15645105 18.21303732 0.00815865 0.00898929 0.00142408
C -7.26346777 23.91989915 22.00403843 -0.00037379 -0.00525750 -0.00114996
C -7.30624086 19.46246638 20.72248641 -0.01046579 -0.00201340 -0.01049239
C -0.56851580 23.81779872 20.87650695 0.00521283 -0.00421762 -0.00705261
C -0.47936013 28.56470198 21.92509755 0.00542072 -0.00093253 0.00937556
C -8.51306648 24.78677990 22.01335683 -0.00372774 0.00629470 -0.00405420
C -6.07282479 20.24994429 20.95495250 0.00607843 0.00329771 -0.00101150
C 0.72646940 23.02997239 21.09086538 0.00162655 0.00183039 0.00195168
C -1.83155930 27.83316727 21.77855497 0.00029292 -0.00046359 -0.00377435
C 15.77870689 3.89142697 5.08318707 0.00494909 0.00270456 -0.00148322
C 13.35422264 8.37312252 0.84698691 0.00138522 -0.01023205 -0.00799518
C 19.98002655 6.22817694 1.03633828 -0.00397669 0.00937403 0.00047468
C 22.60076682 1.58647037 5.24449262 -0.01208529 0.01213084 0.00070211
C 16.95783154 3.76330864 4.43603346 -0.00699411 0.00957772 0.00240598
C 25.32757312 8.39857031 1.82794324 -0.00338027 0.00213178 0.00333442
C 18.72023392 6.10834971 1.60640228 0.00567945 -0.00328319 -0.00389309
C 10.79527681 1.03673186 4.35993382 -0.00463472 -0.00238647 -0.00482131
C 17.90073134 2.79773997 4.64423208 -0.00747543 -0.00361979 0.00401564
C 24.37048116 7.48595977 1.35704133 -0.00676045 0.00267566 -0.00339882
C 17.68490117 6.98341226 1.15354502 -0.00049653 -0.00713624 0.00061227
C 11.78729962 1.96415664 4.81979938 0.00366044 -0.00028179 0.00050352
C 17.81933308 2.05371251 5.81623016 0.00081435 -0.00098140 0.00554317
C 24.50844515 6.81070480 0.11903123 0.01043567 0.00325009 0.00053354
C 17.83545743 7.95583194 0.18023009 0.00274220 -0.00391653 0.01027287
C 11.53905400 2.87863649 5.81490493 0.00959633 -0.00526651 0.00240551
C 19.98340911 1.86390981 0.40260614 -0.00233834 0.00180919 -0.00494425
C 22.60049655 6.69324638 5.75138728 0.00350497 -0.00824877 -0.00431618
C 16.17618189 7.87215721 5.60848256 -0.00527157 -0.00479393 -0.00007968
C 13.73700808 2.67815451 0.66422683 -0.00641175 0.00051755 -0.00626576
C 19.00645039 2.79471969 0.10351982 0.00304799 -0.00076643 0.00498931
C 10.32033694 7.63767803 5.96528342 -0.00204681 0.00505967 0.00481339
C 17.12281502 7.00736205 6.15302626 -0.00064395 -0.00328009 0.00355475
C 25.65223195 1.91385627 0.24651168 -0.00197422 0.00008239 0.00081353
C 14.75427463 5.33803601 3.63162563 -0.00118688 0.00073161 -0.00036415
C 14.81748387 0.19106064 2.58572951 -0.00611671 -0.00380429 0.00071313
C 21.24434059 4.90135229 2.60555861 -0.00170378 0.00304321 0.00663685
C 21.73790695 9.30239207 3.60099266 0.00526305 -0.00279682 0.00862108
C 13.75354249 6.47360208 3.48323026 0.00388170 0.00427055 -0.00239854
C 16.07339125 1.04934465 2.83151765 -0.00319511 0.00574510 -0.00136803
C 22.44971133 4.08628286 2.78639888 0.00321638 -0.00043564 0.00443124