2880
Time=32000.00000001 pbc="T T T" Lattice="39.45772011 0.00000000 0.00000000 0.00000000 28.98726006 0.00000000 -12.03420209 0.00000000 24.42688039" energy=-18397.76399201 virial="33.47084747 0.98461799 -20.37445067 0.98461799 4.36579127 -30.12994152 -20.37445067 -30.12994152 -35.04916213" stress="0.00360429 0.00003933 -0.00085454 0.00003933 0.00265882 -0.00105972 -0.00085454 -0.00105972 0.00132059" Properties=species:S:1:pos:R:3:vel:R:3
C 3.24271903 3.44224429 5.11883262 -0.00629395 0.00333743 0.00452089
C 0.41300679 8.54071438 1.11371894 0.00072563 -0.00484604 0.00711356
C 6.92918578 5.62599404 1.06983137 -0.00165299 -0.00003134 -0.00832525
C 9.57867456 1.11165213 5.02135389 -0.00263842 -0.00478339 0.00062378
C 4.42343930 3.27655672 4.41825890 -0.00930376 -0.00310436 0.00072309
C 12.35831369 8.21813709 1.58593677 -0.00509944 -0.00728882 -0.00046229
C 5.73092447 5.65397242 1.72920447 -0.00851476 -0.00097808 -0.00070974
C 37.10229355 1.29348625 4.31878459 -0.00446242 0.00516083 0.00855313
C 5.37208815 2.44925666 4.93509760 -0.00415666 -0.00198622 0.00074700
C 11.33771607 7.33701322 1.23764918 -0.00329309 -0.00721575 0.00052257
C 4.78104491 6.58815380 1.42332800 -0.00221348 0.00038048 0.00537304
C -1.32890710 2.05724271 4.86902719 0.00144819 0.00316424 -0.00767513
C 5.18279144 1.69563770 6.07889032 -0.00532801 -0.00287016 0.00215713
C 11.41700294 6.56784275 0.04077876 -0.00376342 -0.00239826 0.00015158
C 4.99812437 7.57467329 0.43038874 0.00049258 -0.00508433 0.00464374
C -1.47399637 2.86568213 6.08269777 0.00146944 0.00424076 0.00006366
C 6.76386982 1.83608435 0.58058002 -0.00144714 0.00606474 -0.00173635
C 9.69394077 6.83393972 5.49170535 -0.00431122 -0.00094140 0.00648223
C 3.30950751 7.46454441 5.48560940 0.00720577 -0.00828021 -0.00085825
C 0.43488200 2.87204333 0.46223223 0.00672063 -0.00268094 -0.00424147
C 5.84918578 2.70772563 0.05300841 -0.00352691 -0.00778318 -0.00024222
C -2.43194180 7.71575536 6.00752834 0.00328308 -0.00490266 0.00722054
C 4.20264730 6.57459364 5.95371588 -0.01166952 0.00028855 0.00335231
C 12.66907797 1.88258900 0.12968200 0.00250429 0.00526131 0.00098093
C 2.02734613 4.84589792 3.46304476 -0.00391816 0.00067730 -0.00196854
C 1.72547591 0.28838374 2.32569531 -0.00086894 -0.00055992 -0.00277010
C 8.25623599 4.42374262 2.64029238 0.00086383 0.00326666 0.00699293
C 8.50861600 9.30355265 3.68158534 -0.00119543 -0.00140655 -0.00231405
C 0.90793906 5.77433115 3.27436282 -0.00153670 0.00102835 0.00132056
C 2.87473746 1.25294358 2.36318761 0.00024646 0.00296720 0.00349647
C 9.66274034 4.06276440 2.79122577 0.00752123 -0.00204217 -0.00596728
C 7.30261915 8.38246303 3.51701968 -0.00255215 0.00113344 -0.00037875
C -0.02612417 3.70424528 11.21897723 -0.00139245 -0.00498469 0.00292009
C -2.68023763 8.52577621 7.12932717 0.00031017 0.00690706 -0.00304980
C 3.98948616 5.85594568 7.11700816 -0.00130519 -0.00100114 -0.00363432
C 6.40549323 1.03854326 11.12985584 -0.00008504 0.00473043 -0.00454513
C 1.13516845 3.55462270 10.38714876 0.00318670 0.00454151 0.00090012
C 9.28313671 8.42987842 7.75264021 0.00382092 0.00267724 0.00279537
C 2.77128141 6.10730898 7.89689799 0.00172214 -0.00134253 -0.00151975
C 34.10812170 1.15852152 10.48448200 -0.00723314 -0.00223285 -0.00334338
C 2.08208937 2.58616204 10.62803167 0.00672139 0.00050248 -0.00474486
C 8.25639599 7.56349934 7.35378763 0.00166171 -0.00031911 -0.00265333
C 1.91188589 7.07118899 7.41761738 0.00000041 0.00186248 -0.00679770
C -4.36654798 2.01556428 10.91598991 -0.00126986 -0.00477986 -0.00461259
C 2.01812167 1.78880639 11.78064963 -0.00304020 0.00196410 -0.00231649
C 8.44200237 6.81651134 6.20449373 0.00391961 -0.00898509 0.00380255
C 2.25022498 7.86669366 6.31149732 0.00075658 0.00789649 -0.00243049
C -4.50960870 2.88498418 12.05742927 -0.00097591 0.00124219 0.00046823
C 3.84508032 1.64202472 6.63837994 -0.00117401 -0.00713793 0.00473357
C 6.74242832 6.75462617 11.66689467 0.00331944 -0.00146524 -0.00174580
C 0.34604935 7.67093157 11.80215221 0.00265471 -0.00289579 -0.00099421
C -2.75493859 2.89465508 6.61989089 -0.01042643 0.00235067 -0.01128215
C 2.93524026 2.67200887 6.22843704 -0.00100785 0.00062520 -0.00375005
C -5.34037392 7.70602983 12.07257106 0.00583309 0.00597963 0.00238806
C 1.28768123 6.83692225 12.21913177 0.00099558 -0.00160004 -0.00237900
C 9.40272187 1.87716477 6.20942988 -0.00015801 -0.00313320 -0.00246508
C -1.26273608 5.16382084 9.66401995 -0.00843057 0.00295496 -0.00463238
C -1.74859367 0.52373859 8.86783992 -0.00547703 0.00288000 -0.00073404
C 4.96015092 4.35182941 8.73929198 0.00488708 0.00661895 0.00244920
C 5.60913744 9.53112788 9.67077139 -0.00081898 0.00127670 0.00213030
C -2.53945416 5.95814941 9.49996929 -0.00282719 0.00090388 -0.00657254
C -0.69981377 1.47308023 9.28188839 -0.00683778 -0.00186643 -0.00736092
C 5.96507894 3.23608387 8.85492013 0.00015038 0.00285006 0.00097163
C 4.59673371 8.44554260 9.31774356 0.00753633 0.00076115 0.00092509
C -2.91459534 3.47358026 17.23440164 0.00568655 -0.00938739 -0.00060311
C -5.50074820 8.45467145 13.24858461 0.00250529 -0.00633243 0.01044412
C 1.00920320 5.92097384 13.29183348 0.00320727 0.00119588 0.00249677
C 3.83192431 1.12247926 17.18824065 -0.00838120 -0.00082328 0.00361415
C -1.73175496 3.36638031 16.52808538 -0.00303279 0.00080198 0.00325249
C 6.43676918 8.33807172 13.95977245 0.00262736 0.00357761 -0.00128347
C -0.24073343 5.92669228 13.89167591 0.00009733 0.00123450 0.00249231
C 31.02901128 1.15954577 16.67748275 -0.00696825 0.00340428 0.00472042
C -0.68589319 2.55290525 16.89605316 0.00168453 -0.00549079 0.00468699
C 5.39029397 7.52219448 13.50443083 0.00295106 0.00376388 -0.00090167
C -1.19909763 6.81414997 13.48043412 0.00141270 -0.00321980 0.00173977
C -7.45974585 2.07396080 17.10272480 -0.00517710 0.00224856 -0.00436653
C -0.77208840 1.77341263 18.06729465 0.00037415 0.00846730 0.00121925
C 5.50607069 6.76968518 12.32145544 -0.00163405 -0.00277860 0.00226124
C -1.01929177 7.68553983 12.36540631 0.00058461 0.00600145 -0.00379059
C -7.62318541 2.97162897 18.17320899 0.00226476 0.00230239 0.00062892
C 0.81718415 1.80327745 12.52524928 -0.00578205 -0.00111583 0.00194505
C 3.69117844 6.85333870 17.60761059 0.00792478 -0.00714523 -0.00730823
C -2.74590987 7.37281659 17.75997746 -0.00058802 0.00844397 0.00454193
C -5.73163210 2.74553990 12.69351548 -0.00306228 -0.00143295 0.00131761
C -0.14123140 2.85219087 12.25011047 0.00419097 -0.01192254 0.00729352
C -8.30337335 7.62863569 18.27532415 -0.00585351 0.00799802 0.01258561
C -1.79859095 6.51118797 18.31914441 0.00066366 0.00001164 0.00728943
C 6.29357523 1.92068660 12.20192827 -0.00160332 0.00483767 -0.00416182
C -4.08327769 4.96661191 15.74607997 -0.00261131 0.00343401 0.00079831
C -4.52725191 0.17253309 14.56214764 -0.00342339 0.00474480 0.00261765
C 2.25792030 4.46016019 14.65180037 -0.00299907 0.00605109 0.00997448
C 2.29647445 9.29207893 16.00543373 0.00422212 -0.00764099 0.00369098
C -5.31657180 5.78580949 15.64476739 -0.00474617 -0.00350365 0.00194828
C -3.17663516 0.83624405 14.66552019 -0.00343763 -0.00537567 -0.00755097
C 3.56602022 3.78648487 14.89104738 0.00188706 -0.01215513 -0.00036187
C 0.97001426 8.59835908 15.93311190 -0.00421614 -0.01061616 0.00523381
C -5.82746170 3.52600500 23.43494697 -0.00258674 -0.00192156 0.00749722
C -8.46729974 8.48682366 19.27861057 0.00019286 -0.00363758 -0.00358319
C -2.03616602 5.69412107 19.37691100 0.00340882 0.00099746 0.00111478
C 0.67789274 1.04040940 23.45928838 0.00176328 0.00018183 -0.00111941
C -4.61807973 3.33938529 22.78486968 -0.00623674 -0.00090748 -0.00660950
C 3.39018708 8.20683398 20.09683298 0.00315845 -0.00022932 -0.00152315
C -3.29913106 5.76255658 20.00040188 0.00553197 -0.00140175 0.00428432
C 27.90232079 1.28780665 22.57766460 -0.00234197 -0.00087622 -0.00142238
C -3.68863206 2.42072177 23.25547537 -0.00514879 0.00062892 0.00097490
C 2.33172779 7.44117750 19.57029583 -0.00637477 0.00675777 -0.00587053
C -4.18426365 6.73425560 19.56054941 -0.00063592 -0.00324355 0.00178675
C -10.44905412 2.08022902 22.89731665 -0.00955376 0.00625638 0.00528168
C -4.05052232 1.67378492 24.33084141 0.00378804 -0.00946217 0.00199956
C 2.45638204 6.77583536 18.33356857 -0.00424751 -0.00182956 -0.00133881
C -3.98763594 7.49977763 18.37528091 0.00665950 -0.00059068 0.00148610
C -10.43980987 2.81731630 24.13085504 -0.00074566 -0.00101917 -0.00316337
C -1.99003311 1.83080274 18.77304703 -0.00158367 -0.00067830 0.00110240
C 0.65442051 6.57388045 23.89231410 0.00376257 0.00593919 -0.00033671
C -5.79547133 7.51053825 24.13715396 0.00017288 -0.00190778 -0.00127510
C -8.76055121 2.82299835 18.86595693 0.00024502 -0.00360955 -0.00022897
C -3.00394481 2.59003798 18.34770635 -0.00054166 -0.00460748 -0.00134707
C 0.55338950 7.63610745 0.00544053 -0.00217544 0.00343140 -0.00145701
C 7.19683363 6.58883583 0.10623868 0.00632835 -0.00433551 -0.00874782
C 3.63431980 1.96059834 18.29943695 -0.00907892 0.00166207 -0.00327152
C -6.92881937 4.83208680 21.75692809 -0.00954064 0.00187712 0.00375728
C -7.29851401 0.45181390 20.77376549 0.00530937 0.00102767 0.00014785
C -0.80555142 4.46156507 21.01548518 -0.00514252 -0.00534025 -0.00746536
C -0.39294825 8.98156600 21.72719960 0.00107175 0.00156280 -0.00352571
C -8.25423383 5.44499383 21.46952261 -0.00395374 0.00003043 -0.00148253
C -6.08831922 1.26745715 21.03677944 -0.00780885 0.01169092 0.00683681
C 0.42194761 3.72720696 21.48490138 -0.00366006 -0.00309755 0.00467334
C -1.50950214 8.01099462 21.45447576 0.00333285 -0.00710874 -0.00667626
C 3.20521427 13.32426080 5.01479903 0.00111826 0.00145529 -0.00294611
C 0.50952772 18.09974146 1.19351546 -0.00658702 0.00408211 0.00527736
C 7.03410427 15.37933783 1.00885517 -0.00433308 -0.00731099 0.00126749
C 9.72445930 10.70132693 5.27453199 0.00319107 0.00429298 0.00753014
C 4.47210181 13.27331957 4.38327507 0.00630513 -0.00685118 -0.00363923
C 12.24907636 18.13916366 1.69505124 0.00548974 -0.00566341 0.00260707
C 5.90213890 15.48668360 1.76290452 -0.00001854 -0.00701590 0.00176620
C 37.20535386 11.01205806 4.44695635 -0.00325301 0.00228649 -0.00192332
C 5.39850905 12.38827704 4.85340122 -0.00283472 0.00547724 0.00137524
C 11.31233430 17.26188496 1.25751782 -0.00116649 0.00472743 -0.00938623
C 4.96526870 16.48787384 1.47880015 0.00009648 -0.00196354 -0.00669882
C -1.27605067 11.89119022 4.91125149 0.00186312 -0.00220792 0.00200469
C 5.14962898 11.51929994 5.92285195 0.00118726 -0.00324981 -0.00271581
C 11.56079197 16.43238080 0.15069078 -0.00415574 0.00293139 -0.00420355
C 5.22192704 17.42515422 0.46774502 0.00455382 -0.00130004 0.00155414
C -1.52725223 12.60058103 6.12110070 0.00143378 -0.00232278 -0.00219075
C 7.03929974 11.32819171 0.62336255 0.00094106 -0.00224326 0.00177161
C 9.68234405 16.51375579 5.61836928 0.00064457 0.00102039 -0.00330210
C 3.49973515 17.14056237 5.60358223 0.00115434 -0.00383930 -0.00686368
C 0.52845448 12.25058070 0.62156812 0.00153463 0.00464028 -0.00183573
C 6.07021375 12.23107189 0.26318617 0.00991849 -0.00736155 -0.00011859
C -2.40349957 17.35197419 6.00780168 -0.00057287 -0.00219240 -0.00471932
C 4.40035379 16.20216103 6.04258625 -0.00295939 -0.00184042 -0.00443218
C 12.24428022 11.23653313 0.11341845 0.00357544 0.00838751 -0.00386763
C 2.10684196 14.91004746 3.61230140 0.00579476 -0.00128130 -0.00166397
C 1.70302316 9.92634443 2.57602017 -0.00265854 -0.00523736 -0.00057779
C 8.44312626 14.23401183 2.58878444 -0.00141094 -0.00072787 -0.00312336
C 8.38556098 18.81797605 3.52195027 -0.00366697 0.00086490 0.01596599
C 0.77352874 15.56786578 3.54051761 0.00159012 -0.00395623 -0.00124461
C 2.97023665 10.73973264 2.78822152 -0.00172574 0.00304616 -0.00773743
C 9.37636528 13.05407551 2.80066869 0.00275022 0.00349600 0.00295312
C 7.15564597 17.98652261 3.52930907 -0.00515141 0.00195626 -0.00539728
C 0.41856880 13.34954782 11.27351300 -0.00314855 0.00593420 -0.00380462
C -2.50739106 18.00102503 7.26164659 -0.00391806 -0.00494346 0.00291283
C 4.17892012 15.40663314 7.13570008 0.00443308 0.00438642 -0.00294504
C 6.86357175 10.75638164 11.32684283 -0.00011720 -0.00509145 0.00503418
C 1.61054686 13.17104025 10.62656446 0.00342061 0.00552521 -0.00283299
C 9.44613105 18.23847727 7.83002370 0.00195618 -0.00490764 0.00294758
C 2.99460382 15.66434937 7.87086352 -0.00382753 -0.00087540 0.00034380
C -4.97178273 10.77302785 10.60831235 -0.00667844 0.00137476 -0.00369314
C 2.59287828 12.28615351 11.18989251 -0.00426999 -0.00439361 0.00103289
C 8.44429239 17.38202881 7.44900018 0.00267542 -0.00074891 -0.00370181
C 2.10530466 16.61182487 7.48276728 -0.01394462 0.00927716 -0.00130536
C -3.95831761 11.65585012 10.99973717 0.00481926 0.00079704 0.00091700
C 2.33274716 11.52464336 12.36950624 0.00274520 -0.00167616 -0.00483570
C 8.57589312 16.46486788 6.42954620 0.00290508 -0.00295343 -0.00779640
C 2.34410441 17.35448719 6.29795480 0.00203620 -0.00131810 -0.00516557
C -4.07068118 12.55406473 12.13681050 0.00733726 -0.00147873 0.00187631
C 3.87560063 11.54977646 6.50654265 0.00323192 -0.00618676 -0.00665572
C 6.72119249 16.39907013 11.67869321 0.00178178 -0.00002236 0.00237487
C 0.32536433 17.41404259 11.80646180 0.00048721 0.00504948 -0.00370408
C -2.72741557 12.41507747 6.78474596 0.00030764 -0.00053665 -0.00030252
C 2.95532583 12.41417242 6.05328604 0.00295094 -0.00684190 0.00233967
C -5.34924855 17.35923787 12.21895140 0.00160470 0.00280731 0.00216214
C 1.29156015 16.57415699 12.27043147 -0.00226407 0.00708033 -0.00556085
C 9.53918544 11.56259582 6.37595680 -0.00027040 0.00120981 -0.00342075
C -0.71582546 14.85516466 9.76207473 -0.00179741 -0.00261964 -0.00394530
C -1.54363340 9.89996422 8.75459504 0.00328627 0.00004742 -0.00285016
C 5.30817083 14.10375546 8.83129438 0.00106920 0.00177855 0.00068065
C 5.56471029 18.91490080 9.71730014 0.00042079 0.00147175 0.00593580
C -1.87342727 15.84596700 9.47431601 0.00289991 -0.00478159 -0.00176203
C -0.42069722 10.82397900 8.95092947 -0.00231370 0.00532105 0.00119264
C 6.49668038 13.14672868 9.03586386 0.00371704 0.00001238 0.00123560
C 4.28979232 18.24194579 9.45232060 0.00100438 -0.00028483 0.00500650
C -2.84064334 13.26224681 17.42533606 0.00017487 -0.00189982 0.00368679
C -5.66907441 18.21057050 13.27532343 -0.00280394 0.00395059 -0.00177037
C 1.08516056 15.67636658 13.34606023 -0.00280749 -0.00014480 0.00105846
C 3.64142922 10.80658368 17.46654413 -0.00193802 -0.00117686 -0.00063146
C -1.55639167 13.35645124 16.78240154 0.00150874 0.00188598 0.00724535
C 6.46384058 18.02701278 13.97882821 0.00726074 -0.00431802 -0.00064658
C -0.20615026 15.79929191 13.99112906 0.00132596 -0.00286896 0.00226866
C 31.17411890 10.91392954 16.76190104 -0.00157024 -0.00035906 -0.00256744
C -0.59645852 12.46816010 17.15308195 -0.00575697 -0.00275365 -0.00561449
C 5.50271474 17.09791871 13.63096744 -0.00189448 0.00092290 0.00048877
C -1.15625166 16.68415584 13.60026572 -0.00457157 -0.00564199 -0.00714964
C -7.29611077 11.70320235 17.21974151 -0.00206429 -0.00291772 -0.00610236
C -0.88480624 11.42087225 18.06787928 -0.00146307 -0.00036962 0.00314002
C 5.57320301 16.31771178 12.51763980 0.00020788 0.00585741 0.00153230
C -0.92897355 17.55368776 12.48209056 0.00148298 0.00534019 0.00256417
C -7.53881432 12.58646047 18.32821840 0.00373410 0.00780093 0.00277942
C 1.11273687 11.74607486 12.98861758 0.00391978 0.00221529 0.00919052
C 3.58744744 16.47915816 17.77448551 -0.00253794 -0.00378108 0.00017798
C -2.39586607 17.43397196 17.90947554 -0.00803444 0.00016989 -0.00028489
C -5.35054289 12.50120377 12.75627777 -0.00332366 -0.00300358 -0.00435004
C 0.21165660 12.53930472 12.42887568 0.00127678 -0.00330777 0.00090807
C -8.39408579 17.42626499 18.47841201 0.00090524 -0.00094544 -0.00100469
C -1.75998091 16.24389713 18.19753631 0.00801110 0.00026440 -0.00208342
C 6.66241687 11.58823797 12.49902160 -0.00669698 0.00287262 -0.00496822
C -3.89917798 14.76272881 15.79967622 -0.00388073 -0.00015942 -0.00078085
C -4.44067949 9.88684806 14.86429384 -0.00283349 0.00350577 0.00360796
C 2.22379779 14.17311000 14.84587160 -0.00136881 0.00701971 0.00292120
C 2.79273882 19.19872306 15.92980717 -0.00467581 0.00164272 -0.00567498
C -4.96351392 15.81191833 15.65780099 0.00856265 0.00144274 0.00025185
C -3.16346798 10.63309258 15.09206847 0.01009499 -0.00048003 -0.00292698
C 3.43684707 13.34518449 15.03633499 0.00132489 0.00239748 0.00172103
C 1.63884025 18.23857919 15.72887371 -0.00447883 -0.00826366 -0.00207294
C -5.83396216 13.06550419 23.56308391 -0.00285620 0.00404112 -0.00349872
C -8.62717037 18.25782078 19.61715542 -0.00533245 0.00241860 0.00181414
C -2.11082475 15.47930548 19.31141991 0.00255740 0.00051654 0.00163174
C 0.49934262 10.43553077 23.43426833 -0.00297349 0.00446830 0.00611634
C -4.66054029 12.92999123 22.84413852 0.00220380 0.00391234 0.00851990
C 3.23428780 18.01723252 20.09587610 0.00487405 0.00411909 0.00093172
C -3.20831021 15.82605339 20.08234029 -0.00448735 0.00115193 -0.00040950
C -11.15326745 10.66098669 22.72985970 -0.00133519 0.00563331 -0.00284969
C -3.71921877 12.00027854 23.18901971 0.00354784 0.00800367 0.00433390
C 2.27090648 17.15295742 19.72784722 0.00101392 0.00105396 -0.00600103
C -3.91688996 16.94611268 19.72116635 0.00250042 -0.00916589 -0.00466581
C -10.19517894 11.62364867 23.10031734 -0.00123153 0.00623780 0.00541445
C -3.82205649 11.16230644 24.29633443 -0.00485454 -0.00041506 -0.00113435
C 2.40268425 16.40216643 18.57003466 -0.00043321 -0.00200580 -0.00344170
C -3.56337898 17.74800835 18.61625234 -0.00291461 0.00127388 -0.00535651
C -10.27377280 12.38063969 24.33702755 -0.00256853 0.00364139 0.00296687
C -2.04117987 11.42123681 18.75704544 0.00311606 -0.00121832 -0.00544098
C 0.74271537 16.60794799 23.91762070 -0.00345199 0.00631444 0.00220636
C -5.67738212 17.28848191 24.04116681 0.00258083 0.00236642 -0.00405557
C -8.75784881 12.48923634 18.99486886 -0.00044107 -0.00087801 -0.00181228
C -3.03168496 12.38702701 18.44337527 -0.00068650 0.00078389 -0.00021753
C 0.69795251 17.19911349 0.14735588 -0.00524406 -0.00185268 -0.00828018
C -4.78860817 16.25851386 24.31096768 0.00276395 -0.00046857 -0.00156286
C 3.50850683 11.73220700 18.49618470 -0.00280726 -0.00262010 -0.00228557
C -6.88415503 14.58443381 22.02787000 0.00058273 0.00092931 0.00516900
C -7.06901975 9.56037057 20.93376640 0.00496268 -0.00597155 -0.00040193
C -1.01009149 13.93217686 20.84838502 0.00988453 0.00434642 -0.00374709
C -0.35324019 19.43886374 21.81859786 0.00176589 -0.00539767 -0.00417113
C -8.00033587 15.56818136 21.82862430 -0.00483542 -0.00207387 -0.00470551
C -5.85186606 10.37298180 20.98907966 -0.00331773 -0.00504976 0.00764971
C 0.12019460 12.95224081 20.95215432 -0.00140147 -0.00340939 0.00199469
C -1.63448645 18.66442943 21.72276736 0.00284005 -0.00284861 0.00315749
C 2.97099449 23.00611140 5.05838364 0.00186314 -0.00223650 0.00452027
C 0.37329884 27.89357799 0.80791942 0.00451787 0.00751784 -0.00263752
C 6.90188850 25.22717142 1.00296263 -0.00386764 0.00331742 0.00553727
C 9.60549732 20.30668665 5.00427529 -0.00647278 -0.00495001 -0.00038632
C 4.27334650 23.02008726 4.40494500 -0.00288210 0.00640927 -0.00185033
C 12.62685079 27.74477136 1.55753677 0.00277527 0.00363496 0.00382520
C 5.63296860 25.27476473 1.60808851 -0.00324870 -0.00545693 -0.00223201
C -2.15536966 20.60421083 4.56328668 0.00110335 -0.00626971 -0.00377377
C 5.17864826 22.12344064 4.85717434 0.00311548 0.00305037 -0.00354446
C 11.65412359 26.83720742 1.26254762 -0.00205575 0.00161936 0.00473451
C 4.65893676 26.15066383 1.08354179 0.00138640 0.00022287 -0.00252830
C -1.15776202 21.52561855 5.03537165 -0.00233176 0.00450991 0.00449959
C 4.95546147 21.38417522 6.07722458 -0.00631136 -0.00631490 -0.00050613
C 11.79005532 26.07087445 0.10983137 -0.00085804 0.00263787 -0.00257387
C -7.09839401 26.93263351 24.39786790 0.00026658 -0.00319362 -0.00378435
C -1.37362838 22.24414809 6.24250105 -0.00070259 0.00792700 0.00209169
C 7.03555009 21.35951623 0.63860282 0.00091027 -0.00765796 0.00269233
C 9.39938789 26.17189476 5.40836411 -0.00128526 -0.00041446 -0.00232944
C 3.00152999 26.92530245 5.31237280 0.00377253 -0.00000875 0.00050684
C 0.57563998 21.90005916 0.76029377 0.00150193 -0.00206852 0.00033517
C 6.05607850 22.24937580 0.28503950 0.00555177 -0.00359906 -0.00129254
C -2.28103888 27.25230152 6.01023062 0.00600577 -0.00427950 -0.00241109
C 4.04988848 26.10072298 5.79161459 -0.00356432 -0.00135973 -0.00451387
C 12.77558737 21.30459517 0.20630201 0.00274742 -0.00444498 -0.00396463
C 1.77856717 24.40649708 3.49125767 0.00024375 -0.00097131 -0.01325215
C 1.72015004 19.73283253 2.68404810 -0.00229593 0.00287135 0.01193468
C 8.10563134 23.76835770 2.61195500 -0.00865725 0.00286562 -0.00545920
C 8.41738479 28.60740542 3.53155652 0.00468001 0.00051234 -0.01013712
C 0.61907816 25.41555043 3.20231139 -0.00409306 -0.00911605 -0.00822408
C 2.97447996 20.58019265 2.77960137 -0.00640112 0.00065927 0.00156612
C 9.40157193 23.16538240 2.92691409 -0.00238197 0.00191198 0.00173884
C 7.20272828 27.75551727 3.31210744 -0.00053833 0.00058100 -0.00102890
C -0.07107513 23.01691005 11.35485992 -0.00445182 0.00665935 0.00032588
C -2.56938857 28.05735547 7.13313122 0.00212001 0.00697740 0.00587800
C 3.88570557 25.29786300 6.88252102 -0.00555752 -0.00265895 0.00158614
C 6.79468419 20.31924985 11.28622742 -0.00062504 0.00056555 -0.00374099
C 1.14197158 22.94779578 10.66284755 -0.00679263 -0.00393514 0.00359634
C 9.11000637 27.61722587 7.72418895 0.00234901 0.00068523 -0.00146619
C 2.71520926 25.28641225 7.52548963 0.00721126 0.00475830 0.00409579
C 34.08386393 20.42399584 10.76694175 0.00138271 0.00681601 -0.00064661
C 2.21212846 22.14712215 11.12370241 -0.00687764 0.00511161 0.00240820
C 8.05438400 26.72314546 7.28911391 0.00950185 -0.00035804 -0.00491272
C 1.70755582 26.15146336 7.18022014 -0.00112854 -0.00055553 0.00672660
C -4.39963327 21.31447684 11.11253704 0.00003365 0.00755788 0.00515521
C 2.07229592 21.38451523 12.31455930 0.00573740 -0.00305613 -0.00280084
C 8.24521266 25.96888538 6.14893721 0.00614736 0.00516398 0.00386212
C 1.83072916 26.98512686 6.00780982 0.00032528 -0.00784032 0.00090734
C -4.64044248 22.22090698 12.19340651 -0.00514521 0.00176279 0.00083947
C 3.73994099 21.43384437 6.73839590 0.00685923 -0.01606848 -0.00189669
C 6.78286734 25.91215028 11.59777460 0.00097043 -0.00234853 0.00082716
C 0.02349207 26.77971396 11.61634529 -0.00102934 -0.00431754 0.00899458
C -2.46871736 21.92260263 7.03865295 0.00382397 0.00470417 0.00065472
C 2.72480616 22.19750958 6.18211369 -0.00809659 0.00719525 -0.00579708
C -5.64158707 27.06554358 11.86826711 -0.00032840 -0.00729658 -0.00007344
C 1.10122447 25.97786472 12.11886873 -0.00015518 -0.00677280 -0.00384197
C 9.44791037 21.11330582 6.14372764 -0.00073028 -0.00220719 0.00385150
C -1.21846611 24.52112155 9.85222245 -0.00262596 -0.00915481 -0.00194144
C -1.26123071 19.45161303 8.81646927 0.00138935 -0.00446851 0.01052769
C 4.98530894 23.86127081 8.53701304 -0.00002532 0.00261070 -0.00397298
C 5.27674712 28.46583311 9.70123201 -0.00039946 0.00046599 -0.00039658
C -2.56520067 25.11589154 9.48722077 0.00152723 -0.00042986 -0.00363317
C -0.17488447 20.42894648 8.88375945 0.00464087 -0.01162832 0.00846887
C 5.98287513 22.79180076 8.79159270 0.00602355 -0.00142723 -0.00934818
C 4.08791578 27.47285613 9.48659967 -0.00526277 -0.00657683 -0.00206897
C -2.90757183 23.07534236 17.25198329 0.00258281 0.00067619 0.00129485
C -5.82867207 27.81341974 13.05916398 -0.00177132 -0.00667531 -0.00447952
C 0.96508259 25.22090822 13.25451375 -0.00331004 0.00629472 -0.00206911
C 3.92097020 20.70472141 17.44751317 -0.00437566 -0.00648359 -0.00671419
C -1.75264081 22.97654204 16.41755833 -0.00372996 0.00408238 0.00159439
C 6.13940177 27.73600692 13.69619841 -0.00645923 0.00101652 -0.00410393
C -0.34013644 25.26333687 13.86084453 -0.00157791 0.00319994 -0.00840811
C -8.22491940 20.60268659 16.77813912 0.00554277 -0.00030506 0.00533531
C -0.75631502 22.11501164 16.84926496 -0.00280090 -0.00053515 -0.00360547
C 5.17086768 26.79422608 13.18144705 0.00095343 -0.00175781 -0.00095875
C -1.32495226 25.99513296 13.38534572 0.00433433 -0.00785427 0.00651479
C -7.29138072 21.51842484 17.17413504 -0.00565369 0.00704791 0.00474998
C -0.82206700 21.38229623 17.99550166 -0.00108805 0.00299206 0.00607843
C 5.52317713 25.86333114 12.17657095 -0.00324010 0.00113972 -0.00204783
C -1.20680351 26.83311263 12.20733301 -0.00718117 0.00497489 0.00077796
C -7.41571114 22.16738968 18.42291314 0.00204386 -0.00423436 0.00717664
C 0.76426878 21.26220257 12.85930691 0.00123441 0.00695933 0.00214179
C 3.99780723 26.14865674 17.65602020 -0.00110995 -0.01467953 0.00373212
C -2.68606904 26.83518867 17.63377381 0.00216937 -0.00011707 0.00039553
C -5.84760613 22.13332371 12.88586139 0.00026618 0.00129438 -0.00525692
C -0.21265327 22.11737013 12.45809799 0.00300413 0.00400902 0.00152307
C -8.39010382 27.38410614 17.91718403 -0.00925931 -0.00853841 -0.00336500
C -1.69919837 26.05566809 18.19264486 0.00349479 -0.00234098 -0.00048363
C 6.46562781 21.19012964 12.33138415 0.00095122 0.00052696 0.00413083
C -4.30676281 24.38625163 15.72308770 -0.00898281 -0.00160836 -0.01000174
C -4.55553198 19.65009361 14.81853354 0.00188837 0.00699523 -0.00221846
C 2.26518712 23.93075843 14.79196657 0.00025569 0.00773623 -0.00112772
C 2.62177066 28.63576226 15.62898224 -0.00184358 0.00089849 -0.00202171
C -5.58771171 25.10783020 15.50241629 -0.00416020 -0.00765523 0.00116609
C -3.48390800 20.65869988 15.12125433 -0.00013573 -0.00332973 -0.00011464
C 3.38642610 22.91342805 14.98457643 0.00967095 0.00072252 0.00405686
C 1.25945597 28.01208561 15.43436839 -0.00998078 0.00462294 -0.00308016
C -5.80283233 23.01596569 23.53793194 -0.00328076 -0.00104437 -0.00627733
C -8.41768162 28.04382409 19.15528924 0.00858177 0.00594149 -0.00041809
C -1.90013228 25.26316814 19.31922214 0.00335655 -0.00607023 -0.00093667
C 0.96730561 20.56842567 23.47615131 0.00065225 -0.00216195 0.00946537
C -4.60329365 22.89697872 22.81658200 -0.00825978 -0.00009696 -0.00129259
C 3.59739953 27.84910741 19.84430288 0.00239353 -0.00066234 -0.00344678
C -3.17851348 25.25669294 19.86917323 0.00222776 -0.00660003 0.00372850
C 28.16517788 20.63985376 22.87745820 0.00454245 0.00094834 0.00091240
C -3.59424329 22.10071991 23.28216612 -0.00595706 0.00730353 0.00491298
C 2.64828330 26.95865785 19.48654672 -0.00505336 0.00033853 0.00415960
C -4.06787912 26.20806192 19.42319065 -0.00451026 -0.00084223 0.00444825
C -10.26468280 21.41897560 23.17137674 -0.00151626 0.00165016 -0.00490780
C -3.72840859 21.27597201 24.36725235 -0.00329584 0.00568433 0.00485518
C 2.77970644 26.14164925 18.33458037 -0.00551349 -0.00532477 -0.00094899
C -3.90914858 26.94520798 18.31134832 -0.00155237 0.00670564 -0.00743763
C -10.29647566 22.05951860 24.41625639 0.00120373 0.00007008 0.00331213
C -1.96341063 21.47204487 18.80854446 -0.00706550 0.00205491 -0.00135953
C 0.96958508 26.16042357 23.80096563 -0.00377240 -0.00247440 0.00193716
C -5.88795938 26.74871468 23.76234536 -0.00086164 -0.00258496 0.00200175
C -8.70309076 22.13395793 19.01597104 0.00039832 -0.00294981 -0.00156940
C -3.06371754 22.24368953 18.37601616 -0.00098775 0.00525781 0.00361800
C -11.61851643 27.11559463 24.08523873 0.00233476 -0.00286615 0.00155258
C -4.90015524 25.92910969 24.27509027 0.00381875 0.00247537 0.00680520
C 3.58095321 21.55596001 18.50729656 -0.01027909 -0.00636910 0.00545348
C -6.95928092 24.44694156 22.06813376 0.00182376 -0.00230505 -0.00278326
C -7.30495542 19.49219375 21.21989062 0.00133179 0.00275327 -0.00013733
C -0.81045029 24.00079939 20.99151852 -0.00349919 0.00091400 -0.00595716
C -0.45961089 28.56967118 21.89053679 0.00193395 -0.00402586 -0.01018658
C -8.16886360 25.27112217 21.79347310 0.00383552 0.00242385 0.00170272
C -6.16698101 20.43061318 21.45193419 0.00551298 -0.00274239 0.00179150
C 0.20780850 22.98174907 21.28863520 0.00590189 0.00444968 -0.00817371
C -1.35450589 27.39551406 21.76569983 0.00168050 -0.00248631 -0.00513246
C 16.41497296 3.77187392 4.92368070 -0.00103028 0.00776847 0.00587221
C 13.49926882 8.35752990 0.84999193 -0.00137062 0.00388066 -0.00198236
C 20.15558211 6.02798879 1.07727190 -0.00155228 -0.01225112 -0.00135369
C 22.84811094 1.04771584 5.21087008 -0.00141846 -0.00159570 0.00690219
C 17.56130128 3.56378025 4.20358991 -0.00480860 -0.00219476 0.00193697
C 25.14609378 8.32475121 1.63509779 0.00536134 0.00008320 -0.00964275
C 18.93452520 6.14854632 1.76652044 0.00254177 -0.00369935 -0.00042673
C 10.74742470 1.30111716 4.35701208 0.00142751 -0.00211709 -0.00331035
C 18.47225725 2.57956372 4.61120491 0.00351665 0.00721705 0.01440242
C 24.14807741 7.53963321 1.11260378 -0.00259308 -0.00191940 0.00354124
C 17.93410672 6.95997580 1.38144816 0.00272944 0.00364366 -0.00034966
C 11.72675790 2.15703708 4.77107238 -0.00147464 -0.00012463 -0.00043969
C 18.21871063 1.87510922 5.79922713 -0.00018913 0.00073239 -0.00104345
C 12.35438550 6.80177233 24.34162709 0.00720638 0.00369927 -0.00253384
C 18.05938182 7.75690488 0.20802151 -0.00215253 -0.00375152 -0.00605435
C 11.59324749 2.92048222 5.98498256 -0.00788067 -0.00312687 0.00835054
C 20.33454064 2.06558752 0.34725939 -0.00069807 -0.00031041 0.00391381
C 23.03695323 7.01169509 5.49541675 -0.01045274 0.00250468 0.00882350
C 16.37341305 7.73087398 5.49892267 -0.00121351 0.00249786 0.00559876
C 13.70367414 2.69476459 0.40251229 -0.00604587 0.00530229 -0.00041762
C 7.24975671 2.91433401 24.37262524 -0.01231546 -0.00474179 0.00213745
C 10.69292499 7.63914186 5.96624618 0.00106952 0.00777994 -0.00612738
C 17.41869711 7.00279900 5.83932214 -0.00024677 -0.00279801 0.00053265
C 25.94040017 2.28073916 0.12719714 0.00020444 -0.01031140 -0.00488240
C 15.15537448 5.06044094 3.35760225 -0.00552536 -0.00306353 -0.00151434
C 15.03666343 0.40673390 2.32459008 -0.00239730 0.00230346 0.00008448
C 21.27967748 4.49761184 2.57629165 0.00584084 0.00416560 -0.00989092
C 21.72641431 9.53569274 3.36942445 -0.00246297 0.00141327 -0.00297028
C 14.04851321 6.00585584 3.34798781 0.00108002 -0.00024810 0.00484835
C 16.18282656 1.34778815 2.49238099 0.00277660 0.00099987 -0.00352929