2880
Time=12000.00000000 pbc="T T T" Lattice="39.64172984 0.00000000 0.00000000 0.00000000 28.98297647 0.00000000 -12.00424094 0.00000000 24.30540221" energy=-18396.74665266 virial="-13.73949119 17.88230676 10.30817350 17.88230676 25.76893789 6.74861798 10.30817350 6.74861798 55.71194196" stress="0.00199760 0.00062979 0.00035785 0.00062979 0.00333821 0.00027431 0.00035785 0.00027431 0.00444773" Properties=species:S:1:pos:R:3:vel:R:3
C 3.17649133 3.83163357 5.07655105 -0.00253548 0.00248139 0.00018782
C 0.25633005 8.51878965 0.82927130 -0.00074817 0.00777341 -0.00408709
C 6.77670238 6.13288588 0.98986161 0.00260727 0.00017739 0.00258201
C 9.89934092 0.97046406 5.01179747 0.00058195 0.00108677 0.00624472
C 4.35104470 3.76779932 4.30793916 0.00430255 -0.00486007 -0.00063812
C 12.28633864 8.65184201 1.61173616 -0.00911816 0.00103074 -0.00098258
C 5.50484457 6.24318571 1.70822681 0.00240158 0.00221165 0.00159910
C 37.43856010 1.40202898 4.30970236 0.00262000 0.00122970 -0.00351493
C 5.38679231 2.99834244 4.77792189 0.00411354 0.00393222 -0.00200803
C 11.20017323 7.79089207 1.22463165 -0.00232144 0.01023275 -0.00433727
C 4.59867527 7.16873999 1.31794375 0.00018972 -0.00256456 0.00168746
C -1.25248867 2.23744772 4.80577107 -0.00277399 -0.00391348 0.00323240
C 5.27644666 2.23900311 5.91697707 0.00448578 -0.00661236 -0.00314191
C 11.53493859 6.86870163 0.23484142 0.00091508 -0.00354144 -0.00113686
C 4.84521974 8.00823784 0.12380551 0.00157490 0.00322269 0.00573561
C -1.41703432 2.98399260 6.06610651 0.00078108 -0.00227197 0.00641729
C 6.84217908 2.14139231 0.46706773 -0.00454573 -0.00237341 0.00563458
C 10.01731400 7.00021071 5.46471186 0.00249096 -0.00341477 0.00081235
C 3.31672314 7.57826388 5.54410700 0.00352958 0.00178615 -0.00136135
C 0.07550679 2.84307709 0.42547035 0.00289262 -0.00414112 -0.00463998
C 5.88490260 3.02390055 0.04587403 -0.00529844 0.00029234 -0.00650324
C -2.55233509 7.56220863 5.71771355 -0.00124657 -0.00260875 0.00419694
C 4.30091511 6.72956637 6.02075025 -0.00918225 0.00531274 -0.00401008
C 12.61731286 1.99844444 0.15308064 0.00309814 -0.01014145 0.00255678
C 1.90156940 5.26983529 3.57645662 0.00564267 0.00178449 0.00041699
C 1.58319269 0.33579114 2.48850066 -0.00235849 -0.00350475 0.00214871
C 7.91292159 4.52989271 2.49928225 -0.00673083 0.00717984 0.00554252
C 8.60842552 9.47300719 3.62413561 0.00660937 0.00057178 0.00327063
C 0.74649787 6.16703042 3.52493654 0.00024500 -0.00256789 -0.00751312
C 2.75543739 1.30128342 2.60417690 -0.00344309 0.00035692 0.00116990
C 8.97160557 3.47894563 2.58871078 -0.00141545 0.00178226 -0.00296115
C 7.39839729 8.46668188 3.44358364 -0.00254987 0.00787780 -0.00358032
C 0.09230102 3.70577132 11.05450118 -0.00478149 -0.00233291 0.00111756
C -2.64698716 8.33195628 6.90724785 0.00150898 -0.00312772 -0.00073636
C 4.14930029 5.89597923 7.08784343 0.00126069 0.00501079 -0.00354115
C 6.76583494 0.96469409 11.13925504 -0.00274094 -0.00152198 -0.00527579
C 1.34087116 3.68464066 10.39567741 -0.00039707 -0.00134471 0.00340508
C 9.62489119 8.54391676 7.77245188 0.00725801 -0.00381236 0.00288227
C 2.92962744 5.89770555 7.79772722 0.00438356 -0.00098205 -0.00013862
C -5.11808833 1.00661466 10.49863637 0.00714829 0.00641641 -0.00370493
C 2.34593257 2.76477369 10.75342218 -0.00009689 -0.00368129 -0.00583880
C 8.60619000 7.72961731 7.37007296 -0.00273791 0.00157297 0.00912367
C 1.97386417 6.85570967 7.39829325 -0.00163831 0.00718704 -0.00280893
C -4.30992542 2.13158814 10.77444825 -0.00402920 -0.00771561 0.00474319
C 2.14102251 1.86607785 11.84285232 0.00018869 -0.00036630 -0.01253544
C 8.76118672 6.93152350 6.13110691 -0.00786115 -0.00189936 -0.00004701
C 2.12824681 7.66995507 6.25282072 -0.00291427 0.00618885 0.00978425
C -4.57348248 2.95949218 11.82274649 -0.00786271 -0.00022922 0.00108507
C 4.04914834 2.13905185 6.55296865 0.00533103 0.00566847 -0.00399960
C 6.91109574 6.91813326 11.60711341 0.00158277 -0.00166806 0.00712736
C 0.37562349 7.62122229 11.67944811 0.00170307 0.00331179 0.00231658
C -2.61861333 2.73834522 6.71868959 -0.00226631 -0.00154198 0.00338831
C 3.00282897 2.98456221 6.15360280 0.00764322 -0.01012743 0.00556486
C -5.42379972 7.89943293 12.03640324 -0.00547915 -0.00518910 0.00169811
C 1.32490138 6.72701141 12.03124791 -0.00275387 0.00488155 0.00233484
C 9.64510963 1.87732453 6.08735865 0.00013551 0.00136565 0.00212799
C -1.17917382 5.20121533 9.65425214 0.00012042 -0.00601543 0.00045683
C -1.28011213 0.29109370 8.71069846 0.00752380 0.00043685 0.00077836
C 5.62834414 4.64389649 8.51443474 -0.00079135 -0.00237029 0.00462698
C 5.82811964 9.49425760 9.70859734 -0.00271580 -0.00616801 -0.00085986
C -2.55722981 5.84965767 9.57494427 -0.00618927 0.00304467 0.00047819
C -0.17090048 1.21928611 9.02443750 -0.00330205 0.00602645 0.00013503
C 7.05411459 4.11615033 8.64043265 0.00349820 -0.00428304 -0.00770642
C 4.79575132 8.42048512 9.51542086 -0.00104203 0.00346979 0.00500498
C -3.04364169 3.78469994 17.13747228 0.00002108 -0.00424036 -0.00255440
C -5.56924403 8.69622744 13.13144676 0.00032422 -0.00890077 -0.01019572
C 1.08175260 5.90884501 13.17060723 -0.00585609 0.00614235 -0.00597033
C 3.75121128 1.17940848 17.28504221 -0.00323026 -0.00120939 -0.00767785
C -1.83167543 3.64275648 16.41532379 -0.01015367 0.00524694 -0.00256924
C 6.50873253 8.40651444 13.90504202 -0.01202620 -0.00564915 -0.00100092
C -0.12407716 6.07342630 13.85596929 0.00396104 0.00054026 0.00120962
C 31.22140470 1.13281413 16.55603364 0.00111820 -0.00000735 0.00376937
C -0.78083513 2.83737001 16.80496915 -0.00611382 0.00151950 -0.00220580
C 5.46990504 7.66910954 13.38041365 0.00235518 0.00014406 -0.00119113
C -1.06598703 7.05805340 13.55977010 -0.00063008 0.00526186 0.00259996
C -7.39443795 2.01844806 16.89184749 0.00642040 0.00101758 -0.00120926
C -0.93873848 1.98760066 17.93766692 0.00532080 -0.00014403 -0.00698608
C 5.65618775 6.89852987 12.21729614 -0.00484986 -0.00259111 -0.00908027
C -0.82311469 7.82998604 12.41037514 -0.00359172 -0.00043882 -0.00044543
C -7.54054337 2.81523293 18.08908810 0.00168242 0.00068375 -0.00005308
C 0.91878823 1.96171167 12.53669170 -0.00952697 -0.00354794 0.00249296
C 3.92081230 6.85522068 17.89601692 0.00403027 -0.00423552 0.00794272
C -2.96373803 7.88441924 17.74353457 -0.00407698 0.00089958 -0.00480358
C -5.77370698 2.73589019 12.53971845 0.00975132 0.00032446 0.00016697
C -0.04605735 2.80521931 12.06407121 0.00400245 0.00035990 0.00281527
C -8.46042278 7.68640114 18.16336882 -0.00657157 0.00493331 0.00070666
C -1.96097869 6.98001421 18.04651287 -0.00094747 0.00730085 -0.00613833
C 6.59321269 1.86983537 12.26802544 -0.00554005 -0.00867618 -0.00467470
C -4.20854434 5.16054800 15.52478577 0.00005651 0.00049889 -0.00021943
C -4.72259460 0.17681551 14.78441147 0.00194817 0.00086721 -0.00018002
C 2.28789727 4.49083584 14.65461853 -0.00316904 0.00557066 -0.00226979
C 2.73981838 9.45469603 15.68507214 -0.00335377 0.00960233 -0.00146923
C -5.38161393 6.09561513 15.30083729 -0.00181253 -0.00175640 0.00543154
C -3.59351046 1.11762984 14.94817090 -0.01334292 -0.00281231 -0.00264287
C 3.22533254 3.35227306 14.94226920 0.00494617 0.00921691 -0.00208975
C 1.59870426 8.58266700 15.33763583 -0.00448926 0.00012899 -0.00271219
C -5.89031877 3.87476681 23.21505803 0.00234518 0.00211137 0.00298270
C -8.72125903 8.58701847 19.23319872 0.00195098 -0.00157200 -0.00122725
C -2.23809352 6.06423372 19.08695978 0.00360133 -0.00069685 0.00386801
C 0.73378928 1.23442555 23.30481298 0.00347610 -0.00120087 -0.00168721
C -4.60999377 3.68419396 22.51315743 -0.00617741 0.00710874 0.00384268
C 3.46262380 8.57628710 19.98637609 0.00181222 0.00576403 0.00548814
C -3.36952177 6.10495593 19.86976682 0.00167880 0.00184826 -0.00146086
C 28.19993955 1.18377280 22.56889256 0.00229196 -0.00001056 -0.00516682
C -3.70696382 2.69442594 22.87260176 -0.00168517 -0.00243603 0.00470575
C 2.45409685 7.68322096 19.60826675 0.00486687 -0.00556737 0.00073164
C -4.39963042 7.03646717 19.55804047 -0.00049044 -0.00773230 -0.00038521
C -10.45052886 2.10216892 22.95684410 -0.00137692 0.00093913 -0.00691157
C -3.93875513 1.89698429 24.05898843 -0.00259597 -0.00166128 -0.00072399
C 2.68400180 6.86330722 18.52345492 -0.00032494 -0.00481365 -0.00125676
C -4.18769913 7.99602349 18.52006386 -0.00388016 0.00376853 0.00128542
C -10.73244318 2.98072081 23.97144433 -0.00372236 0.00120374 -0.00756805
C -2.21396078 1.93165969 18.56997613 -0.00243114 0.00583406 0.00179696
C 0.81582895 6.85018750 23.95552387 -0.00242214 -0.00091741 -0.00357629
C -5.92988371 7.88964563 23.77523699 -0.00230715 0.00496959 -0.00690119
C -8.80918981 2.86545197 18.75791817 -0.00551397 0.00140768 0.00372424
C -3.17986513 2.92973887 18.19865824 -0.00224225 0.00417739 -0.00191135
C -11.55723433 7.78814132 23.95503660 0.00304944 -0.00646153 0.00109171
C -4.99195631 6.99260420 24.20514660 0.00563306 -0.00433588 -0.00370017
C 3.61018233 1.96934610 18.43269359 0.00141164 0.00302864 0.00099151
C -7.12547218 5.24708714 21.67332399 -0.00057320 0.00037982 -0.00331914
C -7.33772287 0.17082078 20.88545940 0.00878769 0.00063203 0.00188722
C -0.82118743 4.75121457 20.65412628 -0.00146408 0.00174728 0.00004360
C -0.60753873 9.34559006 21.70734762 -0.00774004 0.00581522 -0.00530730
C -8.30270370 6.17850610 21.50203932 0.00375044 0.00525904 -0.00315505
C -6.35201216 1.31169670 21.07171125 -0.00178450 -0.00139908 -0.00341582
C 0.36447689 3.78409003 20.76666670 0.00040871 0.00061006 -0.01039592
C -1.70459125 8.30285011 21.51480063 0.00304440 0.00238214 -0.00489225
C 3.33401572 13.29530947 5.08635058 0.00687205 0.00250821 0.00201914
C 0.55977575 18.26132687 1.14809671 0.00015870 -0.00085495 -0.00975767
C 7.03365963 15.61759699 1.00408096 0.00231853 -0.00660959 0.00028463
C 9.84844080 10.78254415 5.21940303 0.00066184 -0.00657245 0.00380467
C 4.55377721 13.38088991 4.45942353 -0.00048256 0.00506846 0.00465191
C 12.49414847 17.91314417 1.90985738 -0.00359745 -0.00549686 0.00224508
C 5.84186455 15.82768341 1.72329550 -0.00176792 -0.00267818 0.00660696
C 37.33053802 10.71554357 4.42834360 0.00078670 0.00090770 0.00194190
C 5.60142452 12.55964215 4.88550206 0.00427139 -0.00448248 0.00257939
C 11.49788131 17.06140602 1.47952339 0.00009567 0.00516489 0.00646635
C 4.84924411 16.60528407 1.33058983 0.00234141 -0.00044829 0.00944076
C -1.36507827 11.65219223 4.66588262 0.00312186 -0.00071671 0.00647281
C 5.38502765 11.55870065 5.85091646 -0.00092868 -0.00124566 -0.00671067
C 11.66409572 16.38313333 0.23506713 0.00457442 0.00263738 0.00566833
C 4.99384971 17.46560988 0.21365553 0.00507827 -0.01045611 -0.00625020
C -1.41848582 12.31188611 5.91493447 0.00020457 -0.00465157 0.00075613
C 6.73898111 11.90291483 0.59893686 0.00038594 0.00008916 -0.00302734
C 9.88097573 16.49369368 5.62631570 0.00489346 -0.00534423 -0.00521691
C 3.22569568 17.35368789 5.47777019 0.00102670 0.00200723 0.00465136
C 0.25075150 12.65815764 0.44762459 0.00143727 0.00111480 0.00625910
C 5.76083392 12.79762978 0.12966858 -0.00012163 -0.00485938 0.00022755
C -2.33659523 17.20930631 6.00307617 -0.00207403 -0.00213417 0.00721783
C 4.18674124 16.46163720 5.93164373 0.00355720 -0.00728630 0.00405561
C 12.36387524 11.46264183 0.18771695 0.00210973 0.00136862 -0.00374454
C 2.08596011 14.73474011 3.58745466 -0.00513636 0.00035755 0.00061237
C 1.70406012 9.63880014 2.38787442 0.00423348 -0.01005799 -0.00286228
C 8.15316164 14.19558348 2.59953320 -0.00450087 -0.00218892 -0.00012128
C 8.74727709 19.05217622 3.45054951 0.00427332 -0.00860318 0.00392396
C 0.81183209 15.53020748 3.61770029 0.00352114 -0.00378191 0.00605222
C 3.13906201 10.12332959 2.31531280 -0.00214153 -0.00315617 -0.00335513
C 9.28639277 13.22227179 2.84604939 0.00028518 0.00059048 0.00479472
C 7.39585504 18.42856499 3.28004089 0.00082781 -0.00090401 0.00236567
C 0.39792235 13.31048968 11.20300446 0.00230001 0.00035954 -0.00247754
C -2.50321974 18.08494792 7.06653596 -0.00734873 0.00114310 0.00018826
C 3.99252675 15.68103468 7.08693170 -0.00060558 -0.00516160 -0.00224998
C 7.06526185 10.78305017 11.30807663 -0.00017618 0.00214285 0.00126596
C 1.54428386 13.12042658 10.45360000 0.00151336 -0.00109734 -0.00060814
C 9.43959733 18.21376343 7.77297524 -0.00272688 -0.00212508 0.00541763
C 2.71495972 15.59704748 7.67192275 -0.00585035 -0.00198123 -0.00553435
C -5.17198984 10.82858825 10.62508958 0.00152429 0.00452520 -0.00310373
C 2.61277146 12.26268889 10.81680546 -0.00395454 -0.00112180 0.00362689
C 8.47575735 17.26296327 7.43389724 -0.00128630 -0.00816798 0.00484111
C 1.71667457 16.35749494 7.14952132 -0.00322316 0.00323728 -0.00879419
C -4.17080664 11.66606970 11.06399710 0.00443035 -0.00020876 0.00048596
C 2.58840174 11.62719804 12.05298866 0.00090546 0.00006013 -0.00235866
C 8.64254504 16.45245980 6.28316604 0.00365370 0.00124512 -0.00661502
C 1.99512559 17.31243454 6.14347170 0.00091937 0.00737115 0.00098649
C -4.34032880 12.40992135 12.21428169 0.00161875 0.00229742 0.00120266
C 4.08580485 11.50402767 6.49638025 0.01102184 0.00107875 -0.00224683
C 7.01494542 16.67963769 11.60451655 0.00375093 -0.00212572 -0.00129627
C 0.33262112 17.27914231 11.55592374 0.00138966 0.00053483 -0.00068333
C -2.60027949 12.26483592 6.68398298 -0.00188099 -0.00270199 0.00618233
C 3.16470933 12.51224043 6.19451915 0.00457418 -0.00098460 -0.00022377
C -5.49311132 17.25975022 12.00389803 -0.00474287 0.00293885 -0.00125212
C 1.29423650 16.37904859 11.96239408 0.00025767 0.00216357 -0.00200045
C 9.73515938 11.50146646 6.36871999 -0.00236324 -0.00253666 -0.00046314
C -0.93257266 14.53426380 9.62654504 -0.00169666 0.00168780 -0.00916063
C -1.27246405 9.53978966 8.54223171 -0.00602316 -0.00596564 -0.00232725
C 5.11703762 14.31557328 8.72425204 -0.00022173 -0.00613791 0.00333719
C 5.55919447 19.18580016 9.74741997 0.00152979 0.00014635 -0.00045789
C -2.18912823 15.29931623 9.62334608 -0.00519239 -0.00647804 -0.00314484
C -0.08491139 10.48221718 8.67473539 -0.00114906 0.00107334 -0.00067160
C 6.28683181 13.40717531 9.05594438 0.00279158 -0.00884615 0.00468075
C 4.43274780 18.18084238 9.69718442 0.00020179 -0.00162277 0.00025547
C -2.49004735 13.54901207 17.24891224 -0.00514488 0.00152675 -0.00385815
C -5.60382799 18.12749252 13.15781448 -0.00952328 0.00435045 0.00344093
C 1.08700286 15.53644283 13.08107359 0.00013123 0.00655092 0.01109314
C 3.95568605 10.72600673 17.34077943 0.00582520 0.00221133 -0.00588014
C -1.27167386 13.57631621 16.58653790 -0.00133969 -0.00202382 -0.00267565
C 6.56869861 18.25784609 13.81648363 0.00166972 -0.00164297 -0.00387532
C -0.16456404 15.70364625 13.75400843 -0.00138586 -0.00007137 0.00226293
C -8.03780241 10.74637888 16.70631544 0.00372976 -0.00346832 -0.00553893
C -0.31068092 12.61753104 16.82370078 -0.00115557 0.00217842 0.00035085
C 5.55105670 17.39803091 13.41289036 -0.00055913 0.00837164 0.00245968
C -1.08263795 16.62162385 13.43027877 -0.00274149 -0.00359134 -0.00054435
C -7.01365297 11.64576971 17.08073304 -0.00661023 0.00281584 0.00121789
C -0.44867764 11.69768664 17.86746959 -0.00374896 0.00242632 0.00156746
C 5.77497680 16.60564570 12.24373880 0.00338539 0.00118207 0.00464098
C -0.91187938 17.37534358 12.25623776 0.00455684 0.00866543 -0.00125939
C -7.27814160 12.54404292 18.09192545 0.00049705 -0.00267257 -0.00058959
C 1.40261884 11.84816551 12.82809635 0.00181977 0.00189293 0.00151887
C 4.28982414 16.71373707 17.78127732 -0.00063109 -0.00254167 -0.00622545
C -2.40048160 17.39597280 17.81368378 0.00007051 0.00192515 -0.00135355
C -5.60488539 12.46343356 12.82526678 0.00710674 0.00467985 0.00622207
C 0.34138014 12.61645513 12.41524442 0.00022350 -0.00341256 0.00201707
C -8.33996427 17.51845998 18.14148435 0.00487855 -0.00579478 0.00416749
C -1.46083217 16.51509450 18.20607357 0.01211997 0.00530229 -0.00324382
C 6.86774624 11.68386699 12.43304569 0.00359766 -0.00300210 0.00512378
C -3.81841133 14.83927563 15.72307797 0.00310025 -0.00351326 -0.00132085
C -4.34998528 10.02765200 14.76379754 0.00206989 -0.00354177 0.00061353
C 2.42161484 14.32706307 14.73053830 -0.00022403 -0.00734323 0.00564895
C 2.55438036 19.10050523 15.61233320 0.00933274 -0.00425273 0.00146984
C -5.13521694 15.55095430 15.55123189 -0.00273385 0.00268865 -0.00502970
C -3.24323378 11.04481222 14.92762503 -0.00506319 -0.00156304 0.00240305
C 3.73102579 13.60865056 14.99632685 -0.00179603 -0.00405731 0.00060691
C 1.30798920 18.24701125 15.40632633 -0.00443758 0.00586035 -0.00242790
C -6.03038649 13.54359269 23.31236208 -0.00160588 0.00624675 -0.00237777
C -8.64257162 18.37239183 19.14640773 -0.00081895 0.00111691 0.00096074
C -1.64766455 15.63771202 19.30044809 -0.00205494 -0.00326089 -0.00308206
C 0.54630196 10.68060467 23.35402110 0.00045566 0.00375916 0.00523466
C -4.87932439 13.30635382 22.53139870 0.00260658 0.00055181 0.00726865
C 3.66574909 18.38508079 19.80632366 0.00648711 -0.00419375 0.00119051
C -2.88028645 15.73778303 19.98283723 -0.00327835 -0.00227146 -0.00408231
C 28.34882614 10.94674875 22.60408827 -0.00276682 -0.00202601 -0.00404184
C -3.96847674 12.35273691 22.92914793 0.00047815 0.00719254 0.00625414
C 2.72223676 17.40840037 19.46610027 0.00038251 0.00122473 -0.00288841
C -3.84734202 16.59305820 19.55461541 -0.00888345 0.00349123 0.00221050
C -10.32811835 11.87948063 22.97346112 0.00046355 -0.00788895 -0.01015420
C -4.12389010 11.61383066 24.11445582 -0.00180313 0.00002764 0.00178590
C 3.04982583 16.54117908 18.43061277 -0.00199860 0.00708225 -0.00049002
C -3.60651810 17.51620740 18.52963787 0.00333614 0.00702801 0.00068587
C -10.52235045 12.63961496 24.08344750 0.00011578 -0.00262098 -0.00009279
C -1.60844453 11.83529282 18.66533516 0.00833017 -0.00306766 -0.00344778
C 0.80876385 16.55697221 23.80023253 0.00099650 0.00575559 0.00243733
C -5.79778016 17.33012601 23.84170968 0.00096667 -0.00030964 -0.00367562
C -8.54530025 12.53105838 18.75769212 -0.00322924 0.00281636 0.00395974
C -2.59939935 12.73632379 18.38293330 -0.00452879 -0.00196213 -0.00530492
C 0.68276827 17.45544178 0.02491810 -0.00465731 -0.00256117 0.00322364
C -4.79438432 16.50236630 24.24748748 -0.00088843 -0.00730152 0.00523756
C 3.70440130 11.54029627 18.46481385 -0.00432258 0.00060464 0.00271658
C -7.08271456 15.11686493 21.72806157 0.00738521 -0.00267543 0.00132337
C -7.71572944 10.18522465 20.71174213 0.00034683 0.00476902 -0.00348842
C -0.40275473 14.10583511 20.85301957 0.00135712 -0.00123058 -0.00200274
C -0.35359828 19.11936332 21.77620498 0.00214730 -0.00192463 -0.00007417
C -8.13297461 16.14127510 21.54703090 -0.00025560 0.00008921 0.00233399
C -6.49121434 11.03782582 20.92917952 0.00267391 0.00195343 -0.00098609
C 0.78569068 13.18080493 20.88166477 0.00767376 -0.00396538 0.00190929
C -1.48221082 18.22272641 21.54512322 -0.00208254 -0.00225462 -0.00290075
C 3.26229087 23.05534962 5.10456736 -0.00154992 -0.00453145 0.00222793
C 0.25158449 27.91147947 1.01844397 -0.00556078 0.00000698 -0.00727928
C 7.17769317 25.15602159 1.10188781 -0.00134465 0.00158222 0.00149568
C 9.83701836 20.41552009 5.11045362 -0.00296451 0.00250879 -0.00171026
C 4.55905657 23.11924320 4.51882192 0.00126293 0.00274098 0.00239652
C 12.55917830 27.86122317 1.75822213 0.00465687 -0.00220293 -0.00865982
C 6.03830187 25.23104512 1.84963370 -0.00026652 0.00277150 -0.00039242
C -2.13197519 20.57568123 4.39220758 -0.00673955 0.00175710 0.00027872
C 5.54997535 22.27441870 4.85475785 -0.00505417 0.00016567 0.00027582
C 11.52165431 26.99406496 1.35192793 0.00153134 -0.00514242 -0.00513058
C 4.96182629 26.16308767 1.51907493 -0.00394698 0.00447749 0.00229071
C -1.07093782 21.37265231 4.86648888 0.00131360 -0.00534458 -0.00025991
C 5.33798497 21.32689729 5.90818404 0.00132417 0.00652273 0.00510550
C 11.68818879 26.09545200 0.28225094 0.00246089 0.00601763 -0.00055797
C 5.11009583 26.94435302 0.43422215 0.00347926 0.00849352 -0.00168472
C -1.20247672 22.28115514 5.98304818 0.00120452 -0.00209570 -0.00544176
C 6.96710911 21.41560703 0.65001340 0.00691336 -0.00005063 -0.00225094
C 9.77714319 26.17552089 5.37626351 -0.00738587 0.00072235 -0.00052520
C 3.35668760 27.01697391 5.49557473 0.00332459 -0.00098543 0.00854043
C 0.32570931 22.02689930 0.58874027 0.00467432 -0.00015306 0.00327443
C 6.00717102 22.21569441 0.12056889 0.00742959 0.00161312 0.00312849
C -2.21682994 27.18459953 5.97287785 -0.00521598 -0.00252347 0.00043039
C 4.30556414 26.07154217 5.88900051 0.00081478 0.00298442 0.00221256
C 12.67922030 21.17254596 0.21553595 0.00328695 0.00527831 0.00390268
C 2.06860574 24.47241226 3.46672696 -0.00338623 -0.00666893 0.00051204
C 1.80893514 19.74673421 2.59839692 0.00495046 0.00440616 -0.00348610
C 8.34705847 23.65005068 2.60546271 0.00148063 -0.00711602 -0.00400218
C 8.67136953 28.63155360 3.42517060 -0.00207818 0.00388535 0.00066372
C 0.92614786 25.39592921 3.33444116 0.00147064 -0.00426027 0.00188175
C 2.87388596 20.78559690 2.64034157 0.00453988 -0.00016299 0.00574786
C 9.57394014 22.81479471 2.68223495 0.00223132 0.00526076 0.00150739
C 7.41835420 27.76470620 3.19640482 0.00392675 -0.00244547 0.00297174
C 0.16743492 22.88680963 11.06612355 -0.00202367 0.00628469 -0.00370593
C -2.50780548 27.98869485 7.09949872 0.00918032 0.00029462 -0.00083401
C 4.02751977 25.25286281 6.93890612 -0.00084598 0.01042289 0.00158512
C 6.82806275 20.51364583 11.26441015 0.00229061 0.00539595 -0.00098281
C 1.44243857 22.83610713 10.35138912 0.00315005 0.00491423 -0.00471256
C 9.41658086 27.79961440 7.62750135 -0.00064328 -0.00438984 0.00035799
C 2.75853905 25.27337346 7.55799609 0.00118949 0.00148569 0.00486987
C 34.24493728 20.51963609 10.36794294 0.00335419 0.00017381 -0.00099826
C 2.40704441 21.94404658 10.74277686 0.00321956 -0.00115067 -0.00619042
C 8.35289078 27.00950662 7.30005575 -0.00098952 -0.00168020 0.00204840
C 1.83738642 26.15484716 7.12631676 -0.00451599 0.00131098 0.00172512
C -4.43934491 21.41292851 10.82625814 0.00448782 -0.00156213 0.00358453
C 2.25076341 21.07830384 11.85884818 0.00771068 0.00042292 0.00349963
C 8.53724825 26.19252566 6.11050202 0.00586886 -0.00046021 0.00342806
C 2.07912499 26.96662013 6.02386301 0.00559161 0.00093754 0.00300791
C -4.54957547 22.17503992 12.01083715 0.00572974 -0.00037595 -0.00138054
C 4.08279638 21.24015148 6.49751408 -0.00241164 0.00203109 0.00297961
C 6.96121606 26.32899005 11.46739924 0.00015444 -0.00399813 -0.00132339
C 0.01181066 26.79389043 11.38044235 0.00433517 -0.00358204 0.00027768
C -2.41591223 22.05994636 6.70312453 -0.00554981 0.00339748 -0.00151129
C 3.09483301 22.11596460 6.08652753 -0.00528151 0.00317256 0.00305750
C -5.55623719 26.86561987 12.04643918 -0.00259591 -0.00243665 -0.00337250
C 1.11050309 26.05876058 11.79956312 0.00010074 0.00237944 0.00102454
C 9.61942542 21.17070681 6.26295547 0.00961769 -0.00200082 0.00066684
C -1.11790676 24.30148720 9.58877214 0.00265520 -0.00347393 -0.00115131
C -1.18255112 19.53551280 8.52089051 -0.00152777 0.00605818 -0.00180002
C 5.19805727 23.92057215 8.56887948 0.00932783 0.00126951 -0.00240005
C 5.50039955 28.76023931 9.51704964 -0.00257816 0.00273361 0.00242315
C -2.33760168 25.16525873 9.47628619 -0.00583665 0.00618173 -0.00564105
C -0.03713561 20.48559298 8.61707702 -0.00558421 0.00166519 -0.00718442
C 6.43652075 23.08350227 8.81572806 -0.00035614 0.00090629 0.00613900
C 4.30015126 27.83544217 9.30427953 -0.00256155 0.00115941 -0.00833690
C -2.77099999 23.20787955 17.30450095 -0.00307216 0.00383190 -0.00105495
C -5.77034464 27.75648275 13.09490206 0.00149161 -0.00328112 0.00085208
C 1.01445446 25.23593785 12.93720637 0.00715910 -0.00483532 -0.00149654
C 3.71397450 20.47245780 17.13563681 0.00846376 0.00071941 0.00840144
C -1.49766496 23.26443662 16.72892387 0.00890497 0.00744526 0.00572932
C 6.54594989 27.92451248 13.77532112 0.00431344 0.00031018 0.00767951
C -0.18078769 25.21211510 13.65831003 -0.00316483 0.00042580 0.00611520
C 31.37937808 20.55858064 16.55493515 -0.00375627 0.00324844 0.00627106
C -0.52656593 22.31862957 17.09655494 -0.00407180 0.00027572 0.00271498
C 5.57239023 27.08102267 13.23416083 -0.01033403 -0.00752322 0.00111696
C -1.23864799 26.03714634 13.34242185 -0.00517450 -0.00521460 0.00594688
C -7.25462923 21.44771466 16.94279649 0.00409699 -0.00373627 -0.00365005
C -0.73531126 21.39989399 18.11414808 -0.00289325 -0.00247530 -0.00412301
C 5.72550337 26.21918108 12.14273948 0.00281278 -0.00135944 -0.00056632
C -1.16590851 26.81143713 12.16973356 0.01045557 0.00078226 0.00761704
C -7.49833273 22.31085390 17.99633195 0.00474840 0.00791732 -0.00390952
C 1.02424117 21.13730152 12.52496638 0.00286024 0.01042206 0.00414256
C 3.80471678 26.42566169 17.48409406 -0.00070664 -0.00100758 -0.00026834
C -2.83486836 26.86512498 17.73798618 -0.00594545 -0.00398024 -0.00540143
C -5.73225038 21.99355719 12.75010008 0.00090746 0.00322482 -0.00234266
C 0.00779690 21.96387864 12.11362962 0.00113412 -0.00272386 -0.00172988
C -8.56208645 27.07569699 18.20886791 0.00137846 0.00986608 0.00110608
C -1.75124317 26.21019255 18.25134950 0.00422045 -0.00282321 -0.00852121
C 6.65795064 21.33847652 12.38779973 0.00243186 -0.00731538 -0.00305602
C -4.22392066 24.51051974 15.85998709 0.01043592 0.00355453 0.00772738
C -4.36742258 19.56247336 14.56116672 -0.00011253 -0.00554044 0.00439868
C 2.28756120 24.00326238 14.60024844 -0.00245962 0.00253870 -0.00228427
C 2.50675992 28.92003230 15.64429699 -0.00293714 0.00252314 0.00066218
C -5.46868939 25.42166726 15.81099473 -0.00053074 0.00622454 -0.00373192
C -3.23684715 20.48038746 14.57596613 0.00426385 -0.00097339 0.00861173
C 3.52950065 23.22333481 14.80101030 -0.00097350 0.00675887 -0.00889218
C 1.39000057 27.94980292 15.52980416 -0.00005305 0.00178222 -0.00399744
C -5.74884344 23.06403659 23.34415791 0.00019551 0.00808708 0.00346074
C -8.67929699 27.90073138 19.35608016 -0.00455712 0.00078714 0.00812220
C -1.99478718 25.32352365 19.38241349 0.00094748 0.00081805 0.00064496
C 0.85903086 20.34502462 23.42483037 0.00103475 -0.00515919 0.00527669
C -4.50094530 22.99977628 22.67982192 0.00066904 0.00128749 0.00543758
C 3.54327213 27.95745550 19.80544344 0.00071008 0.00360344 -0.00447129
C -3.19270225 25.40135212 20.10000705 -0.00601359 0.00136323 -0.00465897
C -11.17286664 20.43470001 22.71218784 -0.00258818 0.00125852 -0.00280054
C -3.53142662 22.10538464 23.13373544 -0.00033096 0.00892562 -0.00695390
C 2.53355519 27.17094023 19.30451084 0.00180980 -0.00389473 0.00257863
C -4.18627977 26.23135031 19.62248083 -0.00178956 0.00049642 0.00465141
C -10.19646890 21.33728414 23.10522505 -0.00395778 0.00452260 -0.00580087
C -3.79593666 21.32967008 24.25398726 -0.00336321 -0.00098979 0.00222879
C 2.60235405 26.34158478 18.19005662 0.00273850 0.00328507 0.00249158
C -4.07742336 26.85259669 18.38492871 -0.00585733 0.00531611 -0.00237231
C -10.38275683 22.09728022 24.23079778 0.00250669 -0.00175571 -0.00119394
C -2.08307250 21.39635416 18.64145306 0.00499200 -0.00226243 -0.00041046
C 0.87464543 26.30486433 23.76704071 0.00391347 0.00731056 -0.00573218
C -5.63474289 26.88807690 24.03013123 -0.00860503 -0.00541372 0.00118380
C -8.67983698 22.19024148 18.73082848 -0.00319305 -0.00490775 -0.00019204
C -3.04323390 22.23585608 18.28340571 0.00674991 0.00544454 0.00109550
C -11.51964817 27.11696224 24.21672031 -0.00162045 0.00415560 -0.00340406
C 7.44047829 26.02754808 0.02209203 0.00285034 0.00185132 0.00309864
C 3.56601761 21.31204413 18.29720285 -0.00531458 -0.00716835 -0.00008857
C -6.97411201 24.32551594 21.73494043 0.00158412 0.00394429 -0.00232882
C -7.39565320 19.64487575 20.76564969 0.00693380 0.00376142 -0.00476925
C -0.58659203 23.94274502 20.85501345 0.00148207 -0.00649017 -0.00191194
C -0.51720782 28.81478740 21.77977781 -0.00357090 -0.00236817 0.00206657
C -8.28911916 25.11342097 21.73587702 0.00749205 0.00574423 0.00240834
C -6.39249712 20.59682944 21.10232643 -0.00405877 -0.00434479 -0.00202788
C 0.66762141 23.18704074 20.97788793 -0.00043333 -0.00569824 0.00039469
C -1.38477591 27.61830652 21.69288697 -0.00261025 0.00253208 -0.00587881
C 16.47840302 3.56887500 5.00037010 -0.00795222 -0.00285413 -0.00339840
C 13.57772589 8.60073995 1.09991259 -0.00425041 0.00274997 0.00837087
C 20.18855732 6.11738250 1.01113031 0.00000418 0.00283748 0.00297445
C 23.05053143 1.17980302 5.16069201 0.00393512 0.00638565 0.00361197
C 17.73100226 3.62966578 4.36977333 0.00497953 0.00362990 0.00467773
C 25.66026183 8.41412301 1.62920109 -0.00087870 0.00321647 0.00109332
C 19.10953355 6.34729917 1.86031466 -0.00253489 -0.00451767 -0.00672399
C 11.12787368 1.03111636 4.39536855 0.00283262 -0.00114973 0.00658324
C 18.62225730 2.61504085 4.66359648 0.00472427 0.00467721 -0.00252412
C 24.66002570 7.57182180 1.20968535 -0.00394864 0.00199762 -0.00076457
C 18.12619331 7.19941410 1.45788512 -0.00230707 0.00298533 0.00902509
C 12.06732711 1.96700327 4.75232844 0.00038124 -0.00278216 -0.00452002
C 18.42947462 1.74502621 5.76289400 -0.00549988 -0.00010972 -0.01019919
C 24.87989677 6.79283928 0.06298916 0.00169361 -0.00107244 -0.00065394
C 18.15813384 7.87956608 0.22331442 0.00513872 -0.00332513 0.00136284
C 11.85056045 2.81578152 5.80442365 -0.00116864 -0.00762342 0.00559030
C 20.27962842 1.96196195 0.52621166 0.00014136 0.00820163 0.00139593
C 23.48237459 6.68825171 5.58417506 -0.00391667 -0.00164256 0.00012774
C 16.61618111 7.30346104 5.38536292 0.00194076 0.00186268 0.00373362
C 13.65706821 2.87776081 0.51716891 -0.00041753 0.00168686 -0.00531418
C 19.31802889 2.91523397 0.17423501 -0.00350566 -0.00113726 -0.00252505
C 11.05127392 7.77621447 5.92649640 -0.00202844 -0.00173520 0.00326253
C 17.61597321 6.51262875 5.88316257 -0.00061229 -0.00374487 -0.00377598
C 25.75214488 1.58505231 0.28889741 0.00098711 0.00028893 -0.00041848
C 15.39641993 5.11996020 3.54719805 -0.00422414 -0.00285655 -0.00004119
C 15.05951079 0.40317151 2.43031302 -0.00150259 -0.00463976 -0.00039258
C 21.37031646 4.57160961 2.53821357 0.00305491 0.00362459 -0.00885176
C 21.94120340 9.71852916 3.47206352 0.00618710 -0.00265110 -0.00782204
C 14.12154651 6.01220672 3.52209534 -0.00162788 -0.00183484 -0.00086811
C 16.12362140 1.41874842 2.50426603 0.00621433 0.00518399 -0.00771910
C 22.44127034 3.57643365 2.69118293 0.00149824 0.00098197 0.00074619