2880
Time=34000.00000001 pbc="T T T" Lattice="39.37165231 0.00000000 0.00000000 0.00000000 29.18359007 0.00000000 -12.01169795 0.00000000 24.33560851" energy=-18398.84315228 virial="-13.95683453 26.25477372 -50.98393485 26.25477372 3.76381545 -12.62591335 -50.98393485 -12.62591335 -21.27093497" stress="0.00195286 0.00092041 -0.00185386 0.00092041 0.00261042 -0.00046428 -0.00185386 -0.00046428 0.00169378" Properties=species:S:1:pos:R:3:vel:R:3
C 3.30162253 3.95143357 5.06106516 -0.00193214 -0.00495069 0.00209149
C 0.14263773 8.55252840 1.05595160 0.00311187 0.00547479 -0.00416399
C 6.97877505 6.13430248 0.85194305 0.00755280 -0.01003622 -0.00350338
C 9.70075797 1.23913068 5.19227127 0.00894033 -0.00319034 0.00056497
C 4.46477827 3.78147304 4.30898032 0.00018408 -0.00127288 -0.00926723
C 12.40390884 8.84709074 1.65306683 0.00302319 0.00062771 0.00068764
C 5.76235741 6.16668640 1.59611561 0.00470885 -0.00629775 0.00259712
C -1.85624122 1.12234948 4.52235118 -0.00554249 -0.00204952 0.00387578
C 5.49588990 3.03019780 4.84299628 -0.00428322 0.00507153 0.00477101
C 11.44270708 7.93723142 1.25699450 0.00746802 0.00079443 0.01278714
C 4.70250611 6.91000722 1.23167265 -0.01024386 0.00554398 -0.00301524
C -0.83300469 1.97626753 4.91730644 -0.00115442 -0.00481883 -0.00946028
C 5.33312359 2.27767495 6.03336153 0.00035322 -0.00099107 -0.00505538
C 11.67642312 7.11780131 0.14472559 0.00174032 0.00582233 0.00059537
C 4.82716906 7.76742785 0.15758851 0.00141771 -0.00381892 0.00259995
C -1.06397325 2.83925335 5.99549062 -0.00288877 -0.01250595 0.00392911
C 6.94587698 2.32067928 0.57935160 0.00247687 -0.00111753 0.00539022
C 9.77825045 7.01822072 5.71180925 -0.00012917 0.00664821 -0.00254809
C 3.01667660 7.86510678 5.51033973 -0.00641557 0.00206903 -0.00717406
C 0.10410577 2.73797122 0.41036793 -0.00622144 -0.00758381 0.00060202
C 5.94329409 3.14517446 0.01775189 -0.00353266 -0.00146717 0.00251962
C -2.35900373 7.63420459 6.03936915 0.00337800 -0.00747994 0.00179644
C 4.07619505 7.11453830 6.03715100 0.00711288 0.00269861 -0.00136055
C 12.52970017 2.01850865 0.17954499 0.00351018 -0.01135646 -0.00415158
C 1.88026439 5.20866680 3.45461446 -0.00437383 0.00410525 -0.00337498
C 1.62989860 0.23478382 2.41130826 0.00583346 -0.00144215 0.00117018
C 8.25248706 5.05831878 2.54187378 0.00081665 -0.00249250 0.00422154
C 8.93860480 9.56974400 3.41552261 0.00127927 0.00220292 0.00301369
C 0.54873542 5.91734606 3.31576525 -0.00353525 -0.00349222 0.00477048
C 2.93574343 0.95571907 2.63379268 -0.00710000 -0.00359944 -0.00385985
C 9.46708431 4.20976492 2.78276438 -0.00783269 0.00757086 -0.00073675
C 7.98927251 8.43058678 3.16389472 -0.00120260 0.00239986 0.00384695
C 0.22402349 3.84315488 11.26421989 -0.00336852 0.00184004 -0.00431448
C -2.47372727 8.54397967 7.07529981 -0.00459209 0.00439693 0.00052970
C 3.82972637 6.22596327 7.05168038 -0.00331992 0.00522369 0.00022344
C 6.92351092 0.97817583 11.22216345 0.00451934 0.00005480 -0.00321956
C 1.44191537 3.79943879 10.54422451 0.00510899 -0.00019836 0.00650411
C 9.50836816 8.62052938 7.89686473 0.00284661 0.00109902 0.00057453
C 2.58884433 6.13646344 7.67534181 0.00185400 -0.00846743 0.00609148
C -4.93695543 1.10073225 10.57134719 0.00675821 0.00053994 -0.00831241
C 2.43980038 2.95816599 10.97622529 0.00038466 0.00043750 -0.00324298
C 8.53383116 7.80547073 7.51727549 -0.00398411 -0.00249002 0.00023324
C 1.62155688 7.00325593 7.19938772 -0.00249370 0.00135579 0.00064577
C -4.16352888 2.17631079 10.96767297 -0.00682877 0.00062042 0.00113127
C 2.30448608 2.14451378 12.18943444 -0.00261975 -0.00009706 -0.00752758
C 8.63594521 6.91822867 6.43329495 0.00232498 0.00133771 -0.01034510
C 1.72270641 7.87225922 6.13789464 0.00731416 0.00336569 -0.00384772
C -4.42976262 2.87649439 12.16424096 0.00653775 -0.00468963 0.00414592
C 4.13488134 2.46982301 6.77018775 -0.00218609 -0.00118235 -0.00250436
C 6.67328976 6.68650851 11.66132116 -0.00916451 0.00494800 0.00507079
C 0.18624762 7.72209950 11.56082281 0.00745641 -0.00243951 0.00083490
C -2.33808918 2.79138245 6.69436033 -0.00528382 0.00197355 -0.00315921
C 3.11543683 3.20579793 6.22182410 -0.00212253 -0.00087982 0.00387214
C -5.52781472 7.62403767 12.09971441 0.00687612 -0.00258282 0.00210114
C 1.16547826 6.84561042 11.94051573 -0.00296638 -0.00404727 -0.00142920
C 9.55400465 2.17273541 6.34684254 -0.00017313 -0.00406600 0.00645556
C -1.24962009 5.21803077 9.75690044 -0.00110092 -0.01029796 -0.00407363
C -1.15689041 0.48061715 8.49954674 -0.00075415 0.00058762 0.00529644
C 5.14598097 4.94800902 8.72824612 0.00638776 -0.00327959 -0.00494962
C 5.54442958 9.67769484 9.41770967 0.01042010 0.00922163 -0.00460214
C -2.46784692 5.99702672 9.82884636 -0.00539400 0.00905664 -0.00161926
C 0.10276777 1.30104030 8.66034484 0.00901974 0.00863247 0.00483093
C 6.45776058 4.35926565 8.99488035 0.00509133 -0.00374845 0.01056092
C 4.54194158 8.51013993 9.13972574 0.00121502 -0.00421565 0.00333595
C -2.75378404 3.68637215 17.30123224 0.00547003 0.00295574 -0.00767859
C -5.69099082 8.47551601 13.16468702 0.00009760 0.00313212 -0.00090020
C 0.96107855 6.01587103 13.13774484 0.00258312 -0.00094368 -0.00279995
C 3.54240658 1.30091411 17.23112843 0.00376206 -0.00796863 0.00204524
C -1.56957811 3.63384918 16.58229710 0.00554654 0.00056343 0.00346995
C 6.12063872 8.73554126 13.50770059 -0.00615795 -0.00070853 -0.00090962
C -0.20842137 6.17662827 13.90221458 0.00171000 0.01031863 0.00215327
C 31.01365439 1.04252846 16.60407820 -0.00151182 0.00517515 -0.00619919
C -0.55971776 2.83038178 17.03628835 0.00423100 0.00377132 -0.00022062
C 5.18112448 7.73152584 13.23219464 -0.00439556 -0.00354016 -0.00280065
C -1.28455761 6.97285735 13.40947266 -0.00001117 0.00039969 -0.00620101
C -7.42308773 2.03340624 16.91612719 0.00188677 0.00105574 -0.00243035
C -0.75176021 2.02521054 18.20843058 -0.00478910 0.00189321 -0.00127783
C 5.41746067 6.67027813 12.29701497 -0.00017618 -0.00376383 -0.00258212
C -1.07841240 7.80471715 12.28098918 -0.00196124 0.00976483 0.00687731
C -7.61066846 3.02231482 17.89439160 0.00056259 0.00269269 -0.00419401
C 1.09533825 2.20695709 12.82154720 -0.00243760 -0.00602331 -0.00263418
C 3.73175623 7.05355373 17.70021355 0.00119270 0.00052181 0.00833978
C -2.74678608 7.60887659 17.77952325 -0.00019443 -0.00131340 -0.00149589
C -5.66306709 2.75275154 12.75353792 -0.00252348 -0.00270147 -0.00004631
C 0.05018947 3.00905055 12.38309848 -0.00171352 0.00006338 -0.00517682
C -8.46698612 7.82582356 18.00308575 -0.00746822 -0.01001444 0.00118352
C -1.77254409 6.78704544 18.26567163 -0.00756285 0.00055317 0.00158021
C 6.74816220 1.76496005 12.40738844 -0.00287737 0.00064772 0.00840362
C -3.97269615 5.23057787 15.82740567 0.00080464 -0.00022588 -0.00925665
C -3.93866821 0.27892927 14.60486741 0.00136466 0.00179133 -0.00389459
C 2.18237944 4.79300919 14.77339683 0.00436271 -0.00047190 -0.00888024
C 2.29011241 9.49240773 15.53461466 -0.00273955 0.00328285 -0.00720133
C -5.19495226 6.06378618 15.78647961 -0.00237314 0.00162765 -0.00163206
C -2.55877618 1.04503949 14.76337497 0.00221998 -0.00191624 -0.00468920
C 3.40649087 3.88022147 14.95362969 -0.00342710 0.00287847 0.00281405
C 0.98976519 8.79427802 15.28585441 0.00685920 -0.00540217 0.00278681
C -5.85752253 3.97639908 23.29110119 0.00300918 0.00561431 -0.00023981
C -8.63187612 8.61248557 19.16993754 0.00896553 -0.00385760 -0.00327084
C -2.11844778 5.96694151 19.33734038 -0.00132727 -0.00006591 -0.00764483
C 0.75685489 1.15315404 23.43732814 -0.00011682 0.00645319 -0.00437701
C -4.58519558 3.88282929 22.62585293 -0.00324944 -0.00135920 0.00359928
C 3.36763341 8.49246729 19.96824252 -0.00025957 0.00323730 0.00687163
C -3.30371797 6.18436947 20.08453072 0.00174574 -0.00998850 -0.00338820
C 27.93207572 1.04405754 22.53402717 0.00368188 0.00141667 0.00007457
C -3.59773571 3.13296182 23.17508520 -0.00077739 -0.00838081 -0.00385598
C 2.36646202 7.70166735 19.52890122 0.00007156 0.00090528 0.00170964
C -4.12181202 7.20738226 19.69715092 -0.00728074 0.00690643 -0.00432021
C -10.47681234 1.83128792 23.09577252 -0.00574525 0.00207722 -0.00083587
C 8.19899395 2.32579896 0.01944639 0.00322237 0.00495294 0.00465401
C 2.48128758 6.92876102 18.36441178 -0.00059954 0.00172846 0.00506910
C -3.88840823 7.89019535 18.47536046 0.00410916 0.00456121 -0.00182290
C -10.59674763 2.78415319 24.16784942 0.00525547 0.00165137 0.00509355
C -2.04135961 2.07860379 18.82830034 -0.00749993 0.00802019 -0.00168717
C 0.85666202 7.29467429 23.77643598 0.00008341 0.00619739 -0.00272249
C -6.02166567 7.75707735 23.72893733 0.00335703 0.00100560 -0.00053486
C -8.84979770 3.07780412 18.58389709 0.00225650 0.00502940 -0.00482968
C -3.03209237 2.86544220 18.36986018 -0.00064441 -0.00439685 0.00342480
C 0.36113870 7.61684462 0.02021889 -0.00647711 0.00187634 0.00375004
C -4.90137193 7.05849267 24.17283690 -0.00459176 0.00357790 0.00281617
C 3.32625082 2.14664105 18.33130786 0.00048208 0.00663224 -0.00445199
C -7.12960887 5.04083855 21.55927530 0.00327462 -0.00445368 -0.00100399
C -7.51029411 0.43584884 20.83627156 -0.00456693 0.00111617 0.00223747
C -1.01145300 4.66965270 21.01073254 0.00690019 -0.00136756 0.00458534
C -0.68718954 9.58256949 21.86585196 0.00425257 0.00104933 0.00178985
C -8.49230872 5.68985681 21.35076351 0.00226996 -0.00480775 0.00109345
C -6.20205656 1.19266863 21.10771493 0.00430239 -0.00123853 0.00095507
C 0.06154732 3.66225638 21.24444700 0.00055528 -0.00368769 -0.00557948
C -1.88780082 8.66195658 21.70291654 -0.00059760 -0.00164269 -0.00263625
C 3.16971785 13.63680370 5.05416659 0.00426616 -0.00451758 0.00354035
C 0.39347073 18.27578810 0.98706440 0.00646520 -0.00638479 0.00157250
C 6.95408684 15.95944797 1.03042423 0.00004754 -0.00578132 0.00026449
C 9.99518353 11.03739506 5.14781942 -0.00543945 -0.00055953 0.00700450
C 4.31247494 13.57524017 4.27068841 0.00386461 -0.01044495 0.00200013
C 12.34825738 18.35607217 1.66868510 0.00432816 0.00667148 -0.00187719
C 5.81534794 16.23889843 1.77517795 0.00067158 0.00551735 -0.00270973
C -2.04451010 11.00340286 4.49156883 0.00266025 0.00545156 -0.00212934
C 5.36462167 12.72470940 4.58025361 0.00110302 -0.00247220 -0.00168027
C 11.30357338 17.58301176 1.14448071 0.00226050 -0.00538394 -0.00183003
C 4.94576615 17.22600802 1.30487750 -0.00797312 -0.00065496 -0.00394210
C -1.08630919 11.95970194 4.80167524 0.00310404 -0.00398534 -0.00141960
C 5.23887458 11.77489445 5.60274580 0.00072628 0.00254305 -0.00375933
C 11.58918193 16.75080683 0.04928438 0.00298281 -0.00047745 -0.00425550
C 5.16127772 17.97969533 0.18866311 -0.00347980 0.00006406 0.00602372
C -1.23243756 12.82613180 5.93723383 -0.00292467 -0.00212755 0.00534853
C 6.70656134 11.74368533 0.49719967 -0.00368184 0.00469871 0.00163915
C 9.73459789 16.91288638 5.46352629 -0.00012412 -0.00459858 0.00078329
C 3.26096915 17.52289063 5.60337522 0.00195440 -0.00324507 -0.00637443
C 0.26374782 12.46430030 0.60249428 0.00131320 0.00224479 0.00231846
C 5.78764909 12.74745570 0.23332591 -0.00291604 0.00569138 -0.00319176
C -2.25168886 17.60222929 5.98143599 -0.00347368 -0.00539766 0.00267614
C 4.30983909 16.68370798 6.06863721 -0.00594006 -0.00115003 -0.00112914
C 12.17717602 11.97072657 0.08202961 -0.00359147 -0.00191010 -0.00107642
C 1.84476549 15.09249487 3.69377785 -0.00949180 0.00019338 0.00534793
C 1.41088512 10.08976632 2.56213497 -0.00304563 -0.00065749 -0.00496444
C 8.22381263 14.56957702 2.62450686 -0.00712280 0.00250013 -0.00316095
C 8.44559860 19.50524092 3.62833875 -0.00435033 0.00328219 0.00014980
C 0.47386089 15.72043530 3.66429574 0.00145101 0.00329550 0.00072358
C 2.60494091 10.93311528 2.66312338 -0.00607851 -0.00078538 -0.00665398
C 9.27752775 13.48332576 2.83317522 0.00044206 -0.00701662 -0.00053343
C 7.28542398 18.60622127 3.57916224 0.00548320 -0.00119368 0.00342515
C -0.01229869 13.50082734 11.02257540 0.00306591 -0.00695923 -0.00334062
C -2.55039919 18.46907673 7.00713501 0.00154237 -0.00836882 -0.00003907
C 4.05546486 15.78205799 7.06732390 0.00258637 0.00150280 0.00800950
C 6.72744035 10.93097094 11.08124092 0.00269980 -0.01154159 -0.00308261
C 1.15536350 13.35296329 10.32310453 0.00213203 0.00242367 0.00289653
C 9.52619150 18.16292482 7.87154909 0.00359444 0.00139630 0.00078432
C 2.87133571 15.84351587 7.77307685 0.00612856 0.00243013 0.00034702
C 34.11055411 10.81633699 10.46385773 0.00097852 0.00458276 0.00703247
C 2.10575075 12.38091090 10.63564725 0.00450427 -0.00248058 0.00187944
C 8.49161046 17.41641563 7.41767863 -0.00584054 -0.00254505 0.00030803
C 1.92067542 16.80443314 7.49562621 -0.00658841 -0.00182022 0.00624295
C -4.28208695 11.66448083 11.01239261 -0.00499809 -0.00041203 -0.00018162
C 1.94551438 11.63995170 11.82003004 -0.00640866 0.00319389 0.00457350
C 8.58003994 16.66270920 6.23034279 -0.00336972 0.00214182 -0.00129768
C 2.00058778 17.58459329 6.27427834 0.00699700 0.00234754 -0.00410022
C -4.51420587 12.53639633 12.08602380 -0.00015346 0.00107607 0.00925134
C 3.99138868 11.70419540 6.28612929 -0.00186570 0.00180362 0.00006364
C 6.65196050 16.48845617 11.58454694 0.00326833 -0.00716870 -0.00518181
C 0.16599728 17.64075891 11.53110283 -0.00166537 0.00024151 -0.00650338
C -2.36040562 12.56871608 6.71329327 0.00287900 0.00532720 -0.00931053
C 2.97998984 12.61971352 5.93846878 -0.00252396 -0.00716172 -0.00224596
C -5.24646090 17.69573535 11.96225581 0.00350068 0.00104387 -0.00012077
C 1.10895008 16.73358450 11.95998129 -0.00251215 -0.00696010 0.00011919
C 9.78050640 11.85684497 6.29994750 0.00611658 0.00041146 0.00620432
C -1.06399521 15.02678279 9.53748010 -0.00473491 -0.00838838 -0.00360977
C -1.25938049 9.88294656 8.69366619 0.00403445 0.00190839 -0.00358135
C 5.24924661 14.28341908 8.53598762 -0.00324180 -0.00085939 0.00031474
C 5.65809990 19.14165286 9.65026000 0.01149949 -0.00198680 -0.00185066
C -2.23344057 15.90710010 9.20951989 -0.00938016 0.00465117 0.00160053
C 0.01417738 10.65412427 9.06080516 0.00347600 -0.00357251 0.00310879
C 6.68031114 13.79221516 8.76795723 0.00729303 -0.00071733 -0.00252535
C 4.34836832 18.38926847 9.42909291 0.00172001 0.01205498 -0.00024115
C -2.92066657 13.44105294 17.22852052 0.00125704 0.00525550 -0.00248397
C -5.42326674 18.32366278 13.19870045 0.00008555 -0.00215711 0.00242101
C 0.85648691 15.79519804 13.02613825 0.00321831 0.00731125 0.00053473
C 3.54674011 10.68518406 17.17483779 -0.00288873 -0.00042748 0.00401645
C -1.66834277 13.38448855 16.50429543 0.00226118 0.00283526 -0.00387236
C 6.06219865 18.07858182 13.88416784 0.00492500 -0.00496653 0.00531355
C -0.32510168 15.77678395 13.73359533 0.00169235 -0.00118545 0.00295829
C 31.06205034 10.98727282 16.45608081 -0.00576957 0.00037416 0.00501318
C -0.65985013 12.52086549 16.92837090 -0.00031875 -0.00973614 -0.00676330
C 5.12139866 17.19776304 13.42911395 -0.00433304 0.00004509 -0.01129782
C -1.29673067 16.73597626 13.31647897 -0.00473390 -0.00306611 0.00367558
C -7.28911667 11.75586858 16.90551654 0.00446120 -0.00405362 0.00055959
C -0.80720077 11.76553457 18.14499813 0.00233988 -0.00139009 0.00469633
C 5.39871038 16.39782008 12.29891891 -0.00523672 -0.00476990 -0.00496333
C -1.08847386 17.65882225 12.24493958 0.00248830 -0.00351449 0.00593156
C -7.46370498 12.58517236 18.12874744 0.01059384 0.00323121 -0.01199843
C 0.72116570 11.76654394 12.48370688 0.00077542 -0.00255084 0.00062864
C 3.71848424 16.78808191 17.58156167 0.00549285 -0.00133671 0.00499978
C -2.86701167 17.30163900 17.77311143 0.00521937 -0.00299924 -0.00232081
C -5.76518227 12.45214667 12.66433859 0.01099763 0.00983056 0.00911059
C -0.25066254 12.70378089 12.17094138 0.00189279 -0.00277300 0.00310500
C -8.55432040 17.54785688 18.00923833 0.00249884 0.00197149 -0.00288207
C -1.86880882 16.43442128 18.21985830 0.00460422 0.00594829 0.00361058
C 6.56383151 11.76184519 12.25808215 -0.00044791 0.00570909 -0.00364756
C -4.27336977 14.76422546 15.65519760 0.00861421 -0.00092791 0.00683596
C -4.29534412 9.88963355 14.65135553 -0.00459270 -0.00843895 0.00266831
C 2.03067586 14.36741048 14.66876822 -0.00172761 0.00031574 -0.00844789
C 2.30760999 19.11251170 16.02790253 0.00625345 0.00268993 0.00201122
C -5.52414197 15.53116183 15.41048557 -0.00256785 0.00253483 0.01213394
C -3.03967194 10.63934607 14.74740384 -0.00273195 -0.00439807 0.00542131
C 3.07288929 13.27739301 14.68750828 0.00218077 -0.00564593 0.00215356
C 1.04256157 18.27197346 15.89520335 0.00284593 0.00354047 -0.00247522
C -6.02387699 13.62334526 23.49545707 -0.00624627 -0.00798483 -0.00133244
C -8.62150931 18.35602116 19.12367166 0.00176518 0.00186728 -0.00111308
C -2.05168495 15.59671236 19.28617768 -0.00113904 -0.00121749 0.00362755
C 0.44567942 10.98699823 23.40790509 -0.00450521 0.00244418 -0.00105122
C -4.81379519 13.55661269 22.70550595 -0.00328102 0.00335867 0.00241531
C 3.29641204 18.37922105 19.90433797 0.00451471 0.00607391 -0.00223208
C -3.17860820 15.72231078 20.08133170 0.00397701 0.00073141 -0.00236962
C 28.00546266 10.93280775 22.72493197 0.00677866 0.00685282 -0.00117729
C -3.93910283 12.57372018 22.94291045 0.00091443 -0.00105398 -0.00013202
C 2.30724193 17.50059381 19.42706844 -0.00881787 -0.00018654 0.00434876
C -4.01506653 16.77464548 19.80677756 -0.00795777 0.00222787 0.00351713
C -10.37299559 11.83393251 23.08763724 -0.00175259 -0.00556003 -0.00775914
C -4.14425787 11.57512159 24.06198709 -0.00411670 -0.00338470 0.00553712
C 2.52828378 16.62261342 18.32633914 -0.00110481 -0.00034275 0.00014525
C -3.91000177 17.54974634 18.65136292 -0.00230521 -0.00577101 0.00078763
C -10.50910487 12.57996820 24.26778475 -0.01243553 0.00192021 0.00327115
C -2.04053292 11.88662549 18.87561254 -0.00550658 -0.00122139 -0.00971819
C 0.80814079 16.73135827 23.73888275 -0.01025835 -0.00245726 0.00176345
C -5.66729235 17.65317284 23.75276167 0.00606519 -0.00000824 -0.00158567
C -8.69870868 12.63213239 18.71538567 -0.00877445 0.00285131 0.00515203
C -3.06090875 12.69410600 18.39923202 0.00572748 0.00294558 0.00453976
C -11.51835391 17.32624589 24.26458419 -0.00316268 -0.01418897 0.00204109
C -4.77861422 16.69197270 24.21444770 -0.00003935 -0.00589364 -0.00155289
C 3.34575048 11.51459630 18.31390375 0.00221061 -0.00235850 -0.00000001
C -7.38243535 14.90528467 21.99014849 -0.00347048 0.00117983 -0.00621012
C -7.52764871 9.98717753 20.77559542 -0.00611361 0.00543934 -0.00036165
C -0.73506778 14.20973061 20.81429101 0.00270225 -0.00032544 0.00510896
C -0.20755553 19.31443195 21.64965988 -0.00428993 0.00123582 0.00239283
C -8.50717063 15.89206709 21.95918916 0.00466742 0.00237069 0.00413584
C -6.54017909 11.06793326 21.08971575 -0.00224179 0.00196519 -0.00073668
C 0.51099591 13.50168051 21.00746860 -0.00338909 0.00279701 -0.00418772
C -1.33487463 18.30599707 21.32823768 -0.00507949 -0.00425788 -0.00263821
C 3.35935750 23.21716218 5.02136232 0.00170258 0.00896016 -0.00187964
C 0.37441667 28.11665569 0.83479967 0.00169686 -0.00293696 -0.00139751
C 7.05115425 25.74854841 1.08122702 0.00912721 -0.00530402 -0.00324802
C 9.82398054 20.76897400 5.14452301 0.00208568 -0.00241857 -0.00078252
C 4.59201200 23.23064955 4.43276280 0.01126809 -0.00942234 -0.00559742
C 12.27404223 27.89898549 1.71520574 -0.00269264 -0.00182898 -0.00702419
C 5.87612850 25.72735884 1.77721804 0.00811338 0.00557083 0.00307259
C 37.08788441 20.70853351 4.25177203 0.00032203 0.00226884 0.00390932
C 5.48370229 22.22129400 4.84941099 -0.00681192 0.00079177 -0.00301890
C 11.29018111 27.08947145 1.13872481 0.00266085 0.00409468 0.00700014
C 4.88783113 26.57019749 1.45759944 -0.00461998 -0.00143227 0.00157620
C -1.21680956 21.51172799 4.67011859 -0.00164619 -0.00166724 -0.00261056
C 5.30029972 21.47381173 5.95828308 -0.00554379 0.00164459 -0.00497662
C 11.53503105 26.24265202 0.01692286 -0.00260185 0.00628017 -0.00141372
C 4.83453888 27.24355758 0.23536004 -0.00388571 0.00044953 -0.00518244
C -1.33990538 22.26124105 5.83141139 -0.00091403 0.00241974 0.00461972
C 6.93301219 21.62759361 0.52376746 0.00239645 -0.00219018 0.00144926
C 9.97039460 26.73248143 5.38342331 0.00208002 0.00095356 0.00318303
C 3.52131992 27.17082670 5.55775931 -0.00915324 0.00518238 -0.00233823
C 0.26301015 22.42771958 0.50076849 -0.01000361 -0.00419996 -0.00230868
C 6.03921662 22.52963127 0.15927814 -0.00308371 0.00327983 0.00216220
C -2.20344175 27.22924463 5.92171337 -0.00541056 -0.00131836 -0.00344107
C 4.52778019 26.36308704 6.00581653 -0.00258371 -0.00765261 -0.00074245
C 12.58748980 21.25813975 0.23725023 -0.00072420 -0.00685927 0.00413762
C 2.14545078 24.55345719 3.48338388 0.00170325 -0.00714741 0.00623027
C 1.64499232 19.75614893 2.43858427 -0.00161099 -0.00359678 0.00624557
C 8.35117909 24.42976463 2.55716741 0.00305947 0.00013360 -0.00762117
C 8.41358184 29.13579836 3.61085523 0.00559436 -0.00130298 -0.00287062
C 0.81843918 25.12875597 3.14273021 -0.00516718 0.00355926 -0.00199467
C 2.71451255 20.83102521 2.54223913 -0.00420997 0.00065974 0.00390666
C 9.47537092 23.46451427 2.77538133 0.00368844 -0.00722240 0.00648943
C 7.19852548 28.33413601 3.56751810 0.00177419 -0.00435952 0.00849038
C 0.42300674 23.05245781 11.07797130 0.00522042 0.00643253 -0.00202130
C -2.31908453 28.04122724 7.03020776 -0.00088988 -0.00398525 0.00400286
C 4.32893045 25.46652311 7.05261988 0.00427949 -0.00163493 0.01177068
C 6.90411107 20.53530615 11.30958524 -0.00874669 0.00239809 0.00122945
C 1.70196020 22.96059475 10.54205895 -0.00035392 -0.00721198 -0.00505635
C 9.65495401 28.11181740 7.81108864 -0.00219718 0.00262630 -0.00290364
C 3.06805988 25.44688684 7.62903121 -0.00308312 -0.01353376 0.00289302
C -4.97616959 20.70161084 10.34895132 0.00595873 0.00147709 0.00094987
C 2.53567613 22.01946104 11.07889753 0.00271187 -0.00264546 0.00535062
C 8.69645801 27.15233877 7.42101541 -0.00415226 -0.00039150 -0.00656462
C 2.06187282 26.28233954 7.17418707 -0.00493069 0.00019426 0.00720634
C -4.05335097 21.69316814 10.67528387 -0.00625820 0.00382233 0.00671085
C 2.20237926 21.28861989 12.23661097 0.00106632 -0.00266303 -0.00921611
C 8.76801800 26.53247027 6.13021362 0.00425415 -0.00605518 0.00315974
C 2.21426430 27.18933645 6.05906947 0.00130143 0.00112543 -0.00303713
C -4.36865028 22.54496828 11.77988569 0.00800753 -0.00352559 0.00399846
C 4.01859883 21.64345461 6.58287483 -0.00478266 0.00207083 -0.00298547
C 6.73961290 26.34986202 11.35404273 0.00538816 0.00866114 -0.01129533
C 0.35776442 27.38351273 11.43263192 0.00647313 -0.00767487 -0.00798401
C -2.50703399 22.20577857 6.55172684 -0.00014919 -0.00005464 -0.00166401
C 3.04208691 22.39821813 6.10939009 0.00614525 0.00087427 -0.00517261
C -5.16753601 27.13118244 12.10728940 -0.01009927 0.00752412 0.00416979
C 1.24786662 26.40385941 11.80410127 0.00108876 0.00077573 -0.00269616
C 9.55605009 21.57135260 6.25614115 -0.00085678 0.00557072 0.00034839
C -0.37209145 24.61724593 9.47548373 0.00224732 0.00803269 0.00310894
C -1.29394569 19.81580812 8.52975996 0.00710625 0.00550417 -0.00319308
C 5.48725493 23.95745450 8.61084885 -0.00448072 0.00340654 0.00462410
C 5.66110972 28.84878231 9.60469720 0.00307018 0.00466020 -0.00178820
C -1.60441989 25.45137203 9.09699986 0.00627082 0.00373671 0.00143847
C -0.23972365 20.83281483 8.66726587 -0.01448636 0.00016014 -0.00155804
C 6.75783186 23.14740093 8.91338891 -0.01134848 0.00212372 0.00696659
C 4.60839389 27.84944413 9.31348900 0.00517612 -0.00327006 -0.00029488
C -2.91498684 23.35588839 17.19903568 -0.00089164 0.00508994 -0.00071109
C -5.27892358 28.00029435 13.22066717 0.00153577 0.00625910 -0.00353325
C 1.09354868 25.59504357 12.93776250 -0.00108261 -0.00167785 0.00086449
C 3.51437994 20.69831110 17.35833203 0.00425283 0.00195833 -0.00180195
C -1.72855098 23.17970624 16.56338414 0.00781800 0.00337324 -0.00214146
C 6.43879550 27.70595972 13.79214755 0.00101715 -0.00906120 -0.00405953
C -0.19804772 25.76361990 13.54050723 -0.00600165 0.00418918 0.00189064
C 31.13226541 20.36036253 16.62574357 0.00629773 0.00163623 -0.00267298
C -0.73135126 22.27816864 16.97239054 -0.00593280 0.00233204 0.00004985
C 5.38178053 26.94197610 13.29442022 -0.00117129 -0.00014087 -0.00093103
C -1.05493144 26.80051296 13.24875128 0.00217873 0.00208960 0.00143007
C -7.24621370 21.21727232 17.03903359 -0.00009841 0.00428786 -0.00105273
C -0.91229859 21.62943870 18.17365403 0.00326412 0.00676500 -0.00885544
C 5.53791808 26.16179430 12.11821556 0.00340619 -0.00386417 -0.00314308
C -0.72609751 27.74980800 12.24795749 -0.00302807 -0.00571377 -0.00056692
C -7.44130335 22.12077986 18.08928553 0.00268820 -0.00157988 0.00180632
C 0.95336887 21.51369235 12.78531453 0.00400276 -0.00531158 0.00001050
C 3.48091286 26.62100011 17.44843617 -0.00550676 0.00641326 0.00201353
C -2.83530198 27.36120561 17.47620945 -0.00315505 -0.00035027 -0.00590607
C -5.52413600 22.40446728 12.53865440 0.00364062 0.00025544 -0.00438988
C 0.06012995 22.34707694 12.17859719 -0.00335141 -0.00447611 0.00152282
C -8.33901872 27.36873667 18.05895221 0.00117618 -0.00215715 0.00750413
C -1.88506484 26.50526800 18.00498449 0.00182918 0.00386266 0.00767162
C 6.58666242 21.52752137 12.25614620 0.00469678 0.00578621 0.00416200
C -4.11711512 24.49355203 15.45759033 0.00444159 -0.00128169 0.00822240
C -4.31002471 19.52635399 14.99363152 -0.00149712 0.00058849 -0.00406271
C 2.00266518 24.14985706 14.65201761 0.00075534 0.00503455 -0.01072374
C 2.50328691 28.91546457 15.66602365 0.01227680 0.00475485 -0.00022897
C -5.46374328 25.19713392 15.16247064 0.00483890 0.00400525 -0.00577355
C -3.18542475 20.45007273 15.35193663 -0.00589779 0.00017747 0.00268488
C 3.20750248 23.33361215 15.02408222 -0.00097038 0.00186985 -0.00160396
C 1.30085050 28.11285643 15.48076891 -0.00279819 0.00279307 0.00132272
C -5.70034891 23.42641731 23.44097687 -0.00212580 -0.00480387 0.00588111
C -8.56987608 28.15173386 19.22484137 -0.00306155 -0.00373066 0.00322278
C -2.11286076 25.62812950 19.07191133 -0.00100708 0.00538635 0.00281740
C 0.81134474 20.54546856 23.40165347 -0.00071472 0.00420521 -0.00124980
C -4.57694768 23.29328328 22.69632683 0.00360089 -0.00605967 -0.00398933
C 3.21722367 27.94172012 19.93496927 0.00171046 -0.00149782 -0.00993702
C -3.33032109 25.76337562 19.76852767 0.00471737 -0.00410053 -0.00052875
C 28.17800800 20.77212351 22.65106921 0.00297331 0.00062547 -0.00664270
C -3.60740496 22.36540112 23.02952562 -0.00094010 0.00467174 -0.00344571
C 2.19051124 27.11442516 19.45756242 -0.00245352 0.00413219 0.00451335
C -4.37027999 26.53274604 19.25103263 -0.00035482 -0.00019882 -0.00010075
C -10.21290453 21.60528807 23.20367376 -0.00453467 -0.00084733 0.00469138
C -3.79379459 21.63419995 24.17171898 -0.00118511 -0.00384847 0.00166429
C 2.32233069 26.37016463 18.26933553 -0.00159081 -0.00543780 0.00153684
C -4.14842221 27.26287439 18.02948233 0.00672682 0.00764890 0.00325404
C -10.41446266 22.37803808 24.31500204 0.00454659 0.00134548 -0.00347672
C -2.16595673 21.82550309 18.86883666 0.00026155 0.00285764 0.00439680
C 0.82670102 26.37661468 23.78281527 0.00506792 0.00707768 0.00642926
C -5.99386253 27.29516207 23.82553538 0.00363692 -0.00302710 -0.00462221
C -8.65498583 22.02523241 18.77575955 -0.00721382 -0.00075248 0.00374731
C -3.19629965 22.64238322 18.40071718 -0.00137715 0.00401572 0.00314829
C -11.45554784 27.22532037 24.05042192 -0.00331788 -0.00301011 0.00138202
C 7.14378596 26.64604238 0.01149242 0.00051471 0.00789092 0.00872311
C 3.36574675 21.61890547 18.39489816 -0.00033580 0.00003845 0.00314241
C -7.03342487 24.58279173 21.76373497 -0.00135323 -0.00046544 0.00196480
C -7.38013919 19.68931321 20.74139377 -0.00144359 -0.00196156 -0.00365858
C -1.07207211 24.05733277 20.66555030 -0.00725515 0.00717180 0.00212347
C -0.45323600 28.99741213 21.86812442 0.00737936 -0.00213314 0.00363056
C -8.25562736 25.48310445 21.61793061 0.00242069 0.00173543 -0.00399495
C -6.21669900 20.65052513 20.81349945 0.00019120 -0.00293991 -0.00262798
C -0.14375575 22.92163602 20.91998244 -0.00343268 0.00097209 -0.00377195
C -1.87430222 28.40720299 21.69507721 0.00614543 0.00279318 -0.00024578
C 16.31548434 3.78883950 5.05006846 0.00301214 0.00100914 0.00281999
C 13.58809333 9.02047472 0.97113426 0.00328739 -0.00001866 -0.00323322
C 20.10694173 5.94803672 0.96676971 0.00469958 -0.00362507 0.00517509
C 22.60882247 0.90316345 5.15099964 -0.00415061 0.00475943 -0.00872038
C 17.59544131 3.74383225 4.42657997 0.00327505 0.00943709 0.00065095
C 25.38168440 8.51362795 1.65845544 0.00108576 0.00303385 -0.00288172
C 18.96595270 6.09831931 1.68729034 -0.00674064 -0.00336693 0.00324026
C 10.83636998 1.22432035 4.45978613 0.00447806 -0.01107391 0.00418021
C 18.58512054 2.93268162 4.78985976 -0.00424749 0.00028450 0.00058194
C 24.46037158 7.50299845 1.31835616 0.00071680 0.00502199 0.00434058
C 18.02162102 7.07439018 1.38703995 0.00250644 -0.00238511 -0.00115884
C 11.91898042 1.98350661 4.88362038 0.00331904 -0.00038230 0.00013541
C 18.38704607 2.01236322 5.84491192 -0.00252535 -0.00052860 0.00004586
C 24.64290892 6.70516427 0.18345080 0.00998669 -0.00460172 0.00994298
C 18.20527332 7.82759968 0.18177448 -0.00448306 0.00055477 -0.00688644
C 11.85060386 2.81000513 6.01898124 -0.00024830 0.00026698 -0.00498344
C 20.16248395 2.05042253 0.57983249 -0.00366567 -0.00448453 0.00280779
C 23.05801254 6.87218483 5.52997069 0.00358779 -0.00529736 -0.00277707
C 16.47298888 7.65736482 5.70576369 -0.00117918 0.00191627 -0.00460430
C 13.41179268 3.05517403 0.43350442 -0.00250735 0.00067366 0.00525719
C 19.17329048 2.85466765 0.11014545 0.00029138 -0.00090811 -0.00872429
C 10.80060813 7.88780742 6.04708502 0.00705109 0.00253330 -0.00481931
C 17.49642877 6.75255146 6.00193456 -0.00217590 0.00284300 -0.00029343
C 13.33554103 1.96571711 24.24591115 -0.00283183 0.00025929 0.00083780
C 14.92396923 5.17287494 3.60835858 -0.00191445 0.00551347 -0.00336067
C 14.57885495 0.25814145 2.62968989 0.00630097 -0.00048365 -0.00354244
C 21.44872017 4.50787225 2.40132770 -0.00443250 0.00225821 0.00010441
C 21.73179206 9.35233460 3.41499097 0.00006384 -0.00949663 -0.00444677
C 13.71472320 6.03816445 3.53539632 0.00439613 0.00099002 0.00575012
C 15.68783276 1.22942400 2.90380243 -0.00211427 -0.00501218 0.00410533
C 22.70830228 3.60525582 2.37326846 0.00281277 -0.00148044 -0.00303719