2880
Time=92000.00000002 pbc="T T T" Lattice="39.39570521 0.00000000 0.00000000 0.00000000 29.13261216 0.00000000 -12.02815434 0.00000000 24.40233524" energy=-18396.54483461 virial="-87.28616911 -2.21609576 -23.27752605 -2.21609576 -53.82504378 15.03035447 -23.27752605 15.03035447 -30.42598887" stress="-0.00057863 -0.00010372 -0.00087857 -0.00010372 0.00055902 0.00060889 -0.00087857 0.00060889 0.00135423" Properties=species:S:1:pos:R:3:vel:R:3
C 3.17627430 3.94831098 4.97120372 0.00280654 -0.00008380 0.00665813
C 0.28087034 8.43043473 0.66057643 -0.00171425 -0.00508033 -0.00170334
C 6.86691980 6.09312136 0.91419314 -0.00702842 -0.00249394 0.00564233
C 9.86623911 1.32241737 4.92885305 0.00705109 0.00371461 -0.00070684
C 4.39633679 3.85735796 4.35713625 0.00906155 -0.00181554 -0.00635653
C 12.53701548 8.45960581 1.81427998 0.00893557 0.00246685 0.00180628
C 5.67042270 6.18025766 1.60421274 0.00213007 0.00083693 0.00780069
C 37.09153376 1.24565805 4.43281386 -0.00285587 -0.00781912 -0.00578990
C 5.36300032 2.94762901 4.77788599 -0.00373657 0.00014789 0.00211802
C 11.65793397 7.43230426 1.37557456 0.00186910 0.00388597 0.00157120
C 4.73652296 7.15320064 1.23537871 -0.00017410 0.00316181 0.00236212
C -1.39192565 2.27252412 4.65946601 0.00022747 0.00354666 0.00340660
C 5.17664075 2.20028894 5.91358188 0.00362755 -0.00154601 -0.00456246
C 11.82754564 6.73175510 0.10744778 0.00007619 -0.00209610 -0.00880672
C 4.92683172 7.97009769 0.13020305 0.00396221 0.00249592 -0.00710726
C -1.51465854 3.06904917 5.86261203 0.00066682 0.00406462 0.00120839
C 7.20837159 1.86462952 0.39679224 -0.00116591 0.00371033 0.00109313
C 9.89702403 6.93923904 5.73980479 0.00247813 -0.00823821 -0.00033091
C 3.13490094 7.79580857 5.70143140 0.00199342 -0.00466497 -0.00045829
C 0.38265782 2.67419568 0.70325485 -0.00345631 -0.00308457 -0.00028137
C 6.20920150 2.72681401 0.10143855 -0.00222862 -0.00317875 -0.00096383
C -2.58523014 8.12551366 5.73998088 -0.00494880 0.00353784 0.00552011
C 4.14364092 6.93532016 6.10223871 0.00059356 -0.00067459 -0.00589140
C 12.88460725 1.76087405 0.12037776 -0.00096982 0.00025740 0.00082821
C 1.95457024 5.24179765 3.42053910 -0.00806117 -0.00184054 -0.00220975
C 1.52861882 0.09592183 2.90993641 -0.00659937 0.00592122 0.00358585
C 8.12973556 4.71062859 2.51030809 0.00058542 -0.00698339 0.00215625
C 8.58402823 9.32113719 3.74045550 0.00200447 0.00817964 -0.00710474
C 0.59754198 5.83193739 3.22569369 -0.00767118 0.00188457 0.00187534
C 2.93576773 0.67020553 3.06957221 -0.00366721 0.00070296 0.00087293
C 9.12833850 3.64721445 2.56417051 -0.00249400 -0.00063514 -0.00043232
C 7.48532396 8.33445508 3.37323957 0.00479463 0.00087603 -0.00048171
C -0.00986287 3.64499148 11.07190980 -0.00298114 0.00125740 0.00245683
C -2.72809663 8.88647827 6.87126507 -0.00256196 -0.00145769 -0.00474034
C 3.88731520 6.06031404 7.10541173 -0.00251581 -0.00230732 -0.00164517
C 6.79804911 1.17994148 11.05972718 -0.00516607 -0.00341115 0.00697349
C 1.18613163 3.63262202 10.34445084 0.00042832 -0.00779929 0.00331997
C 9.48250914 8.46435567 7.97422446 0.00217764 -0.00003114 0.00140099
C 2.60357568 5.94045035 7.69997169 0.00107491 -0.00368650 0.00032781
C -5.14838587 0.95354941 10.69598849 -0.00012035 0.00451660 0.00473917
C 2.22922386 2.79096771 10.78474536 0.00696012 -0.00150110 0.00472182
C 8.55075749 7.57845525 7.58298789 0.00159432 0.00538096 0.00195616
C 1.61749308 6.83967310 7.31234780 0.00041095 -0.00291284 -0.00125070
C -4.20590595 1.90466647 11.13562347 -0.01219557 -0.00039305 0.00428198
C 2.04592948 1.90342125 11.89051290 -0.00946343 -0.00903512 -0.00245402
C 8.72969149 6.81800176 6.40317417 0.00181333 0.00704284 -0.00066784
C 1.86954477 7.77451986 6.26300270 0.00537905 0.00173030 0.00581894
C -4.45787840 2.78354577 12.21309046 0.00576841 0.00083318 -0.00379816
C 3.95893750 2.31928319 6.60962072 0.00212228 0.00438530 0.01033024
C 6.79674735 6.91568761 11.69044930 0.00455514 0.00130650 -0.00283063
C 0.11408836 7.49090041 11.72131414 0.00172173 -0.00274575 -0.00408152
C -2.61548193 2.84616738 6.74974655 -0.00346480 0.00138898 -0.01199028
C 2.92416775 3.08857063 6.10034615 -0.00479877 0.00051401 0.00203490
C -5.39398232 7.81802997 12.08587615 -0.00161451 0.01090274 -0.00763555
C 1.10646740 6.56037978 12.08444995 0.01164789 0.00196310 -0.00391863
C 9.64381012 2.15489887 6.01873703 -0.00774546 0.00045934 -0.00165360
C -1.25407231 5.06342318 9.59117961 0.00863587 -0.00317055 -0.00473934
C -1.42883251 0.26563083 8.60695506 -0.00087714 0.00625614 0.00016996
C 5.27057011 4.77308453 8.62190990 -0.00722359 0.00481899 -0.00140313
C 5.37782034 9.27228447 9.95142500 -0.00216322 0.00655742 0.00340277
C -2.51090424 5.81986784 9.63539845 -0.00050323 0.00061202 -0.00482806
C -0.34707174 1.30024928 8.63642253 -0.00134535 0.00247690 0.00633457
C 6.47057099 3.74531263 8.86437552 0.00309837 0.00518080 0.00580811
C 4.14768127 8.33673318 9.76945014 -0.00569960 -0.00408225 0.00216243
C -2.91126270 3.56778098 17.30355451 -0.00182330 -0.00014719 0.00167538
C -5.58878402 8.49463336 13.24649080 -0.00771181 -0.00534661 0.00160130
C 0.87389430 5.73172539 13.13277123 0.00007436 0.00046353 -0.00132407
C 3.82927910 1.15384742 17.08521329 -0.00567055 0.00244973 0.00371456
C -1.74340317 3.64128319 16.54225474 -0.00101341 0.00103986 0.00494337
C 6.49635554 8.45446734 13.94885911 -0.00241329 0.00076078 -0.00102470
C -0.32167182 5.84358457 13.85237041 -0.00099591 -0.00027560 0.00144605
C 31.06600518 1.16530886 16.81809005 -0.00396950 -0.00190879 0.00172486
C -0.72464440 2.79617287 16.82886175 -0.00114846 0.00367631 0.00672736
C 5.46883191 7.57597828 13.58406047 0.00133261 0.00969843 -0.00192276
C -1.30977212 6.77884300 13.54407644 -0.00044701 -0.00879912 0.00206891
C -7.39761052 2.11478892 17.10182092 0.00156743 0.00567916 -0.00926678
C -0.84365136 1.99636122 17.98013611 -0.00207171 0.00211657 -0.00183327
C 5.61743821 6.72132092 12.48827050 0.00151684 -0.00541903 0.00330560
C -1.09386947 7.63492642 12.40974990 0.00915739 0.00080716 0.00244325
C -7.50657585 3.01832336 18.18880314 -0.00035760 0.00472662 -0.00694600
C 0.75830948 1.82402313 12.49524124 0.00262054 -0.00186552 -0.00898227
C 3.81127157 6.76405915 17.74833832 -0.00056461 0.00371045 -0.00177568
C -3.04663460 7.64385911 17.66100760 -0.00738101 0.00208393 -0.00374757
C -5.72198782 2.60783352 12.82084494 0.00707378 -0.00098433 0.00377930
C -0.21269680 2.77907885 12.13687908 0.00531772 0.00158487 0.00324450
C -8.42621180 7.55446374 18.30065981 0.00117954 -0.01554581 0.00471812
C -1.99565617 6.82842783 18.11345843 0.00691606 0.00150709 0.00368412
C 6.76854737 1.98765237 12.24050840 -0.00571906 0.00563746 -0.00464630
C -4.20280616 4.99055861 15.87743132 -0.00246534 -0.00417758 -0.00700749
C -4.61903076 0.39591208 14.98295385 0.00265642 0.00417708 0.00730373
C 2.15975626 4.29328362 14.57456496 -0.00235084 -0.00100673 0.00121497
C 2.42915200 9.34908668 15.83046262 0.00865156 -0.00740206 -0.00886194
C -5.38044975 5.84321892 15.69826044 -0.00561483 -0.00043866 -0.00763986
C -3.54304522 1.35885017 15.30076467 -0.00112694 -0.00072974 0.00524958
C 3.34531050 3.42349036 14.69000472 -0.00522902 0.00018857 0.00598260
C 1.13931343 8.58065135 15.49531511 -0.00015415 0.00101199 -0.00129007
C -5.63546426 3.54491671 23.39424476 -0.00654573 0.00294210 -0.00600865
C -8.73818892 8.40105345 19.42770482 -0.00124339 -0.00160262 -0.00387300
C -2.13680855 5.99964123 19.21416670 0.00086397 0.00023270 -0.00845533
C 0.87969906 0.99337008 23.35929599 0.00340065 0.00416982 0.00063199
C -4.47767135 3.49492259 22.65085676 -0.00233659 -0.00096358 -0.00292209
C 3.24150960 8.40216161 19.86430095 0.00849608 0.00201346 -0.00743494
C -3.29409154 6.08213218 20.00440947 0.00138011 0.00051877 0.00251566
C 28.07848571 1.23325575 22.76057407 -0.00395463 0.00524351 -0.00566673
C -3.46526917 2.59753445 22.97229003 0.00390672 -0.00332422 -0.00374423
C 2.22889340 7.60435487 19.38081155 -0.00876332 -0.00278237 -0.00079758
C -4.32513108 6.91649230 19.64581844 0.00093285 -0.00042081 0.00179246
C -10.27189881 2.07199081 23.23210976 0.00197892 0.00018375 0.00348768
C -3.60153973 1.81448227 24.16991323 -0.00400460 0.00297677 -0.00991695
C 2.50028862 6.70390453 18.29164002 -0.00802963 0.00270843 -0.00689398
C -4.20716149 7.78208795 18.47295983 -0.00450112 0.00167389 0.00263039
C 1.65255395 2.75029234 0.04582413 0.00289885 0.00066123 -0.00515844
C -2.03852262 1.94838821 18.73498681 -0.00021928 0.00139949 -0.00243633
C 1.11291708 7.00326740 23.92521492 0.00020952 -0.00461933 -0.00098574
C -5.83756562 7.93833411 23.84306422 -0.00077126 -0.00124514 -0.00562397
C -8.64553043 2.86926645 18.96875939 -0.00015790 -0.00153885 0.00096420
C -3.11555779 2.71175454 18.35282881 0.00386019 -0.00335143 -0.00264295
C -11.53425004 7.58856098 23.99183980 -0.00154130 -0.01140424 -0.00249795
C -4.87480656 7.01238666 24.24952897 -0.00054861 0.00116046 0.00125695
C 3.63113589 2.03921510 18.17142280 -0.00440875 -0.00205346 -0.00019520
C -6.87274553 5.10976931 21.93272438 0.00440600 -0.00079074 -0.00378867
C -7.34133166 0.19684547 20.97511516 0.00735967 -0.00035401 -0.00702821
C -0.68664457 4.70000098 20.62041308 -0.00046337 0.00450663 0.00298142
C -0.47401905 9.55985050 21.99401517 -0.00316722 0.00178033 0.00652589
C -8.23675826 5.91159063 21.97001570 0.00366556 -0.00888947 0.00332920
C -6.24774498 1.12822756 21.32209727 0.00303882 -0.00377986 -0.00093517
C 0.68585921 4.08484960 20.71586739 -0.00149088 0.00096006 -0.00009608
C -1.38814042 8.41500023 21.81428837 0.00248196 0.00552746 -0.00303312
C 3.26999707 13.36738354 5.52571881 0.00524653 -0.00335843 -0.00127241
C 0.34432231 18.43709318 0.99140507 0.00096646 -0.00077147 0.00071776
C 6.94138365 15.57773811 1.00998010 0.00655199 -0.00773901 0.00451823
C 9.72354546 10.69642832 5.31041922 0.00602197 -0.00139993 0.00289020
C 4.49170678 13.23702946 4.82455887 -0.00121736 -0.00725524 0.00201504
C 12.24152794 18.03565202 1.64203837 -0.00158026 -0.00094909 0.00429372
C 5.76402848 15.79685135 1.72739178 -0.00164043 0.00143194 -0.00156841
C 36.98879554 11.04502157 4.28357941 0.00164890 -0.00165506 -0.00191209
C 5.39882288 12.27031677 5.18487348 0.00187173 0.00413217 0.00320726
C 11.35665077 16.99618334 1.38178818 0.00828862 0.00208817 -0.00401418
C 4.82978576 16.64470636 1.29726240 0.00282236 0.00493312 0.00439851
C -1.38788704 11.84412403 4.65895581 0.00211018 -0.00186843 -0.00129552
C 5.13656285 11.47291380 6.33419187 -0.00195423 -0.00342239 -0.00175340
C 11.63971194 16.09400703 0.35624762 0.00480186 0.00250586 0.00122087
C 5.05322212 17.35219519 0.07600514 0.00039361 0.00165241 -0.00240467
C -1.51918728 12.71198942 5.73142004 -0.00177247 0.00390214 -0.00588830
C 7.27808792 11.85276705 1.01099218 -0.00103710 0.00117923 -0.00245843
C 9.86764107 16.28161479 5.76495925 -0.00199018 -0.00555327 0.00226039
C 3.07657662 17.41059317 5.61024484 -0.00058099 0.01349180 0.00334489
C 0.12833754 12.40325769 0.48024192 0.00127194 -0.00949598 0.00096005
C 6.19882825 12.62471893 0.50317223 0.00404133 0.00473553 -0.00295078
C -2.33614885 17.67468138 6.07440932 0.00622476 0.00485889 0.00611300
C 4.07450165 16.56133064 6.02622727 -0.00032164 0.00158298 -0.00153643
C 12.74295008 11.55943688 0.31733392 -0.00290145 -0.00084761 0.00130531
C 2.07975885 14.61339846 3.88645635 0.00711140 -0.00363822 -0.00170202
C 1.37907675 9.75995111 2.36486984 0.00607502 0.00136367 0.00158045
C 8.13697936 14.27157910 2.65671735 0.00296986 -0.00799269 0.00867104
C 8.34976676 19.03416554 3.39629629 0.00175055 0.00473686 0.00128045
C 0.93608184 15.63113512 3.80380648 0.00611946 -0.00234234 -0.00146946
C 2.44421752 10.69106985 2.60115565 -0.00122126 -0.00039474 -0.00694998
C 9.42178777 13.48207244 2.89467018 -0.00293058 -0.00508388 0.00465319
C 7.28830613 18.00471061 3.22036114 0.00208439 0.00495740 0.00047235
C -0.03943752 13.54683882 11.20930314 -0.00440276 -0.00010958 0.00313757
C -2.57639938 18.52438829 7.11399987 0.01350094 0.00608386 0.00298528
C 4.05609959 15.76616611 7.18717009 -0.00711211 -0.00192649 -0.00450411
C 6.55909214 10.78699222 11.36733698 0.00659461 0.00335982 -0.00486012
C 1.14750329 13.35392192 10.57718670 0.00412049 0.00652130 0.00149260
C 9.25187087 17.94357654 7.83735507 0.00137161 0.00350645 0.00037829
C 2.88813378 15.76282711 7.93464201 -0.00072494 -0.00889481 0.00199297
C -5.19661098 10.93531460 10.70927118 0.00122928 0.00379715 0.00366813
C 2.03413920 12.31860593 11.00477125 0.00371007 -0.00402638 -0.00135716
C 8.34546978 16.94310870 7.54030796 -0.01105877 -0.00469012 -0.00340837
C 1.86140081 16.67090449 7.56152322 -0.00553693 -0.00192808 0.00468701
C -4.19449587 11.84456336 11.04811497 -0.00063242 0.00645197 0.01329203
C 1.80366834 11.50796475 12.12454320 -0.00732118 0.00405942 -0.00405880
C 8.61691599 16.10076737 6.45958836 0.00091185 -0.00347625 0.00098417
C 1.96824977 17.59424156 6.51344557 0.00048147 -0.00065222 -0.00339456
C -4.31222513 12.63825054 12.22784487 -0.00223680 0.00250598 0.00461986
C 4.05960203 11.75353978 7.12462547 0.00986983 -0.00047025 0.00531061
C 6.66037516 16.49742488 11.53574220 0.00373922 -0.00544458 -0.01003656
C 0.13674382 17.33686375 11.70380543 -0.00207790 0.00552618 -0.00028118
C -2.75041016 12.71668028 6.45132501 -0.00816522 -0.01085094 0.00756535
C 3.05020512 12.57591115 6.65592279 -0.00256528 0.00340479 -0.00025600
C -5.02330106 17.55320611 12.16045004 0.00508328 0.00046482 -0.00311675
C 1.05239456 16.39900779 12.13350803 -0.00164679 -0.00326885 -0.00439919
C 9.49071390 11.47440693 6.39378825 0.00110625 0.00449174 -0.00044614
C -1.07364692 14.89105045 9.53474953 -0.00549054 0.00187062 0.00172227
C -1.31889743 9.91104677 8.56328198 0.00608003 -0.00613522 -0.00123206
C 5.15987707 14.11319000 8.72545713 0.00463896 0.00365062 -0.00416157
C 5.57069488 19.07694453 9.52493793 -0.00183680 -0.00946321 0.00032015
C -2.09657650 15.94969148 9.28434276 0.00458618 0.00396382 -0.00060804
C -0.07602107 10.76285369 8.80490764 0.00175189 -0.00317614 0.00249778
C 6.34679375 13.20132505 8.92020949 -0.00454478 -0.00438711 -0.00013973
C 4.29450413 18.35204588 9.19046391 0.00053987 0.00171920 -0.00143470
C -3.00062090 13.46033936 17.38157997 -0.00859022 0.00373926 -0.00086919
C -5.22711609 18.35081584 13.29014663 0.00603075 0.00432078 0.00751124
C 0.93093581 15.68099998 13.32303156 -0.00145231 0.00292877 0.00302260
C 3.57577730 10.82218835 17.35431300 -0.00405681 -0.00170217 -0.00573054
C -1.68675392 13.47073927 16.78191917 -0.00425366 -0.00182195 -0.00083953
C 6.19570966 18.16088916 13.71639804 0.00426939 0.00330713 -0.00639699
C -0.25326751 15.82694229 14.01798873 0.00556118 0.00041207 -0.00125722
C 31.18417303 11.21326641 16.51794266 -0.00183370 0.00285914 -0.00475953
C -0.84125046 12.44408280 17.12283046 0.00343361 -0.00395463 -0.00464862
C 5.20115102 17.19033224 13.33677047 -0.00249588 -0.00195188 -0.00044927
C -1.25185485 16.77809432 13.54174810 0.00738669 0.00304929 0.00005787
C -7.33943690 12.20797309 16.92240475 -0.00147664 -0.00121740 0.00443894
C -1.10788619 11.60023175 18.23491710 0.00545910 -0.00263142 -0.00048982
C 5.40046453 16.38530881 12.10654650 -0.00049639 -0.00091648 0.00147285
C -1.07109167 17.50080504 12.35676791 -0.00670501 0.00621344 0.00120523
C -7.45224979 12.89945852 18.11690206 0.00624178 -0.00625053 -0.00152103
C 0.60478617 11.76705911 12.79209542 -0.00229420 -0.00144241 0.00779532
C 3.66441003 16.40060385 17.82248037 -0.00062897 -0.00083807 0.00670335
C -2.72529036 17.29316976 17.86914111 0.00151289 0.00324534 -0.00537062
C -5.49348730 12.53056997 13.01533937 0.00106982 0.00220074 0.00544441
C -0.29371223 12.72277123 12.36006401 0.00272595 -0.00164391 0.01159055
C -8.47734683 17.31254300 18.03943272 -0.00232030 0.00361165 0.00141868
C -1.78945532 16.38407447 18.28757607 0.01164072 -0.00149418 0.00080446
C 6.40398485 11.60499243 12.54625566 -0.00256214 -0.00405161 -0.00048556
C -4.08640157 14.81860649 15.78177698 0.00210554 -0.00197028 -0.00255818
C -4.47153617 9.94181009 14.85562459 -0.00595698 0.00172725 0.00330833
C 2.14395558 14.15109311 14.73250354 0.00552642 -0.00165909 -0.00015325
C 2.78545536 19.13268875 15.68112070 -0.00521925 -0.00279826 -0.00140274
C -5.15203730 15.81483980 15.49949248 0.00481478 0.00233681 0.00505478
C -3.29015935 10.86511312 15.06699882 -0.00012279 -0.00500185 -0.00312357
C 3.32733565 13.21096027 14.71727968 0.00072985 -0.00524689 -0.00178204
C 1.68653848 18.22079492 15.47959304 -0.00546553 0.00233169 -0.00171243
C -5.86110144 13.26486338 23.65412125 0.00219910 -0.00303433 -0.00582436
C -8.66096548 18.15169213 19.17508747 0.00194108 0.00717824 -0.00620862
C -1.90014860 15.59149169 19.38040425 0.00460702 -0.00624221 0.00264779
C 0.81038613 10.82172461 23.58374996 0.00002115 0.00318539 0.00029548
C -4.65066664 13.02172610 22.85452236 0.00740517 0.00342143 -0.00453085
C 3.29466857 17.77953200 20.20914635 -0.00509119 -0.00009150 -0.00293460
C -3.10235965 15.65949994 20.05694375 0.00126063 -0.00060901 -0.00147785
C -11.21132052 10.79710676 22.77733592 -0.00088155 0.00154042 0.00216456
C -3.62116815 12.18750603 23.32238172 -0.00077848 -0.00514922 0.00675660
C 2.31083419 16.85769120 19.76301770 0.00993124 0.00202774 0.00394363
C -4.15270656 16.47571414 19.65262766 0.00043506 -0.00092014 -0.00358395
C -10.28500304 11.69009333 23.23661172 0.00002732 -0.00420632 0.00582318
C 8.41577490 11.59543138 0.23698365 0.00237772 -0.00180539 -0.00394824
C 2.48647190 16.18239215 18.55173679 -0.00560043 -0.00245473 0.00574760
C -3.95886823 17.29243724 18.54634738 -0.00864123 -0.00463086 -0.00549574
C 1.50639388 12.45559014 0.06329594 -0.00687527 0.00454543 0.00383255
C -2.30441713 11.70791477 18.95998477 0.00741878 -0.00297821 0.00330665
C 0.85197617 16.11269383 24.08061102 0.00322247 0.00345934 0.00031867
C -5.82894433 17.10189850 23.70415160 0.00270044 0.00441387 -0.00047908
C -8.63839334 12.59278961 18.81833167 0.00031491 0.00359565 0.00298754
C -3.30556030 12.54318170 18.45378114 0.00047440 0.00517596 -0.00715769
C -11.48356555 17.51159680 24.36290156 -0.00291616 0.00129507 0.00574231
C -4.86285203 16.23089026 24.18829281 0.00051620 -0.00222783 -0.00069418
C 3.38349518 11.63891851 18.48355017 0.00482002 -0.00097232 0.00140436
C -7.07114965 14.75987953 22.02526078 0.00681021 -0.00708279 -0.00821452
C -7.76077127 9.95599677 21.02275439 0.00372404 0.00184998 -0.00154309
C -0.71707180 14.27327542 20.99100187 0.00525857 -0.00109928 -0.00080629
C -0.67672755 19.01446342 21.83341591 -0.00336082 -0.00398185 -0.00218073
C -8.28663485 15.57932801 21.84320229 0.00146025 -0.00118402 0.00457173
C -6.55568783 10.86729053 21.19358085 -0.00047894 0.00648175 -0.00894601
C 0.42511968 13.41037383 21.18512165 -0.00051672 0.00467220 0.00535066
C -1.90817182 18.10554706 21.95106344 0.00364340 0.00365725 0.00845409
C 3.13704407 23.44866956 5.27065938 0.00347089 0.00667500 -0.00527939
C 0.15612107 28.02125722 1.19610953 0.00361131 -0.00407253 0.00257231
C 6.75847251 25.38613509 1.02643939 0.00408954 -0.00185233 0.00131244
C 9.56490994 20.24863903 5.00851293 0.00028634 0.00102539 0.00361360
C 4.27794571 23.14480054 4.42140061 -0.00545995 -0.00102525 0.01185386
C 12.28530622 28.02368909 1.50009410 0.00209613 0.00102478 -0.00238164
C 5.60860772 25.49509268 1.80168490 -0.00352382 -0.00419309 -0.00005267
C 37.14368753 20.85553141 4.39795999 -0.00061252 -0.00133661 -0.00509650
C 5.18271228 22.15613986 4.83726117 -0.00580390 -0.00764433 0.00321868
C 11.22941633 27.31149730 1.05760984 0.00234877 0.00607437 -0.00775238
C 4.62563968 26.43177037 1.52729734 -0.00102927 -0.00394406 0.00190663
C -1.23904724 21.64434516 4.85067824 -0.00968212 0.00022874 0.00278570
C 5.05402986 21.43432261 6.06083245 -0.00135911 -0.00207063 0.00286248
C -0.72243758 26.52548550 24.26487716 0.00481170 0.00299448 0.00133110
C 4.69435735 27.15458357 0.33890028 -0.00657293 0.00027504 0.00686951
C -1.41741080 22.51032915 6.01078925 0.00385217 0.00015483 -0.00295452
C 6.73502280 21.43981008 0.52578635 0.00288437 -0.00656678 -0.01222515
C 9.69189566 26.45058065 5.26342033 0.00137787 0.00500811 -0.00079787
C 3.25527414 27.22261812 5.71076775 -0.00594185 -0.00812029 -0.00267420
C -0.03264283 22.40633130 0.26896074 -0.00475971 -0.00335052 -0.00879347
C 5.69247922 22.17539888 0.04442143 0.00527089 -0.00372721 -0.00425485
C -2.62305809 27.18272860 5.84009369 -0.00718005 0.00000655 0.00330408
C 4.27980930 26.41938362 6.12090886 -0.00146682 -0.00002069 0.00279171
C 0.37664069 21.31860244 24.27377406 -0.00350547 0.00492958 -0.00615823
C 2.05966451 24.70630606 3.56970667 -0.00131045 0.00427519 0.00635411
C 1.59749299 19.71581823 2.63246624 0.00101732 0.00684237 -0.00244430
C 8.03932736 23.97819593 2.53437661 -0.00577248 -0.01062800 0.00140991
C 8.50977485 29.05817826 3.40347937 -0.00372304 0.00377836 0.00202227
C 0.99367951 25.68516590 3.37495208 0.00339923 0.00165429 0.00023225
C 2.79781999 20.62731687 2.82414139 0.00634526 0.00617811 -0.00005400
C 9.40619090 23.27242558 2.63846404 -0.00037400 0.00178429 -0.00226138
C 7.22890725 28.34832077 3.30183046 0.00102925 -0.00239547 0.00510877
C 0.26082038 23.00893977 11.39108035 -0.00247335 0.00151892 -0.00639584
C -2.67649972 27.92710484 7.02394220 -0.00421583 0.00053350 -0.00846865
C 4.16592646 25.50544550 7.17251313 0.00137272 0.00668960 -0.00165031
C 6.58938987 20.50228797 11.09084845 0.01094788 0.00567462 -0.00301602
C 1.38135536 22.94535789 10.58455543 -0.00132057 -0.00600788 0.00168353
C 9.26029346 28.16679259 7.53822898 -0.00638126 0.00767682 0.00120657
C 2.88866750 25.60506025 7.91929935 0.00244873 0.00390354 0.00294964
C -4.97482580 20.72260015 10.65506718 -0.00930763 -0.00698988 0.00390082
C 2.43605170 22.15152257 11.06832487 -0.00362820 -0.00494992 0.00566985
C 8.28947823 27.36744006 6.97033413 0.00447599 0.00194986 0.00104507
C 1.95093147 26.55382781 7.63871345 -0.00933993 -0.00118978 0.00273592
C -3.98702886 21.61905354 11.10756988 -0.00443299 -0.00378513 0.00445305
C 2.23347981 21.21134007 12.16027521 -0.00524919 -0.00166532 0.00639785
C 8.52630594 26.35217945 5.96745053 0.00499859 -0.00677112 -0.00442313
C 2.07578130 27.36676153 6.50823562 0.00029880 -0.00199033 -0.00162644
C -4.28574182 22.39159635 12.18769400 -0.00240083 -0.00198224 -0.00390486
C 3.94700492 21.66834282 6.78924983 -0.00450638 -0.00055608 -0.00536053
C 7.17660979 26.54782698 11.58796201 -0.00082807 0.00599476 0.00435915
C 0.34801468 26.95643753 11.67406966 0.00102218 -0.00242649 -0.00201995
C -2.65025986 22.41810592 6.70503214 0.00301097 0.00273300 -0.00316879
C 2.95949846 22.63124894 6.41297638 -0.00258161 -0.00211901 -0.00434637
C -5.19092597 27.20330281 12.21255734 -0.01019920 0.00437650 0.00080386
C 1.37113884 26.13316141 12.13490983 -0.00030849 0.00962832 0.00196617
C 9.31747370 21.03137406 6.17201764 0.00343352 0.00095428 0.00916578
C -0.81497042 24.46788810 9.87206119 -0.00074307 -0.00436991 -0.00594046
C -1.15839949 19.76731958 8.57098749 -0.00298988 0.00266194 -0.00435236
C 5.31815368 24.09223061 8.68486534 0.00566546 -0.00162055 -0.00850127
C 5.47943450 29.08745395 9.53363218 -0.00441490 -0.00143523 0.00383871
C -1.76462164 25.57980167 9.71210922 -0.00212442 -0.00268012 0.00464647
C 0.12824517 20.55473248 8.61194525 0.00482383 0.00346398 0.00683923
C 6.45433955 23.09248883 8.82659440 -0.00035059 -0.00265568 -0.00300840
C 4.29409861 28.16840298 9.38491976 0.00290662 0.00214846 -0.00791038
C -2.63066598 23.04263274 17.51717442 0.00593445 -0.00784568 -0.00775386
C -5.55359878 28.02695418 13.28489777 0.00137632 0.00152734 0.00369553
C 1.23096064 25.30048081 13.26565664 0.00188608 0.00644386 0.00112148
C 3.89796220 20.61293735 17.15651586 -0.00496400 0.00382050 0.00386165
C -1.45042328 22.96038000 16.78803974 -0.00229782 -0.00166437 0.00564515
C 6.59121158 28.18487687 13.75129613 -0.00488267 0.00025992 0.00998830
C 0.02334955 25.41787711 14.00120099 -0.00185738 -0.00219504 -0.00346290
C -8.09477923 20.41248761 16.74784924 -0.00405340 0.00026910 -0.00758384
C -0.46967057 22.09300686 17.12144482 0.00367167 0.00771922 0.00304707
C 5.63880891 27.33998982 13.29000117 -0.00145359 0.00161957 0.00871071
C -0.94987256 26.39397604 13.57517426 -0.01175711 -0.00065606 0.00248301
C -7.09765509 21.17948644 17.26035416 0.00229546 -0.00122520 0.00425670
C -0.62791292 21.13613512 18.11104459 -0.00423334 0.00729535 -0.00500356
C 5.93183885 26.39716577 12.25266322 0.00581873 0.00140069 0.00875032
C -0.79574896 27.11470466 12.41934751 0.00666463 0.00123366 -0.00039265
C -7.32521315 22.05527608 18.32700122 0.00616573 -0.00187923 -0.00161040
C 1.04212196 21.34998552 12.84042184 0.00136170 0.00559256 0.00879810
C 3.65890032 26.31607430 17.51345994 0.00890389 0.00414133 0.00062294
C -2.72815970 27.08162531 17.75254985 0.00049312 0.00224236 -0.00008841
C -5.49248303 22.19198358 12.88284367 0.00344418 0.00624212 0.00220768
C 0.12068483 22.30726558 12.57765893 0.00610386 0.00623824 0.00608963
C -8.33668108 27.16452057 18.32849940 -0.00140951 -0.00194942 0.00043304
C -1.71770761 26.21056818 18.29071043 -0.00416955 -0.00060710 0.00348274
C 6.39067308 21.38741478 12.23486169 0.00278897 0.00089904 0.00026506
C -4.02614023 24.55608346 16.03792093 -0.00080436 -0.00340512 -0.00422259
C -4.15491220 19.88226995 14.90524992 -0.00223071 0.00233529 0.00003345
C 2.57871269 23.81343185 14.67761289 -0.00368193 -0.00461763 0.00293559
C 2.64896018 28.92515946 15.51016163 -0.00167763 0.00788617 0.00320999
C -5.21143346 25.36373570 15.72238197 -0.00201087 0.00551345 -0.00338978
C -3.25740730 20.99230622 15.12939126 0.00892367 -0.00098009 -0.00179619
C 3.83965488 23.06450195 14.81006125 0.00080963 0.00507705 -0.00066562
C 1.49379008 28.05586745 15.37167253 -0.00193851 -0.00111961 -0.00549275
C -6.08974616 23.01051163 23.34124942 -0.00148238 0.00340141 -0.00588014
C -8.53948477 27.99591866 19.43172796 0.01075954 0.00019284 -0.00230591
C -1.97412556 25.49711310 19.39784800 0.00892328 -0.00514773 0.00145661
C 0.57563153 20.42607878 23.23495807 0.00053823 0.00172681 -0.00106830
C -4.81926746 22.92180406 22.71811212 -0.00437544 0.00211410 0.00767490
C 3.31307389 27.94316780 19.75856561 0.00482753 0.00401588 -0.00318294
C -3.26242865 25.50741372 20.03944058 -0.00118416 -0.00195351 0.00933709
C 28.12944838 20.63594937 22.72934442 0.00311706 0.00115617 -0.00683600
C -3.82899860 22.15791118 23.18759086 -0.00690401 0.00441115 0.00830411
C 2.32588389 27.04245339 19.38358811 0.00173745 0.00060301 0.00240503
C -4.18237650 26.37446677 19.57699532 -0.00400176 -0.00564411 0.00544474
C -10.40083165 21.68747884 23.07369920 -0.00443035 -0.00264357 0.00112214
C -4.00517160 21.27112059 24.26130098 -0.00134834 -0.00105771 -0.00532291
C 2.43313096 26.27145158 18.23406842 0.00858296 -0.00095697 0.00290942
C -3.89154364 27.18931322 18.45911918 -0.00700521 -0.00232611 -0.00913418
C -10.75930670 22.53435750 24.12942047 -0.00011501 -0.00899245 0.00467979
C -1.89858091 21.16405380 18.79021402 -0.00065355 -0.00302917 -0.00075206
C 0.50233886 26.42523110 23.61583949 0.00122389 0.00261707 -0.00049076
C -6.14455281 27.20110950 23.98766699 -0.00839709 -0.00646136 0.00710499
C -8.55021435 22.10030688 18.92614972 0.00578620 0.00862972 -0.00861709
C -2.88486243 22.12804822 18.56184788 0.00758442 0.00643207 0.00344966
C 0.39955892 27.31243124 0.01556968 -0.00509430 0.00126798 -0.00480110
C -5.14348176 26.27612507 24.26835709 -0.00275318 -0.00355404 0.00035049
C 3.67475256 21.53513608 18.19416964 -0.00204191 0.00557365 -0.00146424
C -7.07573887 24.57632011 21.79342540 -0.00142309 -0.00524887 -0.00142458
C -7.52076291 19.56083220 20.73240551 -0.00903890 0.00608177 -0.00584443
C -0.80614416 23.97647860 20.93571064 0.00552215 -0.00225389 0.00417817
C -0.38266645 29.01797000 21.64796554 0.00413133 -0.00072722 0.00390917
C -8.05060166 25.66094875 21.67017099 0.00688726 -0.00037581 -0.00220010
C -6.39137210 20.57100742 20.82278119 -0.00086371 -0.00411453 0.00952898
C 0.49230122 23.14855302 20.98435791 -0.00244407 -0.00026852 0.00830683
C -1.50904187 28.08679103 21.49466498 -0.00371834 0.00235346 0.00222550
C 16.34579846 3.64340915 5.02353953 0.00592220 0.00742403 0.00657944
C 13.78441689 8.65999782 1.13924740 -0.00144048 0.00599413 -0.00069785
C 19.93557932 5.93692615 0.93764471 -0.00122742 0.00474195 -0.00131280
C 22.85778024 1.37054434 5.08608008 -0.00184397 0.00190998 0.00509780
C 17.50915831 3.48506925 4.29829900 -0.00150243 0.00002239 0.00600346
C 25.41319682 8.35964966 1.68918152 0.00058265 0.01129248 0.00079276
C 18.70085380 6.04608682 1.61713128 0.00111019 -0.00346872 0.00796763
C 11.07968867 1.27306952 4.25258073 -0.00137050 -0.00112873 0.00119031
C 18.40321984 2.48077999 4.65467588 0.00615443 -0.00583741 -0.00011525
C 24.47108155 7.37481259 1.39564962 -0.00600504 -0.00071889 -0.00184201
C 17.75008426 6.96103945 1.10159788 -0.00214259 0.00082717 0.00021707
C 12.11836050 2.13405801 4.68098064 -0.00247267 0.00065926 0.00667884
C 18.32615182 1.85715737 5.93181205 0.00326916 -0.00300315 -0.00004131
C 24.61226546 6.61182955 0.24825471 -0.00584445 0.00447385 -0.00986691
C 18.10607382 7.83895534 0.07025962 -0.00217557 -0.00233033 -0.00179957
C 11.91588552 2.95716999 5.81089534 0.00916700 -0.00350127 -0.00259736
C 20.06177127 1.98030870 0.31652154 0.00200090 -0.00063174 -0.00785398
C 22.76507276 7.01263984 5.57330895 0.00404314 0.00194830 0.00054718
C 16.52779609 7.54685789 5.84682514 0.00042001 0.00042347 -0.00295946
C 13.82988926 2.66035075 0.51811299 0.00121524 -0.00102840 0.00055266
C 7.04483015 2.85528368 24.21132169 0.00697647 0.00070625 0.00092563
C 10.91360738 7.70902935 6.19113871 0.00004486 -0.00199533 0.00442445
C 17.43083813 6.49853705 6.05918887 -0.00462559 -0.00123951 -0.00566226
C 13.64573328 2.10302139 24.37484650 -0.00469102 -0.00454796 -0.00573423
C 15.13456873 4.96495270 3.43679853 -0.00657729 0.00115611 -0.00151386
C 14.86204194 0.03700430 2.47808419 -0.00678801 -0.00630702 -0.00532666
C 21.10927897 4.49764194 2.52632186 0.00759737 -0.00603373 0.00182365
C 21.58742516 9.18309722 3.44153106 -0.00397506 -0.00130524 -0.00235320
C 13.90640431 5.82207679 3.20875798 -0.00441210 -0.00732811 0.00242039
C 16.22619060 0.71407749 2.64408421 0.00837145 0.00096230 0.00372539
C 22.36434333 3.58547133 2.83859929 -0.00105230 0.00350043 0.00841684