2880
Time=97999.99999997 pbc="T T T" Lattice="39.63095328 0.00000000 0.00000000 0.00000000 28.79547341 0.00000000 -12.05738715 0.00000000 24.52109257" energy=-18400.17144471 virial="-47.62302437 -1.70571062 -28.25407656 -1.70571062 -30.54065732 6.76513918 -28.25407656 6.76513918 -51.98578130" stress="0.00077972 -0.00001537 -0.00109974 -0.00001537 0.00133281 0.00033297 -0.00109974 0.00033297 0.00057074" Properties=species:S:1:pos:R:3:vel:R:3
C 3.22232993 3.94555813 5.09690505 0.00325816 0.00143584 -0.00256151
C 0.55146872 8.74728375 0.99293324 0.00764826 0.00440456 0.00475941
C 6.83453897 5.87585391 0.93209516 -0.00139445 0.00395764 -0.00540792
C 9.81570942 0.99799809 5.08790850 -0.00299683 0.00103713 0.00157534
C 4.41996708 3.77195292 4.40436272 0.00008298 0.00206248 -0.00084251
C 12.50218999 8.46895745 1.64230343 0.00035340 0.00138478 0.00055685
C 5.65695655 6.13430653 1.62944883 0.00715239 0.00115653 0.00461096
C -2.11804780 1.36948280 4.47239024 0.00157652 -0.00009656 0.00036880
C 5.35891457 2.87233777 4.86704239 0.00201813 0.00491558 -0.00038533
C 11.61547193 7.56522218 1.20182439 0.00293772 -0.00202744 0.00447777
C 4.74881129 7.08084258 1.19665323 0.00017792 0.00648955 0.00438183
C -1.08223075 2.21278389 4.88932773 0.00122926 0.00113672 0.00055900
C 5.08109722 2.01076326 5.99691511 0.00376759 -0.00242945 0.00118494
C 11.90468842 6.62979853 0.22400467 0.00648412 0.00464544 -0.00057590
C 5.03562714 7.88258072 0.07352279 -0.00433397 -0.00141234 0.00522279
C -1.26053075 2.98005263 6.04447024 -0.00667583 -0.00371217 0.00262399
C 7.01858445 1.96923526 0.39762851 -0.00366977 -0.00285755 -0.00399812
C 9.66504291 6.97931005 5.40291553 -0.00064658 -0.00742725 -0.00126410
C 3.27571477 7.75520986 5.54404939 0.00354345 0.00462726 -0.00533821
C 0.53248832 2.89697553 0.41960995 0.00324285 0.00140212 0.00541958
C -5.98894163 2.81996662 24.42059930 0.00116242 0.00701461 -0.00636439
C -2.50701425 7.70919734 6.04528313 -0.00280858 -0.00175377 -0.00683700
C 4.35122964 6.96479924 6.04953003 0.00800053 0.00626067 -0.00182641
C 12.79069518 2.02604917 0.15591891 0.00226447 0.00413858 0.00183873
C 2.06697423 5.27196162 3.45361780 -0.00466264 -0.00405220 0.00760622
C 1.67264314 0.36709599 2.57956468 -0.00201732 0.00967360 -0.00131230
C 8.08162124 4.59439411 2.53544172 -0.00086302 -0.00895860 0.00008802
C 8.55529967 9.24738158 3.45988247 0.00081579 -0.00701180 0.00724631
C 1.08141348 6.43480636 3.30565637 -0.00036409 -0.00154148 -0.00200785
C 2.97169099 1.25132087 2.72718576 0.00444868 -0.00497246 -0.00297892
C 9.39518166 3.86148971 2.70370970 0.01188708 -0.00293153 0.00393269
C 7.33616268 8.32124350 3.48544475 0.00100824 -0.00656597 -0.00535258
C 0.02513640 3.90761502 11.30718923 -0.00535972 0.00510235 -0.00519164
C -2.57375539 8.65738247 7.07008528 -0.00121334 -0.00058818 0.01071428
C 4.09421295 6.05479504 7.09564005 0.00215109 -0.00374009 0.00369737
C 6.41886833 1.05362878 11.16986165 -0.00257967 0.00733270 0.00972753
C 1.25533342 3.91196111 10.72849008 0.00821172 0.00498239 0.00180993
C 9.36970160 8.39528065 7.76521579 -0.00187436 0.00555349 -0.00563745
C 2.83986879 6.10757904 7.77649532 -0.00705730 0.00066260 -0.00236001
C 34.35742638 1.23320761 10.55824221 -0.00933248 0.00230347 0.00704792
C 2.23334827 3.07225265 11.23927010 -0.00435342 0.00085677 0.00297446
C 8.30167233 7.59595168 7.36048506 0.00020128 -0.00652106 -0.00767167
C 1.91311604 7.08348027 7.35307217 -0.00012131 -0.00401069 -0.00398350
C -4.29075550 2.10771080 10.93280626 -0.00906615 0.00134646 -0.00476669
C 2.02224309 2.20365972 12.30588138 0.00718480 0.00018250 -0.00560025
C 8.47658631 6.83687062 6.17156500 -0.00060634 -0.00414918 0.00210552
C 2.12121669 7.86636521 6.22205950 -0.00281687 -0.00120831 0.00736885
C -4.52860060 2.87117442 12.09243347 0.00096723 0.00073826 -0.00126757
C 3.85293005 2.16061066 6.63398216 -0.00575955 -0.00574449 0.00599749
C 6.83251395 6.96590934 11.44947131 -0.00435623 -0.00361549 -0.00334390
C -0.08059219 7.52548538 11.57330299 0.00290452 0.00141863 -0.00745993
C -2.51475937 2.85810437 6.71319451 -0.00526670 0.00356875 -0.01075957
C 2.94934432 3.13922210 6.19690447 0.00721185 -0.00004676 0.00136246
C -5.48155974 7.81732146 12.14413677 -0.00009605 0.00166884 0.00956630
C 0.99996227 6.76315287 12.01180039 0.00273583 -0.00047399 -0.00707345
C 9.55496996 1.79806902 6.19270140 -0.00295457 -0.01038113 -0.00246556
C -1.18743962 5.30475902 9.71187610 0.00098069 0.00358620 -0.00298517
C -1.24329011 0.23940320 8.75304093 0.00036533 0.00961334 0.00444119
C 5.26821236 4.49148627 8.57749203 0.00397953 0.00016998 -0.00351671
C 5.72621165 9.61080634 9.77040843 -0.00009292 -0.00284303 -0.00586978
C -2.31882071 6.27634031 9.54935190 -0.00390025 -0.00210820 -0.00030470
C 0.03319764 1.02214473 8.93908117 -0.00560131 -0.00194344 -0.00228621
C 6.29762954 3.38646263 8.70258259 0.00658366 0.00293302 0.00266995
C 4.48250451 8.78594873 9.40684676 -0.00616713 0.00034043 0.00075852
C -2.89553147 3.72271933 17.35977733 -0.00203203 0.00096175 0.00029013
C -5.70993587 8.70050053 13.24476275 0.00083954 0.00100535 -0.00943936
C 0.94732798 6.07000020 13.17835035 0.00681627 -0.00018206 -0.01093924
C 3.45942387 1.01295859 17.15771454 0.00769396 0.00066552 -0.00532054
C -1.67204872 3.66944882 16.68258879 0.00782714 0.00186857 -0.00411560
C 6.48624194 8.30797498 13.82019833 0.00045343 0.00262984 0.00133535
C -0.26875799 6.17468296 13.96165526 -0.00132420 -0.00102415 0.00251852
C 31.18017450 1.16689757 16.55887321 0.00037643 -0.00516765 0.00825342
C -0.68657543 2.79268647 17.11010753 -0.00578483 0.00256750 0.00668438
C 5.46556939 7.52510341 13.39743365 -0.00422641 -0.00013909 0.00221618
C -1.33967159 6.98307458 13.55160746 0.00504759 0.00130284 0.00385639
C -7.44586020 1.98059135 17.01530576 -0.00110223 0.00100515 -0.00571049
C -0.92348805 1.96455275 18.20579424 -0.00488896 0.00444416 -0.00329119
C 5.52689613 6.98139633 12.09147441 0.00319591 -0.00055462 0.00085994
C -1.23795545 7.66256978 12.35610870 -0.00410813 -0.00936785 -0.00570739
C -7.50052169 2.64755223 18.25054800 0.00530965 0.00484023 0.00288148
C 0.75377337 2.23858639 12.95647975 0.00712269 -0.00493039 0.00188632
C 3.83037832 7.10950864 17.43930593 -0.00252153 0.00113280 -0.00171271
C -2.61578756 7.64767285 17.76100186 -0.00037309 -0.00610112 0.00862160
C -5.75887645 2.85757048 12.77002222 -0.00022245 -0.00651694 0.00185179
C -0.19014757 3.10277419 12.44751158 0.00582785 -0.00607590 -0.00466248
C -8.55881673 7.73005260 18.28540147 0.00606289 -0.00274210 -0.00256687
C -1.67441980 6.70139423 18.14547415 0.00139425 -0.00477392 -0.00422257
C 6.18596666 1.92078670 12.32211651 -0.00273582 -0.00262207 0.00290033
C -4.20062978 5.18232263 15.80247250 -0.00267823 -0.00012802 0.00127680
C -4.30031579 0.41904736 14.85936657 -0.00376937 0.00168892 0.00054709
C 2.03276987 4.49413466 14.61509182 -0.00061640 0.00611126 -0.00023198
C 2.65031100 9.57956496 15.52181364 -0.00218628 -0.00194411 0.00485442
C -5.33973577 6.05665079 15.56429441 0.00131402 -0.00519886 0.00143994
C -3.24901711 1.41721577 15.00289779 -0.00842776 -0.00084476 0.00664184
C 3.23521759 3.59301456 14.73399941 0.00672799 0.00178527 0.00135207
C 1.52726877 8.61289428 15.32816290 0.00214090 -0.00033014 0.00062653
C -5.71226392 3.65514673 23.34682920 0.00108655 -0.00123689 0.00519052
C -8.76522741 8.68779471 19.26252769 0.00541359 -0.00421935 0.00109397
C -1.91628559 5.88191582 19.22825060 0.00360316 -0.00625129 0.00063758
C 0.95317768 1.18955399 23.56181384 0.00291462 0.00260319 0.00118260
C -4.43008362 3.73249789 22.77283295 0.00002995 0.00346840 0.00156233
C 3.35619738 8.52843814 19.82367590 -0.00189613 0.00119535 0.00207746
C -3.22515578 6.04408876 19.98531769 0.00314525 -0.00230226 -0.00602897
C -10.96670615 1.13472252 22.86910487 -0.00649178 -0.00083555 0.00214484
C -3.46143038 2.83991592 23.21825011 -0.00408544 -0.00153527 -0.00080063
C 2.38959123 7.74689901 19.24519424 0.00126563 -0.00224804 -0.00299148
C -4.11689576 6.95605375 19.55055890 -0.00686666 -0.00282950 0.00349027
C -9.92897784 1.90239688 23.38391305 0.00029891 -0.00184839 0.00548844
C -3.67596266 1.97651818 24.33132485 -0.00155510 -0.00060038 0.00194772
C 2.58585348 7.09239379 18.01706605 0.00337634 -0.00455647 -0.00103617
C -3.84889250 7.83768587 18.47764762 -0.00011883 -0.00175339 -0.00177898
C -10.22187752 2.87115983 24.36315921 0.00024844 -0.00847318 -0.00858214
C -2.08513677 2.03687495 18.91198062 -0.00313456 0.00594157 -0.00761450
C 1.08232091 6.74300332 24.05474262 -0.00417668 -0.00286643 0.00240957
C -5.89456410 7.58036280 23.81922741 -0.01032953 0.00241914 0.00116273
C -8.75784570 2.64115797 18.89485451 0.00239458 -0.00323768 -0.00203732
C -3.06747867 2.90027006 18.45289769 0.00246416 0.00489788 0.00040792
C -11.28581077 7.91196653 24.38391904 -0.00444634 0.00088336 -0.00234848
C -4.94609028 6.69716640 24.31530960 0.00208052 0.00106738 -0.00015191
C 3.21770820 2.07425451 18.11081289 -0.00184694 -0.00501892 -0.00103672
C -6.93863814 5.13020488 21.78857382 -0.00076393 -0.00566049 -0.00415313
C -7.35703774 0.24022041 20.83665407 0.00609916 0.00174288 0.00175719
C -0.74847244 4.60541613 20.98921004 -0.00411876 -0.00409752 0.00602813
C -0.44534896 9.28957335 21.97883410 -0.00397735 0.00551810 0.00025958
C -8.04304444 6.09622983 21.80155322 -0.00464430 -0.00237561 0.00234816
C -6.15087013 1.17137804 20.92604693 0.00123900 -0.00006050 0.00210716
C 0.41212274 3.76503591 21.28150765 0.00525979 -0.00336751 -0.00129399
C -1.70744681 8.54076153 21.76196114 0.00256756 0.00125494 -0.00289349
C 3.42435306 13.33494950 5.22976392 -0.00077972 -0.00429334 -0.00492674
C 0.37408823 18.04485417 1.11951809 -0.00920641 0.00013267 0.00407828
C 6.88563738 15.43247849 0.84364525 -0.00286980 -0.00420278 0.00276831
C 9.79853807 10.77549591 5.07115863 -0.00460472 -0.00774903 0.00685836
C 4.65142780 13.24575626 4.56666277 0.00393228 0.00615870 -0.00307683
C 12.19904326 17.89163953 1.57172833 0.00192266 0.00093746 -0.00447629
C 5.68403276 15.31065112 1.53130182 0.00187717 0.00148451 -0.00193283
C -2.17202601 10.89380828 4.44469794 0.00252598 -0.00243537 0.00566365
C 5.59733230 12.30919214 5.00233781 0.00725089 -0.00141537 0.00203743
C 11.20606637 17.08485245 1.04045896 -0.00617902 -0.00166911 -0.00368474
C 4.61936610 16.15042370 1.24665687 0.00456055 0.00552263 -0.00291452
C -1.18129028 11.71851189 4.86551399 -0.00637812 -0.01110588 -0.00198280
C 5.42222282 11.58072887 6.14209197 -0.00171832 0.00197688 -0.00080018
C -0.58099926 16.29188212 24.39092855 -0.00209171 -0.00319935 0.00390366
C 4.74480034 17.11708178 0.19273109 -0.00159004 -0.00558739 -0.00510170
C -1.40191956 12.64188113 5.88924642 -0.00354157 -0.00213323 0.00619908
C 6.74097565 11.53686942 0.44748998 0.00030826 0.00583955 0.00211972
C 9.65836850 16.44452514 5.50109540 0.00248891 -0.00289654 -0.00111539
C 3.34108763 17.39936002 5.80339740 -0.00358849 0.00898929 0.00217380
C 0.40274464 12.50035972 0.31327644 0.00695585 0.00073078 -0.00299839
C -6.26460863 12.38793489 24.46621122 -0.00248492 0.00437247 0.00218720
C -2.39491991 17.08159817 5.96817707 0.00002442 -0.00895942 0.00275991
C 4.36154282 16.46214212 6.10427923 -0.00338490 0.00169751 0.00665917
C 0.60115705 11.73200739 24.50085551 0.00039438 0.00130679 0.00492198
C 2.01241728 14.58226652 3.61406985 -0.00400356 0.00347644 0.00163728
C 1.67827490 10.16773153 2.62743141 -0.00205674 -0.00079842 -0.00476479
C 8.28533855 14.17540810 2.30585209 -0.00049227 0.00137908 -0.00084086
C 8.38113471 18.78814594 3.56060408 0.00550962 0.00796414 -0.00339862
C 0.82989323 15.52427546 3.54138652 -0.00363018 -0.00347426 0.00187870
C 2.88283806 10.95135996 2.91702245 -0.00090479 -0.00397379 0.00424080
C 9.65967045 13.47842925 2.59086504 -0.00167193 0.01242723 0.00447806
C 7.33441686 17.72131549 3.37879509 -0.00979535 -0.00150041 -0.00014903
C 0.13191773 13.35222493 11.24980077 -0.00038786 -0.00024845 0.00301873
C -2.61857483 17.92526648 7.05054669 0.00115520 -0.00710346 0.00054776
C 4.18229664 15.54044186 7.21491204 -0.00845355 -0.00655126 0.00042893
C 6.91574070 10.76899445 11.47670386 -0.00586987 0.00306929 0.00520536
C 1.30790623 13.24696343 10.51684770 0.00970658 0.00713665 -0.00122200
C 9.24062119 18.03462976 7.73980857 -0.00751627 -0.00517388 0.00166502
C 3.01118685 15.58433778 7.94532001 -0.00078625 0.00497874 0.00314428
C 34.25244413 10.94672125 10.59570839 0.00023260 -0.00528236 0.00504742
C 2.22323874 12.23587497 10.79844083 -0.00594554 -0.00074999 -0.00189987
C 8.24648151 17.13822524 7.29544630 0.00745217 -0.00010576 -0.00333650
C 2.00916890 16.46141745 7.64292587 -0.00459771 -0.00676292 0.00465666
C -4.34112200 11.75308746 11.01819665 -0.00394634 0.00224007 0.00144759
C 1.96177718 11.30200130 11.83354643 0.00906808 -0.00213433 0.00101712
C 8.41789810 16.36728660 6.13639449 -0.00661475 -0.00586533 -0.00718408
C 2.15769995 17.39542397 6.49687135 0.00309591 -0.00401091 -0.00223527
C -4.41846543 12.60768801 12.12620023 0.00375310 0.00204053 -0.00162935
C 4.12977131 11.64918116 6.79505418 -0.00167068 -0.00440165 -0.00494451
C 6.91862319 16.65584878 11.73694214 -0.00032463 -0.00308779 0.00104170
C 0.24320561 17.17390323 11.64768583 0.00127554 -0.00666845 -0.00848013
C -2.68696418 12.70183625 6.45879408 0.00204838 0.00240411 -0.00265430
C 3.21100256 12.51384373 6.32134989 0.00496438 -0.00404938 0.00226579
C -5.39848832 17.53679738 12.09036363 0.00033967 -0.00109497 -0.00218710
C 1.28744209 16.39849807 12.16710834 0.00286780 0.00514302 0.00135090
C 9.55633600 11.58477504 6.18198228 0.00271059 -0.00733617 0.00412653
C -1.07760040 14.62337442 9.62887526 -0.00216367 0.00231214 -0.00678649
C -1.15965996 10.00365287 8.51817028 -0.00020039 -0.00390510 0.00654991
C 5.36189164 14.06022890 8.76445904 -0.00003462 -0.00233414 0.00385687
C 5.65745319 18.93081010 9.79646544 0.00200789 -0.00182082 0.00485143
C -2.22335360 15.60672762 9.35008334 0.00289711 0.00025150 0.00504528
C 0.13004091 10.68193677 8.80840767 0.00038612 0.00795704 0.00053610
C 6.60372183 13.36989676 8.94505427 -0.00131152 0.00191242 0.00108367
C 4.39374285 18.20267607 9.60382624 0.00190787 -0.00565060 -0.00027090
C -2.82927961 13.33647363 17.47291055 -0.00008812 -0.00535077 -0.00396384
C -5.49735827 18.27181951 13.29983011 -0.00726395 -0.00620686 -0.00112753
C 1.04816131 15.54858497 13.25515320 0.00758288 -0.00449073 -0.00577770
C 3.88165910 10.84436799 17.25538076 0.00014571 0.00010640 -0.00065054
C -1.54075117 13.34320941 16.82836338 -0.00552750 0.00354598 -0.00279842
C 6.42274326 17.99835882 14.11150434 -0.00179330 0.00027776 -0.00230040
C -0.19090565 15.58596014 13.87351067 -0.00940927 -0.00285223 0.00540210
C 31.21051248 10.86627199 16.49191254 0.00395787 -0.00544490 -0.00087100
C -0.52676154 12.49207909 17.20336766 0.00145711 -0.00301607 -0.00299924
C 5.54508897 17.17811774 13.59962494 -0.00208963 0.00539050 0.00233246
C -1.18277467 16.49349809 13.44017770 -0.00693080 -0.00412737 0.00509356
C -7.42256796 11.70560190 16.90661567 -0.00126780 0.00603130 0.00165598
C -0.71346144 11.59090793 18.23512270 -0.00642193 0.00093597 0.00581268
C 5.71099778 16.40058206 12.43357600 -0.00440948 0.00006678 -0.00450951
C -1.07343056 17.19190121 12.23334977 0.00407750 0.00371763 -0.00214733
C -7.62028828 12.49782824 18.05916901 0.00580093 0.00621852 0.00000147
C 0.80509682 11.60050863 12.64919307 0.00188021 0.00393732 0.00141299
C 3.87084919 16.48267127 17.76286973 0.00311230 -0.00550052 0.00728192
C -2.88535042 17.08470544 17.84291524 0.00655266 -0.00600213 -0.00000343
C -5.70107307 12.62910421 12.76694341 -0.00432590 0.00165910 -0.00277309
C -0.04498757 12.66770184 12.42963396 0.00982653 -0.00045134 0.00531917
C -8.42191920 17.24142998 18.34122111 -0.00508845 -0.00126285 -0.00421347
C -1.87951635 16.26854984 18.22669462 0.00922943 -0.00143898 -0.00765843
C 6.69548766 11.59854631 12.60012630 -0.00526022 -0.00272517 0.00608345
C -3.89125636 14.73129758 15.70007238 0.00370035 -0.00213218 -0.00347366
C -4.29903355 10.04999876 14.72191858 0.00028706 -0.00404054 0.00462946
C 2.21733272 14.16820365 14.82154369 0.00525980 -0.00192053 -0.00321264
C 2.45509914 19.04791477 15.95456423 -0.00114819 0.00209431 -0.00681270
C -4.89265361 15.81105330 15.57683992 0.00411433 -0.00678970 0.00096378
C -3.17368519 10.98634655 14.94094254 0.00063015 -0.00084026 -0.00046301
C 3.47246482 13.40198542 15.05092876 0.00913629 0.00326975 -0.00111757
C 1.26300901 18.12102631 15.97621224 0.00133053 0.00074970 -0.00481767
C -6.00550005 13.25584633 23.37930717 -0.00363067 -0.00010281 -0.00298468
C -8.62826234 17.96948320 19.50410824 -0.01011924 0.00139032 0.00066217
C -1.97273855 15.39176050 19.34009255 0.00475600 -0.00696868 -0.00078815
C 0.73027584 10.71278616 23.54088105 0.00106054 -0.00475498 -0.00139329
C -4.76437331 13.14270678 22.75472275 0.00512970 0.00003691 -0.00752186
C 3.31698063 17.97052507 20.16120861 -0.00620556 -0.00099441 0.00720236
C -3.17214404 15.41433140 20.07612223 0.00960503 -0.00395446 -0.00709558
C 28.45033306 10.77302857 22.71440391 -0.00278131 -0.00348656 0.00233803
C -3.76615038 12.22727188 23.19520820 0.00564052 -0.00622457 -0.00114878
C 2.38608732 17.09863279 19.56322561 -0.00130128 -0.00001258 -0.00508901
C -4.13518325 16.31504899 19.74808009 -0.00026752 0.00428395 -0.00290241
C -10.20496927 11.61522654 23.17861144 -0.00829931 -0.00176764 0.00004124
C -3.98949525 11.48936768 24.42615881 -0.00050600 0.00160530 -0.00069289
C 2.63205153 16.35835236 18.46220227 0.00568597 0.00790990 -0.00158355
C -4.09787134 17.10444001 18.60621515 0.00392187 0.00523644 -0.00758412
C -10.37965399 12.46280783 24.32483134 0.00638618 -0.00206416 0.00304926
C -2.02758107 11.53732795 18.81986391 0.00084006 0.00181887 -0.00141462
C 0.68280609 16.32122329 23.77757734 -0.00529161 0.00699240 -0.00720618
C -6.16326582 17.12855452 23.98536515 -0.00503478 -0.00748968 -0.00124079
C -8.84124133 12.47522114 18.72806194 0.00536319 0.00451652 -0.00214671
C -3.02338920 12.38044963 18.49376735 -0.00050299 0.00740236 0.00325302
C 0.55793742 17.14293376 0.01014433 -0.00126747 -0.00212858 0.00416255
C -5.07319779 16.35054267 24.33447913 0.00251526 0.00118288 -0.00391335
C 3.76750634 11.57662089 18.46600944 0.00202178 0.00699263 0.00745163
C -7.07795654 14.62732017 21.75875495 -0.00002984 0.01057970 0.00049595
C -7.32327781 9.93891415 20.75097003 -0.00378729 -0.00432653 0.00183492
C -0.67477376 14.00727833 20.85725254 0.00301292 -0.00106587 0.00355095
C -0.30141205 18.81282433 21.81375481 0.00595589 -0.00017862 0.00288537
C -8.18141359 15.59746552 21.46535935 0.00027744 -0.00372900 0.00612822
C -6.13335939 10.86484232 20.99192036 -0.00662985 -0.00081785 -0.00210161
C 0.52110067 13.12307004 21.05799962 -0.00650609 -0.00278582 -0.00769146
C -1.35222325 17.75009482 21.56764310 0.00355994 -0.00530093 -0.00117461
C 3.29286485 22.83671743 5.11051246 0.00302565 0.00403717 0.00173390
C 0.44092181 27.71295248 1.10244600 0.00315979 -0.01246649 0.00246834
C 6.97114752 24.84578009 1.08257706 -0.00716011 -0.00299470 -0.00487124
C 9.65580639 20.07646419 5.23675786 0.01119919 0.00235183 -0.00230745
C 4.48561517 22.63632637 4.38094622 -0.00361905 0.00155879 -0.00593208
C 12.39831936 27.48921358 1.80841652 0.00474824 -0.00043181 0.00144501
C 5.75251900 24.97473927 1.80040463 -0.00660733 0.00154574 -0.00296921
C -2.07554172 20.39183390 4.56361450 0.00351198 0.00843323 -0.00525738
C 5.40987935 21.67821210 4.71834550 0.00142346 0.00030209 0.00105962
C 11.42160657 26.61357949 1.32012329 0.00593631 -0.00119621 -0.00232642
C 4.85985386 25.96990333 1.40848284 -0.00290901 -0.00453861 0.00866431
C -1.26751467 21.37900080 5.04173204 -0.00470024 0.00257644 0.00331221
C 5.32329740 21.07516906 5.97209519 0.00742570 -0.00330011 0.00413017
C 11.66680402 25.84534916 0.11915894 -0.00725186 0.00446969 -0.00319204
C 4.97559891 26.68280310 0.22623251 0.00298024 0.00518755 -0.00561591
C -1.65217408 22.32186673 5.93765332 -0.00418495 0.00325489 0.00387874
C 7.04280440 20.97500774 0.45267641 -0.00025424 0.00162403 -0.00563376
C 10.03712529 25.75971198 5.71793234 -0.00082309 0.00104307 0.00408396
C 3.31606567 26.67414856 5.65674770 -0.00140141 0.00323358 0.00016062
C 0.38780252 22.09824955 0.48776421 -0.00414929 -0.00116096 -0.00181070
C 6.03281200 21.86225467 0.18009744 -0.01390445 0.00210014 0.00123315
C -2.40012266 27.04955108 5.85592901 -0.00277760 0.00156935 -0.00069137
C 4.21978552 25.71874016 6.14621082 -0.01094555 0.00759750 0.00032599
C 12.76944649 20.82138465 0.16886446 0.00167869 0.00012552 -0.00124455
C 1.99889825 24.23723393 3.61165284 -0.00329736 -0.00172111 0.00231970
C 1.45836739 19.49123989 2.70905921 0.00428369 -0.00074332 -0.00426378
C 8.22174550 23.50510517 2.77323227 0.00100213 -0.00515278 0.00009468
C 8.54001776 28.40481826 3.53304567 0.00702785 -0.00416395 -0.00547442
C 0.83949973 25.19578757 3.46537320 -0.00764038 0.00280186 0.00080842
C 2.37647120 20.72804570 3.00568036 0.00231944 0.00157904 0.00262159
C 9.45181186 22.55833389 2.85078543 0.00343243 0.00896353 0.00597952
C 7.22094572 27.61880345 3.43690082 0.00289881 -0.00452980 -0.00435935
C 0.13470130 22.67054956 11.23558050 0.00004436 -0.01280791 -0.00832683
C -2.51019840 27.82309072 7.01913910 0.00140431 -0.00736920 0.00521506
C 3.87462601 24.98816914 7.26446552 0.00490232 -0.00972124 -0.00630552
C 6.69867350 20.37372783 11.39188279 0.00013570 -0.00712673 0.00127299
C 1.38554700 22.58136876 10.54003747 -0.00557046 -0.00365640 -0.00336723
C 9.53896823 27.50258249 7.80011019 0.00150857 0.00283257 0.00239199
C 2.65402344 25.07202826 7.82438282 0.00113279 0.00728596 0.00175557
C -5.08078405 20.45296155 10.65092715 0.00040430 0.00218706 0.00374460
C 2.33928213 21.71364474 10.94242773 0.00039451 0.00088728 -0.00253678
C 8.51153450 26.70405675 7.33682406 -0.00304748 -0.00339476 0.00134103
C 1.75299209 25.99562886 7.33820219 0.00777388 0.00297474 -0.00286827
C -4.05844816 21.36801839 10.93986209 -0.00235547 -0.00411804 -0.00161924
C 2.15229214 20.93877876 12.04248594 -0.00017892 -0.00003219 -0.00920983
C 8.74565669 25.72655159 6.34666026 0.00321507 0.00589786 -0.00179454
C 2.06741382 26.89235570 6.28653583 -0.00082410 -0.00069626 -0.00330999
C -4.18509111 22.18851366 12.06891838 -0.00341839 0.00390551 0.00565869
C 4.11775403 21.17728812 6.67337277 -0.00256305 0.00914785 0.00135756
C 6.45079607 26.04261790 11.55432260 0.00768216 0.00423320 -0.00054036
C 0.09715331 26.81633650 11.76131281 -0.00073937 0.00991397 0.00442301
C -2.94039596 22.16853580 6.55599830 0.00279722 -0.00600490 0.00361785
C 3.09149203 21.99146706 6.20693215 -0.00534028 0.00374780 0.00188490
C -5.46784042 27.12898763 12.01288477 0.00181711 0.00603514 -0.00374288
C 1.03709012 25.99638384 12.19566696 0.00106239 0.00066858 -0.00133011
C 9.54436023 20.97880891 6.32519812 0.00646261 -0.00033936 0.00521185
C -0.93123355 24.32604269 9.74981849 -0.00500932 0.00241123 -0.00750398
C -1.49166631 19.27780278 8.63957837 -0.00333416 0.00441194 0.00463735
C 4.99437622 23.53182076 8.95103245 -0.00543226 0.00107902 -0.00226684
C 5.38609889 28.31974796 9.66073928 0.00230336 -0.00064062 0.00039360
C -2.07290841 25.28323602 9.70200796 0.00027337 -0.00353087 0.00045717
C -0.25086551 20.06741536 8.93251192 -0.00035198 -0.00970946 -0.00978810
C 6.14726134 22.67301846 9.23235381 -0.00553379 -0.00255688 -0.00078954
C 4.15808163 27.59759041 9.45541630 -0.00091217 -0.00162889 -0.00215280
C -2.85669460 22.76699777 17.36015316 0.00538399 0.00165790 -0.00258311
C -5.59825517 27.79659417 13.21153506 -0.00740102 -0.00206918 0.00479192
C 0.82013054 25.14047609 13.28212781 -0.00053973 -0.00079554 0.00233101
C 3.85241287 20.48274907 17.49063552 0.00050005 0.00332569 0.00103555
C -1.66053899 22.82991593 16.65451105 -0.00219771 0.00058019 -0.00492340
C 6.18042669 27.66836492 13.85317143 -0.00473306 -0.00170224 0.00137437
C -0.41329976 25.12993908 13.89168075 -0.00039835 -0.00146049 0.00266958
C -8.13948315 20.30226914 16.69929217 -0.00218149 0.00176385 0.00213191
C -0.57092241 21.97302451 16.92405539 -0.00115434 0.00160025 0.00201681
C 5.20526938 26.70230633 13.56410597 -0.00366239 0.00281494 -0.00662969
C -1.42987190 25.90773480 13.37983053 0.00340171 -0.00180700 -0.00884038
C -7.13611491 21.17755359 17.13048846 0.00341684 0.00282860 0.00065076
C -0.65778702 21.14041705 18.09020995 -0.00035148 -0.00213335 0.00159117
C 5.35209754 25.88192268 12.42504439 -0.00048377 0.00521512 0.00894783
C -1.17529955 26.83205715 12.35767070 -0.00039391 -0.01120109 0.00130240
C -7.15146773 21.80430396 18.43499045 0.00691538 0.00033724 -0.00236751
C 0.94468560 21.09297744 12.77668379 -0.00109108 0.00478705 0.00434553
C 3.58509935 26.03149658 17.87060004 -0.00697751 -0.00620651 -0.00103995
C -2.87104546 26.70520691 17.79100796 -0.00220657 -0.00656693 0.00424008
C -5.43547412 22.27569058 12.72777940 -0.00075128 0.00156143 -0.00130793
C -0.05192475 21.85415180 12.30735911 0.00100117 0.00295867 0.00269137
C -8.47799259 26.84544657 18.27141588 0.00419582 0.00887394 -0.00505772
C -1.93201362 25.78199549 18.16838808 0.00097086 -0.00573633 -0.00101248
C 6.42276099 21.27075622 12.41927876 -0.00247124 -0.00539134 0.00419428
C -4.14536792 24.07081417 15.81781893 -0.00869960 0.00505594 0.00147539
C -4.28535707 19.53387458 14.94833929 0.00374153 0.00821457 0.00149674
C 2.09383926 23.71029995 14.88125897 0.00159503 0.00154998 0.00161395
C 2.39994803 28.24983713 15.67549558 0.00097774 -0.00355651 -0.00351331
C -5.16573981 25.13762175 15.75716760 0.00033182 -0.00391857 -0.00313882
C -3.15519513 20.41509712 15.20307003 -0.00388592 -0.00228881 -0.00290769
C 3.24430902 22.86153729 15.15955600 -0.00151102 -0.00513483 -0.00169477
C 1.16402117 27.34284636 15.51734094 -0.00806433 0.00440040 0.00392410
C -5.90649334 22.79280295 23.57656994 0.00508725 -0.00223853 0.00439943
C -8.69687206 27.72681612 19.29336464 0.00382399 0.00888364 -0.00234193
C -2.06168482 24.97099738 19.30957995 0.00006862 0.00284612 0.00307707
C 0.90126831 20.14485307 23.49569010 0.00025500 -0.00368451 -0.00616658
C -4.68080150 22.83955367 22.92639499 0.01024329 0.00363470 -0.00038379
C 3.13519628 27.60461495 20.07260719 0.00290235 -0.00354529 0.00425783
C -3.28917591 25.05497432 20.00619042 -0.00346883 0.00302117 0.00131659
C 28.28518573 20.46332273 22.71728012 -0.00568151 -0.00599173 0.00109228
C -3.66942263 21.99334893 23.30511010 -0.00684612 -0.00235600 -0.00054297
C 2.20999898 26.67080357 19.74264011 0.00233928 -0.00417321 -0.00573943
C -4.28859485 25.85240583 19.57519014 0.00496895 -0.00252476 0.00458760
C -10.28020994 21.30498516 23.22373702 -0.00411142 0.00078268 -0.00481542
C -3.81385717 21.02840913 24.29418788 -0.00077917 0.00204673 0.00191252
C 2.35268648 25.91569446 18.54349100 -0.00267609 0.00338790 -0.00180236
C -4.14967556 26.69423426 18.49106824 -0.00646432 -0.00012025 -0.00437399
C -10.46050795 22.13171836 24.34686968 -0.00465745 0.00546800 0.00679608
C -1.85090195 21.18289941 18.88337067 0.00483352 0.00304962 0.00245811
C 0.94144354 25.95628582 24.09639446 0.00182048 -0.00201847 -0.00635977
C -5.84724498 26.55175153 24.04686746 -0.00004238 0.00252814 0.00333432
C -8.32871745 21.61295525 19.19228090 -0.00015604 -0.00541575 0.00200217
C -2.93540484 21.97100419 18.56632121 0.00581836 -0.00651658 0.00343175
C 0.67378697 26.81609079 0.03663564 -0.00002459 -0.00228843 0.00443459
C -4.87337541 25.65366298 24.47182793 0.00124276 -0.00295095 0.00002965
C 3.65020432 21.28209776 18.58526906 -0.00239294 -0.00275546 -0.00230343
C -7.09723796 24.15151811 21.93783971 0.00465479 -0.00488600 -0.00351552
C -7.39343721 19.25353258 21.20993261 0.00526416 -0.00260537 0.00369610
C -0.83969729 23.73131412 20.92219757 0.00633311 -0.00161551 -0.00318761
C -0.14784255 28.55640588 21.92063086 -0.00170949 0.00461248 0.00715184
C -8.39959707 24.82951061 21.74598119 -0.00308321 0.00162012 0.00627273
C -6.18844202 20.16885541 21.37423096 -0.00189741 -0.00269846 -0.00820763
C 0.38629356 22.87307750 21.02106081 -0.00115024 0.00105699 -0.00082194
C -1.45092167 27.65002818 21.82613772 -0.00375651 0.00062450 -0.00259653
C 16.33325421 3.75445169 5.08729398 -0.00503903 -0.00439157 -0.00395671
C 13.77106092 8.57469935 1.00975471 -0.00289719 0.00062755 -0.00046951
C 20.27556284 5.92325726 1.05078886 0.00979992 -0.00334870 -0.00457797
C 22.99917753 1.18219286 5.11443502 -0.00766175 0.00014857 0.00164833
C 17.49935795 3.71360385 4.39173924 -0.00132978 0.00105240 0.00523653
C 25.90133983 8.38490516 1.82239689 0.00308973 -0.01021800 0.00259554
C 19.07838287 6.03726318 1.77248907 0.00097562 -0.00303879 0.00195522
C 10.93390960 1.29280234 4.37451877 0.00546885 -0.00447853 -0.00414683
C 18.55054567 2.85215119 4.66796472 -0.00006402 -0.00233367 -0.00371247
C 24.90631034 7.58006215 1.35850719 0.00438755 0.00068468 0.00397739
C 18.07739070 6.85262440 1.33691732 -0.00157460 0.00117710 -0.00298086
C 11.85931504 2.20033482 4.81312471 -0.00214069 0.00380960 -0.00358819
C 18.42199682 1.98336179 5.76161701 -0.00046444 0.00263459 0.00402904
C 25.02024308 6.78948371 0.24474853 -0.00486379 -0.00464079 -0.00013280
C 18.28944065 7.63209083 0.19385085 0.00381202 -0.00634497 0.00829741
C 11.63914667 2.87477557 5.98844907 0.00412962 0.00242377 -0.00052609
C 20.48918007 2.27533920 0.48449501 -0.00201677 0.00116531 0.00308331
C 23.09900112 6.85336165 5.62756554 0.00438394 0.00385657 -0.00025850
C 16.30540709 7.64829659 5.50540478 0.00537128 0.00073194 -0.00276716
C 13.85166165 2.79389993 0.61626879 0.00356776 -0.00195835 -0.00523197
C 19.42154241 3.02500848 0.01572977 -0.00405502 -0.00370399 -0.00179716
C 10.74620707 7.71842654 5.91594723 -0.00202523 0.00049497 -0.00619876
C 17.29331093 6.79250553 5.92761947 -0.00514251 -0.00478035 0.00014763
C 25.95655949 1.90475421 0.24431376 0.00760249 -0.00157398 0.00297543
C 15.07339708 5.19944645 3.62436504 -0.00375718 0.00640371 -0.00017951
C 14.76889558 0.35149490 2.73815882 -0.00435243 0.00167257 0.00321177
C 21.53265603 4.70028089 2.60270984 0.00472330 0.00465375 -0.00169029
C 21.73576985 9.14366622 3.69887985 -0.00354592 -0.00047608 -0.00071726
C 13.84228567 6.01176287 3.56721335 0.00338360 0.00268611 0.00370783
C 15.95696035 1.17752212 3.08048257 -0.00058961 -0.00516689 -0.00105898