2880
Time=63000.00000006 pbc="T T T" Lattice="39.50638886 0.00000000 0.00000000 0.00000000 28.89438166 0.00000000 -12.04546499 0.00000000 24.47262439" energy=-18401.77881670 virial="-17.19916921 -9.24097270 -36.49134721 -9.24097270 -15.35718317 23.03290885 -36.49134721 23.03290885 -19.82124847" stress="0.00192417 -0.00026656 -0.00128415 -0.00026656 0.00193806 0.00085229 -0.00128415 0.00085229 0.00187462" Properties=species:S:1:pos:R:3:vel:R:3
C 3.27681803 3.73665637 5.16559418 -0.00062376 0.00823932 -0.00396360
C 0.61549072 8.32644893 0.94056511 0.00268583 0.00681911 -0.00208458
C 7.05280973 5.95337352 0.73790504 0.00130748 -0.00885765 -0.00672357
C 9.76005989 1.04269601 5.26201101 0.00401845 0.00343960 0.00007316
C 4.47117710 3.54595266 4.48031468 0.00055011 0.00293944 -0.00070579
C 12.42098164 8.30199459 1.80770911 0.00814927 -0.00122916 0.00792010
C 5.78477018 6.07773653 1.20283462 0.00801947 0.00636829 0.00421910
C -2.11304797 1.48240739 4.55536489 -0.00014333 0.00618996 -0.00364396
C 5.36048415 2.51498856 4.83417936 -0.00568000 0.00069205 0.00251673
C 11.44556835 7.36586708 1.43860982 0.00224918 0.00239300 -0.00492434
C 4.82555383 6.98226864 0.82218703 -0.00601823 -0.00051007 -0.00222246
C -1.21192416 2.48857302 4.73172459 0.01001799 -0.00013606 -0.00958788
C 5.21143605 1.80364048 5.99418660 0.00100853 -0.00428018 -0.00118652
C 11.66404506 6.55595984 0.24773716 0.00447487 -0.00592633 0.00353530
C -6.96464254 7.88716596 24.21693368 -0.00109320 0.00608815 -0.00368880
C -1.38836478 3.29643204 5.84359683 -0.00857713 -0.01030807 -0.01022842
C 6.94431618 2.00694199 0.54480960 0.00109250 -0.00009958 -0.00325517
C 9.76967517 6.75086047 5.44827452 0.00363444 0.00321446 -0.00252904
C 3.29030404 7.79962537 5.29430093 0.00035077 -0.00499956 -0.00130547
C 0.22461998 3.03001415 0.55293514 -0.01025815 0.00333681 -0.00344781
C 6.02922214 2.88114788 0.10038023 0.00032335 -0.00194669 0.00646404
C -2.27008634 7.88941468 5.82974394 0.00401265 0.00655770 0.00295632
C 4.27951238 7.01477623 5.83416200 -0.00557539 -0.00483039 -0.00535981
C 12.78960276 1.89348032 0.32004485 0.00665495 0.00583963 0.00714991
C 2.10549677 5.27926473 3.56675455 -0.00626318 -0.00316654 0.00370638
C 1.63277464 0.54956437 2.68665918 -0.00050966 0.00552445 0.00193368
C 8.08306123 4.52434969 2.41089212 0.00187692 0.00107667 0.00067125
C 8.68789970 9.27968248 3.42202536 0.00301324 0.00578365 -0.00262653
C 0.86882086 6.13869351 3.44972343 0.00594380 -0.00165145 0.00454878
C 2.67705424 1.60669928 2.95769213 -0.00284925 0.00301995 0.00224850
C 9.09388478 3.50380027 2.75281376 -0.00062598 -0.00044093 -0.00515680
C 7.36903204 8.69977602 3.21854572 -0.00270937 -0.00886553 0.00793933
C 0.19076843 3.92370337 11.21463693 0.00359290 0.00387916 0.00336681
C -2.48442312 8.73861805 6.94957530 -0.00200582 0.00080683 -0.00217151
C 3.99371811 6.20435701 6.94077555 0.00042920 0.00015237 -0.00113894
C 6.51548259 1.09001753 11.30471324 -0.00150497 0.00049616 -0.00173745
C 1.45371396 3.81263493 10.56739527 0.00302285 -0.00855516 -0.00277659
C 9.42365286 8.23421056 7.68941737 0.00201845 -0.00138119 0.00679632
C 2.75485009 6.18348171 7.59948286 -0.00202190 -0.00504837 -0.00574568
C -5.18692445 1.43650987 10.57613070 -0.00437304 -0.00004459 0.00422491
C 2.35245962 2.82260314 10.95334915 0.00144199 -0.00590463 -0.00998254
C 8.40027612 7.45004450 7.26888225 -0.00752202 -0.00257658 -0.00381763
C 1.81648207 7.08431198 7.11631377 0.00264302 0.00033572 0.00060801
C -4.17235277 2.28953091 11.00745768 -0.00385230 0.00241160 0.00066005
C 2.14223766 2.01400108 12.06802201 -0.00573115 0.00726110 0.00825119
C 8.50413420 6.71519808 6.08431811 -0.00160233 -0.00142300 -0.01001081
C 2.04553360 7.85544658 5.93652351 -0.00085446 0.00087008 -0.00281621
C -4.30922174 2.99572846 12.19872473 -0.00306973 0.00068595 -0.00028146
C 4.00593617 2.06250111 6.74567302 -0.00891856 0.00331980 0.00012879
C 6.72915002 6.92171461 11.65882158 -0.00226178 0.00397489 0.00383250
C 0.24675733 7.66422264 11.61462569 -0.00334381 -0.00013211 -0.00109123
C -2.60215688 3.27922381 6.58500684 -0.00541878 -0.00849419 0.00040271
C 3.07986061 2.95903795 6.37343160 -0.00092303 0.00018624 -0.00122033
C -5.49480288 7.66327692 12.03292741 -0.00322740 0.00851153 -0.00561834
C 1.23577704 6.85971079 12.13060581 -0.00353807 -0.00053565 0.00085426
C 9.54159048 1.74887568 6.43109294 0.00474175 -0.01011266 0.00315448
C -0.85500566 5.36629518 9.51408954 -0.00104563 0.00424424 -0.00380550
C -1.28206154 0.54054081 8.74818151 -0.00078151 -0.00018924 -0.00469653
C 5.15836714 4.72471757 8.63874261 0.00009940 0.00537900 -0.00187592
C 5.59273332 9.37730826 9.73664260 0.00260188 -0.00528097 -0.00163708
C -1.91888128 6.38542793 9.37147887 -0.00210912 0.00629352 0.00359594
C -0.14057434 1.46855175 8.95365228 -0.00166939 -0.00200303 0.00034474
C 6.26263931 3.81537425 8.81585149 0.00385468 0.00291232 0.00248601
C 4.52089227 8.42244064 9.50421903 -0.01153681 -0.00240778 -0.00145115
C -2.93003131 3.55805619 17.52216829 -0.00301270 -0.00308692 0.00196517
C -5.61023781 8.38961943 13.23404454 -0.00020453 0.00693280 0.00083025
C 1.08845097 6.06342099 13.24023470 -0.00394882 0.00124721 0.00242763
C 3.77561029 1.23640726 17.18087063 0.00360487 -0.00156253 -0.00600225
C -1.77026082 3.50743282 16.72637224 0.00006675 -0.00740384 -0.00100971
C 6.26492011 8.46364020 13.89422091 -0.00746187 -0.00558163 0.00222254
C -0.13739770 6.09867346 13.85496789 -0.00115371 -0.00402769 -0.00037302
C 31.13264928 1.18703143 16.63690621 -0.00164435 0.00647896 -0.00468317
C -0.80699243 2.68381888 17.12926624 0.00310648 -0.00222318 -0.00197482
C 5.31965389 7.58550526 13.45438256 0.00221949 -0.00001249 -0.00077792
C -1.14348213 6.98974247 13.35176408 -0.00477882 -0.00107311 0.00444749
C -7.39077812 2.08745119 16.89689660 -0.00313537 -0.00661325 0.00208508
C -0.81053922 1.97858985 18.36257487 -0.00313033 0.00253434 0.00758874
C 5.47350534 6.88933694 12.26094277 -0.00369014 0.00412865 -0.00701809
C -1.02381867 7.76633740 12.24141085 0.00072286 0.00898613 -0.00347218
C -7.56214254 2.97480583 17.99148135 -0.00135460 0.00359160 0.00524261
C 0.96709345 2.26817339 12.80796357 -0.00688780 0.00319381 -0.00450845
C 3.70884535 6.78627558 17.89814192 -0.00573924 -0.00326218 -0.00106278
C -2.75254218 7.25542988 17.60788915 -0.00285225 -0.00279381 0.00234831
C -5.52755079 2.87436030 12.88323195 0.00084944 0.00465776 0.00118011
C -0.04417599 3.12482395 12.31873109 -0.00182227 0.00554919 0.00649077
C -8.32709034 7.65070652 18.12928864 0.00023581 -0.00493886 0.00469198
C -1.72912289 6.54918362 18.19264023 0.00460372 0.00174554 -0.00073643
C 6.34264756 2.02821141 12.34903146 0.00058400 0.00519184 -0.00145061
C -4.12997037 4.96547476 15.99090268 -0.00544336 -0.00343031 -0.00141699
C -4.38346780 0.11978120 14.95825319 -0.00337058 -0.00148474 0.00114816
C 2.18547019 4.68214210 14.88270745 0.00671428 0.00135940 -0.00230512
C 2.39063877 9.12634554 15.89991433 0.00227752 -0.00436556 0.00289315
C -5.27164315 5.88876939 15.72172365 0.00610488 0.00283312 -0.00696087
C -3.19965075 1.11496450 14.96732687 -0.00295676 -0.00136790 -0.00308406
C 3.37650127 3.81463852 15.09230287 -0.00298464 0.00318858 0.00347361
C 1.10872689 8.38982959 15.68721334 -0.00077228 -0.00165429 -0.00185533
C -5.80995079 3.69704255 23.42193504 0.00272912 0.00529983 -0.00569179
C -8.53652715 8.50160340 19.25125137 -0.00174737 -0.00063900 -0.00493934
C -1.89645865 5.77098168 19.37821623 0.00402155 0.00299189 -0.00053123
C 0.86674777 1.14410851 23.62935037 0.00011088 -0.00126766 -0.01066011
C -4.57519648 3.61703877 22.73801746 0.00101199 -0.00260067 0.00240828
C 3.08776277 8.45301308 19.98289922 -0.00119467 -0.00542640 -0.00219100
C -3.12299200 5.89916747 20.05325749 -0.00796651 0.00932027 0.00374077
C -11.18230656 1.48695628 22.82175889 -0.00521795 -0.00575611 0.00650883
C -3.59987203 2.75963165 23.24903412 -0.00337034 0.00144734 -0.00759687
C 2.09098581 7.48899238 19.62426293 0.00152299 0.00024049 0.00169426
C -4.08220542 6.72643196 19.57113819 -0.00201076 0.00727097 0.00308967
C -10.37376628 2.50095785 23.26033426 0.00411411 -0.00045476 0.00111448
C -3.84291515 2.02105363 24.38750895 0.00790878 0.00029058 -0.00802111
C 2.46847527 6.60802892 18.54760855 -0.00681952 -0.00081400 0.00579788
C -3.95806208 7.40986406 18.34660663 -0.00153980 -0.00003130 0.00248189
C -10.65622976 3.37638978 24.28895654 -0.00002538 0.00579436 -0.00502708
C -1.98042707 1.92711439 19.09522169 -0.00114653 -0.00147648 -0.00224787
C 0.86198312 6.65498912 24.08893597 0.00285177 -0.01153932 -0.00124680
C -5.71025826 7.66699789 23.59747594 0.00480319 -0.00612665 -0.00021569
C -8.72773262 2.96832759 18.67875850 0.00005098 0.00174288 -0.01281244
C -3.00564756 2.72050523 18.60779791 0.00544651 0.00500487 -0.00067867
C -11.09959052 7.43279268 24.36915005 -0.00845624 0.00896154 -0.00809038
C -4.73656463 6.73970747 23.99502420 -0.00178142 -0.00351382 0.00038294
C 3.56641697 2.18181555 18.20314085 0.00243625 -0.00597998 0.00180706
C -6.94886374 5.00319933 21.70941056 -0.00108504 -0.00017845 -0.00025191
C -7.21596638 0.22159581 20.87574163 -0.00122009 0.00442107 -0.00858028
C -0.73329762 4.49110091 21.02097594 0.00041576 -0.00462546 0.00177261
C -0.56791083 9.40331389 21.98342706 0.00371737 0.00509706 0.00050136
C -8.06169020 6.03467749 21.37168834 0.00167422 0.00499071 -0.00509407
C -5.85071008 0.86870143 21.11380111 -0.00658492 0.00011811 0.00031350
C 0.50049029 3.72642081 21.18480239 -0.00381603 0.00631114 0.00176626
C -1.90975007 8.70362032 21.83096420 0.00279271 -0.00510409 -0.00121425
C 3.16471574 13.46506745 5.03276308 -0.00216341 -0.00149447 -0.00071360
C 0.46227268 18.20089857 1.00767622 0.00505460 0.00090696 -0.00550112
C 7.13745777 15.68069653 0.89311238 0.00022097 -0.00127094 0.00007412
C 9.82332996 10.56736067 5.07435393 -0.00083118 -0.00689257 0.00301235
C 4.43063872 13.43135844 4.55185475 0.00215424 -0.00171992 0.00125449
C 12.38546412 18.15433858 1.60521877 -0.00150835 0.00132005 -0.00203446
C 5.93458579 15.71258398 1.55015590 0.00791025 0.00746835 -0.00036338
C 37.12701191 10.89225760 4.35538223 0.00759025 -0.00348789 -0.00377201
C 5.37558765 12.51014640 4.83222288 -0.00148155 0.00284157 -0.00167779
C 11.39123664 17.26685691 1.19923391 -0.00827920 0.00589747 0.00442182
C 4.93615937 16.48691531 1.03456410 0.00411664 -0.00009061 -0.00446632
C -1.43380426 11.83324505 4.69276954 -0.00584855 0.00255584 0.00348284
C 5.20982419 11.74703611 6.01804655 0.00281302 -0.00589756 -0.00409040
C 11.65418877 16.36605427 0.11623868 0.00075408 -0.00188084 0.00040050
C -6.96189131 17.30917035 24.39637975 -0.00456662 0.00000708 0.00038994
C -1.61311869 12.58448748 5.88136027 -0.00215047 0.00317200 -0.00147954
C 6.77543132 11.90674347 0.58562084 0.00096244 -0.00272959 -0.00781403
C 9.61490207 16.72439236 5.42654779 -0.00192428 -0.00191109 0.00142795
C 3.12596272 17.29876353 5.54788452 -0.00307781 -0.00359911 -0.00661900
C 0.47789654 12.19906937 0.52788007 -0.00200509 0.00220056 0.00299331
C 5.84328450 12.75847909 0.08816621 -0.00538845 -0.00158304 -0.00103769
C -2.34072531 17.41305681 6.03209722 -0.00671777 0.01037333 -0.00683173
C 4.17739564 16.49805592 5.85018919 -0.00425606 0.00298786 0.00339938
C 12.63669449 11.28159812 0.37009878 0.01125120 -0.00016052 -0.00488244
C 2.07085503 14.70623884 3.30451628 -0.00371460 -0.00452373 0.00407977
C 1.72226208 9.99260550 2.36052248 -0.00544702 0.00142102 0.00628367
C 8.34076862 14.20651612 2.51678626 0.00167629 0.00503976 0.00377602
C 8.64766242 19.07984069 3.43219319 0.00353213 0.00140359 0.00226792
C 0.90276314 15.49948112 3.01431462 0.00032579 -0.00443685 0.00115389
C 2.96164213 10.75011683 2.45075822 -0.00230859 0.00121135 0.00027762
C 9.49693565 13.18804593 2.59465056 -0.00305725 0.00020232 0.00153031
C 7.31829724 18.31278135 3.29843270 -0.00059933 -0.00074683 -0.00039107
C 0.04725215 13.41418161 11.29191005 0.00271485 0.00289662 0.00233549
C -2.53290685 18.27243365 7.13030693 -0.00493463 -0.00212197 -0.00210428
C 4.06249034 15.70245667 7.02700693 -0.00123166 0.00190781 0.00219381
C 6.74617969 10.74406309 11.36927205 -0.00470035 0.00506594 0.00356950
C 1.24623358 13.29962402 10.60603622 -0.00264033 0.00115255 0.00335278
C 9.24573637 18.18425512 7.75545158 0.00151458 0.00071603 -0.00059218
C 2.80602945 15.80203928 7.69183303 0.00465063 0.00606157 0.00036937
C -5.25650081 10.80072845 10.68969177 -0.00518675 0.00417096 0.00447911
C 2.22997762 12.39177866 11.01835518 -0.00186244 -0.00036394 0.01046803
C 8.33261770 17.32636345 7.33550585 -0.00800684 0.00010250 -0.00164225
C 1.76402242 16.60246403 7.30319434 0.00990418 0.00220208 0.00418928
C -4.25466255 11.77515419 11.05187171 -0.00123924 -0.00725118 0.00065034
C 2.05806219 11.66085192 12.25323822 0.00159338 -0.00385844 -0.00409533
C 8.48214024 16.49608217 6.22113228 -0.00104836 -0.00658508 0.00528449
C 1.92598186 17.36872383 6.20230159 0.00194982 0.00616198 0.00438312
C -4.40980606 12.50199573 12.27183678 0.00139215 -0.00232378 0.01173356
C 3.97247193 11.92163991 6.63625768 0.00180870 -0.00221769 -0.00974318
C 6.81920989 16.49772976 11.71304706 0.00129484 -0.00260106 -0.00397764
C 0.13574287 17.33280390 11.52513873 0.00389308 -0.00242101 0.00501507
C -2.83117627 12.48150663 6.55192410 0.00604945 -0.00329796 -0.00213865
C 2.92395487 12.69709435 6.15943595 0.00069929 0.00126412 -0.00413875
C -5.46155761 17.01035336 11.90884353 0.00492430 0.00282275 0.00467311
C 1.17460155 16.41800445 11.93611126 0.00164269 0.00420294 0.00266915
C 9.59876657 11.31464052 6.21472254 -0.01408878 0.00539362 -0.00170147
C -1.19258474 14.73135862 9.65640499 0.00090645 0.00241086 -0.01017594
C -1.30343218 10.17035967 8.50415941 -0.00110943 -0.00734668 -0.00126740
C 5.15555931 14.33400461 8.70124001 -0.00361707 -0.00217935 0.00103302
C 5.46882774 18.93118146 9.63611362 -0.00115268 -0.00184696 0.00568110
C -2.40810575 15.64498976 9.55965905 0.00193260 -0.00418911 -0.00132504
C -0.19397609 11.13222106 8.61688091 0.01076091 0.00647283 -0.00597752
C 6.21518891 13.35210889 8.88627444 0.00279900 -0.00000821 0.00487737
C 4.18885197 18.15066104 9.60399387 0.00081030 0.00553734 0.00398494
C -2.86443829 13.07907158 17.49052983 -0.00617097 0.00297274 0.00212024
C -5.51698099 17.81089463 13.00419144 -0.00746896 -0.00194177 -0.00557837
C 1.12100606 15.65573827 13.10925868 -0.00376243 -0.00371869 0.00037526
C 3.65100460 10.61438904 17.35847463 -0.00438108 -0.00402062 -0.01256164
C -1.67551050 12.99839009 16.71010543 0.00391781 0.00192150 0.00113615
C 6.52171638 18.07798737 14.01520457 -0.00265986 -0.00743545 -0.00097347
C -0.11478122 15.73708575 13.86851301 0.00010105 -0.00261074 -0.00073286
C 31.10492041 10.68608966 16.43005705 0.00384206 -0.00170673 -0.00270823
C -0.68036818 12.16965364 17.17692917 0.00687767 -0.00256093 -0.00421584
C 5.52852427 17.16781002 13.69458180 0.00618513 -0.00147819 0.00284397
C -1.08950109 16.55464197 13.49462843 -0.00468216 -0.00439455 0.00353850
C -7.45849728 11.60285843 16.73705871 0.00195927 0.00322055 0.00044992
C -0.80939677 11.43927690 18.36259336 -0.00602768 -0.01564969 0.00663990
C 5.70757269 16.35250423 12.54354482 -0.00586663 0.00805585 -0.00265614
C -0.98560763 17.37326488 12.37002794 -0.00297190 -0.00302000 0.00664398
C -7.55563072 12.43251870 17.88036719 -0.00343334 0.00836745 -0.01029981
C 0.82960382 11.82983061 12.92951229 0.00010426 -0.00022955 0.00038034
C 4.02237393 16.41121087 17.88208041 -0.00614123 -0.00142245 0.00052272
C -2.94757584 16.98331654 17.59977802 0.00740502 -0.00122315 -0.00306973
C -5.69152844 12.41676542 12.96237319 -0.00038690 0.00571300 -0.00299183
C -0.13510388 12.67630356 12.45166665 -0.00242577 0.00078027 0.00409482
C -8.56415816 17.20803502 18.27584828 0.00812734 -0.00333926 0.00544790
C -1.89780194 16.22195230 18.12673058 0.00384118 0.00494818 -0.00015416
C 6.55545155 11.52284945 12.48785971 -0.00062565 -0.00636332 0.00138315
C -4.17949248 14.39229159 15.86465956 -0.00482359 0.00318717 -0.00098333
C -4.40841681 9.70722335 14.94206380 0.00009149 -0.00385330 -0.00459095
C 2.27792002 14.28369181 14.70014254 -0.00274888 -0.00825022 -0.00059002
C 2.55852797 19.09641098 16.01928578 0.00281656 -0.00534210 -0.00283862
C -5.56321840 14.92161061 15.65305888 -0.00012476 -0.00659111 -0.00016137
C -3.22364119 10.60889767 15.29541511 0.00051000 0.00226755 -0.00755423
C 3.27271691 13.23322210 14.90027125 0.00353814 0.00101472 0.00132053
C 1.30730364 18.22135323 15.96004559 0.00369067 0.00290029 -0.00004132
C -5.92551864 13.52179764 23.39458520 -0.00618724 0.00273041 0.00018311
C -8.87580461 18.07583075 19.37472659 -0.00433804 -0.00420816 -0.00328105
C -2.10469167 15.42858563 19.23081129 -0.00243479 0.00265014 -0.00514713
C 0.74380339 10.60879597 23.59912674 0.00314227 -0.00041713 0.00003056
C -4.75691970 13.24881030 22.60071186 0.00504669 -0.00335293 0.00444617
C 3.44777224 18.09472030 20.05619453 -0.00090224 -0.00287031 0.00511705
C -3.35921606 15.36787659 19.91741074 -0.00169562 -0.00889435 0.00524601
C -11.05914040 10.80879166 22.71390111 0.00217851 0.01240141 0.00249150
C -3.80528180 12.34611209 23.09847163 0.00194976 -0.00836079 -0.00725730
C 2.55542503 17.11221096 19.72024910 0.00220469 0.00504942 0.01015033
C -4.41788672 16.14042480 19.40634012 0.00115112 0.00114523 0.00451613
C -10.12323564 11.77240232 23.10898733 0.00822486 0.00236712 -0.01105908
C -4.05760455 11.75181774 24.34609232 0.00670384 -0.00173693 -0.00470283
C 2.76987798 16.30249467 18.57037797 -0.00726801 -0.00025379 -0.00791767
C -4.19916579 16.97642128 18.22538904 0.00453574 -0.00379152 0.00897070
C -10.34987892 12.38142974 24.31803444 -0.00523439 0.00172023 0.00239269
C -2.06884938 11.42806633 19.00310985 -0.00342953 -0.00526180 -0.00030386
C 0.89842065 16.29371335 24.10890213 0.00037787 0.00240302 0.00617567
C -5.73655088 17.34359349 23.67451018 -0.00128184 -0.00048961 -0.00172043
C -8.73260095 12.46519827 18.58680109 0.00598437 0.00848266 -0.00454876
C -3.07896274 12.20814863 18.55227391 0.00062966 0.00038652 0.00181034
C -11.40089319 17.36904331 24.31295649 -0.01043712 -0.00022926 0.00390908
C -4.70757407 16.53962707 24.18103179 0.00473351 0.00068607 -0.00272771
C 3.42062381 11.53703503 18.42026618 0.00343945 0.00371420 0.00479898
C -7.30737897 14.57281621 21.70581716 0.00267875 0.00241956 0.00361873
C -7.32658801 10.16428071 20.44416963 -0.00084016 0.00385677 0.00111282
C -0.87188916 14.18167622 20.87592927 0.00512059 0.00471452 -0.00896363
C -0.35256939 19.08911507 21.95592953 0.00447040 -0.00360868 -0.00592200
C -8.46058511 15.45019390 21.42699672 0.00503290 0.00500244 0.00274827
C -6.00112444 10.94222472 20.60482983 -0.00093311 -0.00031279 0.00340665
C 0.40978932 13.38878385 21.19394643 0.00115425 -0.00355845 -0.00131190
C -1.65615158 18.25709756 21.63942824 -0.00273282 -0.00417459 -0.00008029
C 3.12276586 23.02143694 5.20649990 0.00284064 -0.00372369 0.00105193
C 0.57142852 27.99270338 1.09020688 0.00096403 -0.00085520 -0.00313610
C 7.04431816 25.10752112 1.11410475 0.00504184 -0.00152277 -0.00209104
C 9.80123423 20.37686078 4.99408354 -0.00481860 0.00157651 -0.00884388
C 4.33724231 23.03370800 4.54576542 0.00001890 -0.00290729 -0.00229106
C 12.50816384 27.68861167 1.72580019 -0.00824320 0.00678138 0.00096608
C 5.78699022 25.23067111 1.75577572 -0.00283236 -0.00117805 -0.00264926
C -2.28422401 20.51263999 4.68239892 0.00235054 0.00219305 -0.00501574
C 5.33188819 22.12855276 4.83906310 0.00568353 -0.00056852 -0.00248211
C 11.55045740 26.91304675 1.14482123 0.00215998 -0.00530200 0.00488938
C 4.93033052 26.25722283 1.45315528 -0.00207955 0.00486544 -0.00490815
C -1.28096160 21.30064582 5.12355092 -0.00379865 0.00396526 -0.00443032
C 5.15852015 21.25229531 5.93889805 0.00523114 -0.00493435 0.00065414
C -0.33594895 26.12618530 24.47159978 0.00207530 -0.00150894 0.00022368
C 5.13201106 27.06525345 0.31730927 -0.00683004 0.00338541 0.00151336
C -1.49491865 22.24769816 6.10909855 -0.00084388 -0.00646155 0.00254773
C 6.81946991 21.32284685 0.54410128 -0.00421184 -0.00041016 0.00006803
C 9.77029610 26.07505961 5.83373760 -0.00670699 -0.00073521 -0.00077746
C 3.32483173 26.89301277 5.58101988 0.00216950 -0.00029330 0.00570428
C 0.44634847 21.96794335 0.71278983 0.00392132 -0.00075572 -0.00942412
C 5.83031494 22.19739480 0.20002888 -0.00534317 0.00012463 0.00292063
C -2.27673677 27.21464993 6.01049789 0.00791974 0.00528601 0.00301455
C 4.20633656 25.94865166 6.04130661 0.00544977 0.00651409 0.00261160
C 12.57995543 21.13426822 0.29369622 0.00400269 0.00583605 0.00556553
C 1.87700971 24.47219520 3.64398151 -0.00442468 0.00223162 -0.00033592
C 1.45980014 19.65539022 2.64005145 -0.00189742 0.00203732 0.00139440
C 8.24577954 23.79908612 2.72114722 0.00053955 0.00055456 0.00162547
C 8.70546886 28.54234994 3.52252062 -0.01360344 -0.00642853 0.00699060
C 0.72908926 25.39017626 3.59563474 0.00223809 0.00315285 0.00341282
C 2.68107818 20.46546709 2.94781038 -0.00497138 -0.00097734 0.00154836
C 9.41323142 22.91589288 2.98695219 -0.00593303 0.00215245 -0.00588709
C 7.62367237 27.54323175 3.15230015 -0.00297943 -0.00393346 -0.00104671
C 0.10415285 23.21008699 11.39789555 -0.00681058 0.00892408 -0.00255852
C -2.40561658 27.98162218 7.15675973 0.00295061 -0.00572563 -0.00075653
C 3.99655897 25.14472203 7.17387664 -0.00456756 0.00217274 0.00652930
C 6.72303067 20.23587137 11.24053000 0.00046854 0.00191352 0.00446079
C 1.29377017 23.02211116 10.67281001 -0.00311734 -0.00544318 -0.00019128
C 9.30686972 27.80353727 7.91239087 -0.00005516 -0.00089575 -0.00044475
C 2.83524773 25.28540806 7.88978537 -0.00066605 0.00424308 0.00544596
C -5.21558826 20.26414370 10.67209750 0.00390061 0.00274480 -0.00110408
C 2.23572777 22.11943860 11.07436207 -0.00084760 -0.00262264 -0.00292705
C 8.32277356 26.90209356 7.51248742 0.00223672 -0.00020352 0.00151324
C 1.92964213 26.21720405 7.41234660 -0.00521087 -0.00765175 -0.00204850
C -4.27397098 21.21521574 11.05158819 -0.00095933 0.00046475 -0.00429868
C 2.05559690 21.28802166 12.22535899 0.00036174 -0.00272445 -0.00221596
C 8.49451514 26.05116959 6.40640447 0.00796304 -0.00186886 -0.00123933
C 2.07988203 26.96968416 6.24196490 0.01026557 0.00265954 0.00227103
C -4.39335739 22.02708090 12.18963737 -0.00054702 -0.00671380 -0.00431411
C 3.97649915 21.36220613 6.73366905 0.00135671 0.00344024 0.00201789
C 6.60530568 26.24939855 11.75702220 0.00417947 -0.00670669 -0.00520993
C 0.18088498 27.12854131 11.76845593 0.00054067 0.00550400 -0.00386166
C -2.73676491 22.21253909 6.82607557 0.00315160 0.00134384 0.00194685
C 2.89123561 22.08647509 6.30821590 0.00062139 0.00014355 -0.00321429
C -5.56336180 26.93959417 12.09728013 0.00029827 -0.00850861 0.00347568
C 1.17642669 26.30670273 12.28389007 0.00535107 0.00009141 0.00320765
C 9.55725845 21.22117267 6.12663771 0.00195929 -0.00100750 0.00355063
C -0.89433490 24.57114401 9.62467513 -0.00104306 0.00218709 0.00061370
C -1.23405191 19.60463521 8.76140542 0.00708867 0.00297563 -0.00987460
C 5.05805817 23.77351974 8.84994516 -0.00104862 -0.00421166 0.00063710
C 5.17561296 28.55795832 9.74236908 -0.00454597 -0.00100512 0.00097629
C -2.04232833 25.58083256 9.36147705 0.00180123 -0.00439116 0.00243748
C 0.13058236 20.20434342 8.97509161 0.00413284 0.00177382 0.00416102
C 6.22399926 22.89322814 9.09947543 0.00301119 -0.00117451 0.00426692
C 3.68691783 28.08430009 9.48638844 -0.00490617 -0.00178890 -0.00034548
C -2.74561431 23.00528597 17.53807774 0.00006181 -0.00010445 0.00160969
C -5.70937012 27.66629269 13.29581070 0.00260411 -0.00165169 -0.00165870
C 0.91981059 25.41489877 13.29800117 0.00197634 0.00105280 -0.00012966
C 3.87555817 20.52824990 17.52234011 0.00162402 -0.00841038 -0.00387669
C -1.54245802 22.85697494 16.84649813 0.00671640 0.00605001 0.00517535
C 6.34669516 27.78455765 13.93913846 0.00232292 -0.00414251 -0.00405196
C -0.24795183 25.51546022 14.01249895 0.00713869 -0.00198861 0.00298145
C 30.98475189 20.44453960 16.69680535 0.00246203 0.00315422 0.00088667
C -0.57327600 21.97201574 17.24789213 0.00230315 -0.00107120 -0.00496093
C 5.32570260 26.95509472 13.63314608 -0.00452605 0.00236474 0.00703278
C -1.21445589 26.38700138 13.61918941 -0.00062332 0.00979098 0.00589612
C -7.45127367 21.20444033 17.12783494 0.01356313 0.00561314 0.00085067
C -0.71427007 21.25079927 18.40139406 0.00125487 0.00324165 0.00475684
C 5.43461449 26.14108472 12.45950638 0.00151114 -0.00563209 0.00362276
C -1.06278198 27.16725564 12.43791155 0.00156530 -0.00106822 -0.00581113
C -7.50126401 22.01886428 18.32338682 0.00340666 -0.00387806 0.00395983
C 0.81466744 21.40034181 12.89876446 0.00449217 0.00670244 0.00318346
C 3.94480237 26.21476971 17.69865470 0.00070405 -0.00286383 -0.00204777
C -2.65601713 26.79844994 17.95090567 0.00566672 -0.00351917 -0.00203837
C -5.45468043 21.85911074 12.98938695 0.00814292 0.00244504 -0.00239618
C -0.10803688 22.30306344 12.44229601 -0.00032127 0.00056978 0.00050198
C -8.23838467 27.10197807 18.18923284 -0.00904345 -0.00436116 -0.00848440
C -1.61088574 26.06504349 18.31959955 0.00583850 -0.00163778 -0.00176872
C 6.63179757 21.07616556 12.34134447 0.00257132 0.00305635 0.00139453
C -3.95409685 24.36155568 15.92066885 -0.00124878 -0.00812964 -0.00323159
C -4.31364755 19.16497010 14.59449857 0.00127316 -0.00015819 -0.00023206
C 2.02982468 23.76734869 14.71557653 0.00458476 -0.00208555 0.00666735
C 2.65864206 28.62175263 15.71214799 -0.00320481 0.00415387 -0.00397448
C -5.22791991 25.07870138 15.64306631 0.00390204 0.00120667 -0.00053476
C -3.09287769 19.99190010 14.75922170 0.00011055 0.00163657 -0.00046237
C 3.16338986 22.84239167 14.84537198 -0.00275190 0.00706814 -0.00342995
C 1.49836538 27.76435605 15.54649063 0.00110522 -0.00147852 -0.00688329
C -6.09447504 23.04749668 23.58961502 0.00094869 -0.00470234 0.00217063
C -8.42955914 27.96350254 19.29516970 -0.00694480 0.00008330 -0.00311806
C -1.61067760 25.19282931 19.43455997 0.00022940 0.00041483 -0.00197900
C 0.77668158 20.37316674 23.61312020 0.00430631 -0.00854711 0.00554922
C -4.89206249 22.99220048 22.78018585 -0.00030873 0.00890594 -0.00422488
C 3.32967404 27.97658904 19.75054738 -0.00324274 -0.00413858 0.00328230
C -2.83427166 25.13559600 20.11913425 -0.00293761 0.00879030 0.00616860
C 28.21921304 20.46757270 22.86492690 0.00750072 0.00372675 -0.00239543
C -3.94148644 22.04716008 23.11955094 0.00398002 0.00309667 0.00508896
C 2.39157414 27.02568850 19.36448391 0.00303933 -0.00404244 -0.00272143
C -3.90798236 25.94005765 19.74923315 0.00365458 -0.00251208 -0.00354118
C -10.22993299 21.24022713 23.36439627 0.00059627 -0.00036283 -0.00321472
C -4.01045158 21.23847167 24.31498593 0.00119908 0.00515582 -0.00461978
C 2.64070190 26.11570878 18.28012622 0.00279734 0.00143667 0.00199971
C -3.88915518 26.73001392 18.55325966 -0.00320216 0.00117383 0.00540853
C 1.68473278 22.02721549 0.01233111 -0.00110085 -0.00342593 0.00197272
C -1.97402104 21.29104123 19.04197684 -0.00046933 -0.00575007 0.00876721
C 0.89660008 26.26799509 23.81020724 -0.00179366 0.00058355 -0.00169226
C -5.73654649 26.84283587 24.01485124 -0.00402845 0.00106735 -0.00117150
C -8.69395022 21.93802524 19.10611764 -0.00283223 0.01010030 0.00048825
C -2.98238919 22.15668034 18.66786345 -0.00248602 -0.00607033 0.00605409
C 0.82672379 27.10435780 0.02450180 -0.00034378 0.00055347 0.00305660
C 7.31288864 26.02171260 0.06616298 -0.00157860 -0.00116106 0.00191079
C 3.73254867 21.37262615 18.68651946 0.00032730 0.00165884 -0.00034118
C -7.44762451 24.45304686 22.05487581 -0.00402218 0.00414908 -0.00055686
C -7.67888166 19.52198400 20.92373540 -0.00018380 0.00074457 -0.00261861
C -0.42351319 23.69811497 20.90497809 -0.00705071 -0.00286881 -0.00558771
C -0.31660746 28.64661070 22.05551853 0.01590414 -0.00094947 -0.00011620
C -8.67347186 25.23593529 21.82627253 0.00360030 0.00169020 -0.00129714
C -6.40216410 20.24355901 21.11846252 -0.00106652 0.00472329 0.00061111
C 0.92516650 22.93928988 21.01665592 -0.00086960 -0.00179500 -0.00266495
C -1.52591414 27.81376910 21.84779111 -0.00312979 0.00423654 -0.00138305
C 16.34158203 3.51145732 5.27247683 -0.00281775 0.00436592 0.01005709
C 13.63132888 8.38975430 1.10888022 -0.00580171 -0.00080719 -0.00143390
C 19.97842598 5.88399668 0.99283977 0.00293241 -0.00829157 0.00046323
C 22.92973276 0.97726741 5.20029886 -0.00158035 0.00294588 -0.00345125
C 17.58700146 3.51285077 4.55873006 -0.00742247 0.00709206 -0.00100896
C 25.43798058 8.47099233 1.69054573 -0.00516745 -0.00986530 -0.00320898
C 18.75484075 5.98507731 1.70703642 0.00323517 0.00886688 0.00248835
C 11.00449989 1.11222657 4.64388705 0.00734840 0.00042619 0.00282454
C 18.48989740 2.55454665 4.93794405 -0.00100994 -0.00445337 -0.00357777
C 24.46397501 7.69805582 1.24819240 -0.00473073 -0.00783646 -0.00531897
C 17.73143063 6.72089300 1.15831297 -0.00043426 -0.00044541 0.00442374
C 11.97764075 1.95937832 5.12134105 0.00197555 0.00335466 -0.00391840
C 18.43054863 1.75187628 6.09757729 -0.01134685 -0.00303410 -0.00037355
C 24.64227075 6.76574221 0.15663344 0.00784543 0.00262665 -0.00414455
C 17.97697453 7.54599919 0.02306537 0.00618768 -0.00306929 0.00980772
C 11.71617161 2.78889412 6.17742755 -0.00127626 0.00316469 0.00277727
C 20.02768132 2.10583845 0.40637232 -0.00674972 0.00539910 0.00353433
C 22.68588913 6.78657273 5.38701489 -0.00126580 0.00147794 -0.00896218
C 16.46546852 7.50439561 5.69877796 0.00254596 0.00256784 -0.00002469
C 13.69977916 2.79209397 0.73670020 0.00102501 0.00485680 0.00390115
C 7.06326352 2.95111629 24.39376296 -0.00076194 0.00542901 -0.00031136
C 10.86548925 7.45131136 5.89259474 -0.00102679 0.00033823 0.00681876
C 17.41684703 6.63965371 6.14264618 -0.00041013 0.00330687 0.00375962
C 25.61075237 1.98167373 0.05191384 0.00062870 -0.00656598 -0.00015530
C 15.20267841 5.01212319 3.74894165 0.00562990 0.00271421 0.00099692
C 14.84449987 0.29789708 2.58672176 -0.00649171 -0.00141848 -0.00379198
C 21.29623316 4.57136491 2.57919437 0.00097544 -0.00192740 0.00397727
C 21.64112676 9.41506235 3.55194098 0.00677500 -0.00018196 0.00063745
C 14.12401174 5.93972511 3.42587790 -0.00121429 -0.00340589 0.00162472
C 16.13480415 0.94144526 2.75701297 -0.00141427 0.00004857 0.00237776
C 22.52486944 3.71806859 2.74567651 0.00315109 0.00359361 0.00859075