2880
Time=81000.00000008 pbc="T T T" Lattice="39.54449857 0.00000000 0.00000000 0.00000000 29.07076396 0.00000000 -12.02896541 0.00000000 24.40562631" energy=-18398.23534304 virial="-43.62571716 29.37949132 -24.79205985 29.37949132 -0.50704249 27.03854419 -24.79205985 27.03854419 -16.49013265" stress="0.00089041 0.00106743 -0.00086388 0.00106743 0.00248170 0.00097408 -0.00086388 0.00097408 0.00192892" Properties=species:S:1:pos:R:3:vel:R:3
C 3.22752945 3.52083671 5.19528591 0.01003999 -0.00271088 -0.00094777
C 0.61906095 8.77364720 0.85474738 0.00360557 0.00598910 0.00040705
C 7.07250745 5.99887921 1.02378755 0.00491220 0.00185101 -0.00117235
C 9.92638782 1.21907277 5.18594639 0.00646851 0.00347920 -0.00056250
C 4.44081528 3.37357116 4.49592089 -0.00036814 0.00110579 0.00563961
C 12.42794903 8.42115331 1.57467066 0.00578883 0.00672431 -0.00264487
C 5.83233311 6.10696638 1.68269350 0.00241126 -0.00201318 0.00023916
C 37.04145407 1.36650815 4.45040354 0.00306539 -0.00261808 0.00332821
C 5.34272768 2.42019663 4.88699170 -0.00024922 -0.00030764 -0.00345229
C 11.45829028 7.50468149 1.19802085 -0.00123103 -0.00458062 -0.00192793
C 4.87105294 7.01939641 1.23908829 0.00155038 -0.00703050 -0.00231470
C -1.46305920 2.13511181 4.93978413 -0.00041325 0.00377762 -0.00545981
C 5.19223117 1.66862376 6.11629268 -0.00739790 -0.00372709 -0.00188241
C 11.54140383 6.74422328 0.04192718 -0.00654370 0.00681999 -0.00498190
C 5.09838301 7.85068228 0.14244256 -0.00254342 -0.00023679 -0.00212682
C -1.57724913 2.85647271 6.13928134 0.00806946 0.00272356 -0.00196806
C 7.01939827 2.01906035 0.56186168 -0.00159289 0.00311422 0.00165478
C 9.82774409 6.54989234 5.47575948 -0.00017630 -0.00304687 0.00656935
C 3.02763620 7.54075445 5.59791394 -0.00720193 -0.00431770 0.00186378
C 0.33398707 2.59435425 0.70017871 -0.00442837 0.00591353 0.00253427
C 5.98301818 2.82371332 0.16117620 0.00041240 0.00274930 -0.00405452
C -2.23672172 7.73026877 6.11775819 0.00547022 0.00653233 0.00180133
C 4.07818998 6.70644761 5.94697233 -0.00358235 -0.00452083 0.00009965
C 0.62743152 2.07862882 24.29873894 0.00286008 0.00465590 0.00407549
C 1.88462241 4.96190574 3.70992190 0.00152538 -0.01302424 0.00164561
C 1.76428105 0.07376597 2.76858139 -0.00406396 -0.00026670 -0.00032697
C 8.31290134 4.42707163 2.42525326 0.00150280 -0.00614437 -0.00790212
C 8.29307598 9.61139774 3.58373241 -0.00361275 0.00351676 -0.00031677
C 0.64675392 5.76516704 3.53173345 -0.00233854 -0.00229735 0.00536569
C 2.83347069 1.07385892 2.90938531 -0.00699276 0.00099072 0.00374185
C 9.70723385 3.98593444 2.63334593 -0.00079931 0.00344054 0.00040934
C 7.02031957 8.86240225 3.68494065 -0.00004096 0.00234278 -0.00379570
C 0.15313746 3.91788420 11.32099079 0.00536703 0.00278847 0.00113251
C -2.59352782 8.67631477 7.11724680 -0.00221282 0.00126803 -0.00222301
C 3.96987931 5.90447331 7.11301220 0.00692974 -0.00663837 0.00485185
C 6.72349688 1.13928373 11.21957487 -0.00002607 0.00854318 0.00002464
C 1.41353392 3.82923989 10.61435281 0.00823115 0.00293454 -0.00605072
C 9.36645789 8.23948326 7.54957404 0.00575615 0.00229736 -0.00627595
C 2.82263754 6.04313460 7.85876912 -0.00136583 -0.00422892 0.00101912
C -5.18535713 1.36188021 10.63359170 0.00069195 -0.00658094 -0.00062908
C 2.21871266 2.75612675 10.90743824 0.00421106 -0.00561822 0.00215982
C 8.34311268 7.42917100 7.12068656 0.00786125 0.00876001 0.00107987
C 1.82430325 6.95817251 7.56805739 -0.00710157 -0.00002311 -0.00655360
C -4.18798117 2.20498326 10.99862238 0.00274337 0.00251571 -0.00543121
C 1.88822447 1.77505356 11.86089418 -0.00214871 -0.00652055 -0.00841863
C 8.60579510 6.51952568 6.07252118 -0.00229995 0.00084470 -0.00035327
C 1.90564247 7.75736805 6.41390404 0.00309973 0.01213192 0.00624221
C -4.32091042 3.06192956 12.10365181 -0.00212651 -0.00948652 -0.00066498
C 4.08814919 1.97496424 6.92425270 -0.00236440 0.00078425 -0.00470576
C 7.11967235 6.83598259 11.87863400 -0.00061415 -0.00211585 -0.00708094
C 0.44191692 7.78511830 11.72787225 -0.00114666 -0.00225417 -0.00131419
C -2.88937632 2.86882507 6.76914783 -0.00299200 -0.00468337 -0.00155292
C 3.07869569 2.74669169 6.34916956 -0.00306571 -0.00877356 0.00267056
C -5.57289156 7.78187347 12.06303715 -0.00617487 -0.00130077 -0.00458813
C 1.40073810 6.96171634 12.26985192 0.00132197 0.00159358 -0.00195253
C 9.71695906 1.91881609 6.36962376 -0.00566105 0.00496378 -0.00407659
C -0.91765332 5.21563850 9.67762343 0.00221617 0.00557065 0.00276915
C -1.34194264 0.27554425 8.59137421 0.00020506 -0.00220978 0.00430864
C 5.33182360 4.70866919 8.72447690 -0.00195347 -0.00227822 -0.00733422
C 5.88345978 9.41761647 9.26597661 0.00400211 -0.00014754 -0.00270832
C -2.12217609 6.09681306 9.41794588 0.00250960 -0.00898268 0.00384792
C -0.01495330 0.95359784 8.69698329 0.00277754 -0.00034008 -0.00492237
C 6.61775454 3.90623543 8.69799466 0.00204434 -0.00140172 0.00904350
C 4.51382993 8.75000824 9.07845689 0.00204272 0.00706758 0.00289267
C -2.92162676 3.67109090 17.21139311 0.00298952 -0.00142273 -0.00103038
C -5.68868175 8.59733980 13.18260890 0.00244854 0.00597674 0.00366988
C 1.08657476 6.05135729 13.25697848 0.00559904 -0.00402714 0.00337189
C 3.64183117 1.20054421 17.26432412 -0.00490596 -0.00136018 -0.00299501
C -1.65538336 3.62739562 16.67733367 0.00269388 0.00436567 0.00028736
C 6.54595961 8.66942439 13.87483299 -0.00365873 -0.00072062 -0.00266919
C -0.09043653 6.22712572 14.06673696 0.00113687 0.00025654 -0.00132859
C -8.20380386 1.40122547 16.77804314 -0.00192813 -0.00066753 -0.00091985
C -0.68218464 2.73883578 17.15999647 0.00737445 -0.00230635 -0.00300944
C 5.55902912 7.79736109 13.45854588 0.00188085 0.00023926 0.00499170
C -1.00370999 7.14232048 13.55164376 -0.00017752 -0.00857735 0.00677812
C -7.18157482 2.18037579 17.21358303 0.00698229 0.00443590 0.00189418
C -0.99758526 1.94031088 18.27876362 -0.00040535 0.00610484 -0.00486383
C 5.82867793 6.79704323 12.49391726 0.00106757 0.00310470 -0.00160413
C -0.79721955 7.97393535 12.39733594 0.00283405 0.00626674 -0.00451156
C -7.40007195 3.07305029 18.30855493 -0.00082807 -0.00108448 0.00841954
C 0.73537476 2.04408968 12.64820922 0.00447477 0.00467574 -0.00381587
C 3.82504136 6.98972228 17.68069966 0.00384624 0.00008619 0.00484794
C -3.04880312 7.61705879 17.48895440 0.00637021 0.00564240 0.00262611
C -5.60265176 3.03019992 12.81387248 0.00279313 0.00055013 -0.00024155
C -0.11909984 3.10491717 12.36606054 0.00567150 -0.00352608 0.00327958
C -8.27595818 7.93003094 18.27764036 0.00501170 0.00271285 -0.00370967
C -2.07090017 6.79560617 17.95174935 0.00386343 0.00261124 -0.00333491
C 6.54166360 1.99512248 12.32993079 -0.00090402 0.00041108 0.00547353
C -3.81218355 5.17498993 15.59392302 -0.00099471 -0.00595322 0.00699569
C -4.36589153 0.24147762 14.96293682 0.00035232 -0.00145962 -0.00524738
C 2.11907384 4.64170419 14.90316335 -0.00118492 -0.00100116 0.00694055
C 2.43090404 9.58842689 15.67946087 -0.00620093 0.00398537 -0.00298795
C -4.88505689 6.16663390 15.39395530 -0.00092226 0.00093853 0.00128511
C -3.03263425 0.76155801 15.44009265 -0.00355428 -0.00297670 -0.00549600
C 3.32803138 3.75799732 15.10597201 0.00077326 -0.00057028 -0.00306047
C 1.16192352 8.69021002 15.56205155 -0.00182876 0.00031856 0.00678095
C -5.88661122 3.69430778 23.49216708 0.00180714 0.00240525 -0.00074536
C -8.61554759 8.88048570 19.27392012 -0.00270544 -0.00000996 -0.00009376
C -2.25378857 6.00286735 19.12843253 -0.00237505 -0.00300134 0.00526212
C 0.71157044 1.22815316 23.17209516 0.00218237 -0.00261147 -0.00634499
C -4.75261788 3.63269042 22.68971950 0.00035890 0.00419915 -0.00584878
C 3.50790926 8.66660446 19.83433743 -0.00453926 -0.00694640 -0.00008375
C -3.40602202 6.06761259 19.82769546 0.00025192 0.00290499 -0.00507009
C -11.13124207 1.11348919 22.78804798 0.00327601 -0.00257156 -0.00106150
C -3.71785585 2.82305614 23.02749163 0.00236929 0.00003226 0.00284090
C 2.39487555 7.96513165 19.32985641 0.00298573 -0.00121846 0.00252980
C -4.36621071 7.01735979 19.46021505 -0.00246472 -0.00646088 -0.00102399
C -10.21589185 1.94203134 23.34055889 -0.00243562 -0.00062505 0.00218562
C -3.77339302 1.99191131 24.23144966 0.00274312 0.00279849 0.00076742
C 2.58213265 7.02867048 18.36241053 -0.00083962 -0.00050460 -0.01147375
C -4.16346371 7.85728193 18.30669468 -0.00094462 -0.00021998 0.00175749
C 1.63575217 2.70390593 0.14755485 0.00013941 -0.00298068 0.00528680
C -2.28735014 2.06190193 18.93857284 0.00489077 0.00411390 0.00443677
C 0.70880849 6.80215545 23.70544299 0.00340490 0.00441165 0.00440270
C -5.69760308 7.82299747 23.90795655 0.00516123 -0.00126849 0.00687634
C -8.56162859 2.93184364 19.01610109 -0.00056662 -0.00723157 -0.00415861
C -3.21448023 2.81914841 18.32683401 0.00483368 0.00250760 0.00169972
C -11.06356361 7.86746766 24.25671890 -0.00523103 0.00614037 0.00479954
C -4.73576369 6.91366610 24.34527569 0.01044379 0.00303760 -0.00104051
C 3.34831096 1.95348625 18.39861459 0.00340964 0.00196886 0.00132374
C -7.13464952 5.14072911 22.01309055 -0.00129638 -0.00488312 -0.00219831
C -7.17278709 0.00735910 21.04472816 0.00066339 0.00258976 0.00543801
C -1.03661682 4.52949315 20.63340187 0.00524217 0.00354126 0.00130337
C -0.63241528 9.30768012 21.96405904 -0.00337406 0.00562755 0.00183451
C -8.19431731 6.17229357 21.93973887 -0.00082313 -0.00929968 -0.00067728
C -5.84189881 0.75619334 20.97055284 0.00422648 -0.00981237 -0.00258205
C 0.16156007 3.64156274 20.77823458 -0.00074622 0.00319897 0.00604770
C -1.72481675 8.34968121 21.78816135 0.00150719 0.00117563 -0.00088410
C 3.38399547 13.55334644 5.00143793 0.00195958 -0.00222670 -0.00105913
C 0.59973294 18.31198659 0.98233484 0.00347987 0.00158017 0.00135388
C 7.12627720 15.65888985 0.97539912 0.00291167 0.00115039 0.00275792
C 9.88700261 10.59239944 5.07702423 -0.00070679 0.00621993 -0.00455150
C 4.57819764 13.39896138 4.23228724 0.00239097 -0.00082387 -0.00571003
C 12.41511869 18.05873168 1.54322529 -0.00353900 -0.00225355 -0.00173223
C 5.91803812 15.73849021 1.61714382 -0.00467471 0.00315558 0.00604309
C -2.12754601 11.09767399 4.47605013 0.00301750 -0.00041979 0.00513147
C 5.49001805 12.49706117 4.66500814 0.00732311 -0.00175407 -0.00230077
C 11.41338297 17.26696157 0.98712297 -0.00393680 0.00132876 0.00251948
C 4.91902311 16.62926249 1.21774340 0.00452352 -0.00508692 0.00309640
C -1.08619654 11.80229523 4.93685912 0.00175703 -0.00610820 -0.00069270
C 5.23487239 11.62953442 5.76271657 0.00744860 0.00254513 -0.00233334
C 11.70680571 16.40870763 0.00535260 -0.01067957 0.00605276 0.00048845
C 5.01942494 17.38287226 0.08405650 0.00699745 -0.00251638 0.00204787
C -1.21012886 12.64046490 6.04912985 0.00290218 0.00080803 -0.00672330
C 6.98067980 11.73488600 0.50419828 -0.00366845 -0.00714365 0.00181498
C 9.93405760 16.61616024 5.59638898 0.00465080 -0.00125484 0.00132416
C 3.27539657 17.55815881 5.42659590 -0.00038456 0.00035666 -0.00775220
C 0.32377042 12.80259873 0.26674844 0.00095443 -0.00035443 0.01222905
C 6.00750795 12.66517608 0.18191907 -0.00385283 0.00400342 0.00297817
C -2.35419782 17.67609173 6.03699636 0.00169515 -0.00345929 0.01339979
C 4.30306167 16.67921326 5.80875182 0.00079484 0.00637609 0.00114734
C 12.64815865 11.52182169 0.18259824 0.00083159 0.00151290 0.00303356
C 2.06394213 14.80208872 3.45051073 0.00395567 0.00881348 0.00178227
C 1.89810059 9.92819659 2.47028191 -0.00195923 -0.00261533 -0.00327437
C 8.34543882 14.18785179 2.40226517 -0.00047553 -0.00502209 -0.00191129
C 8.57141194 18.92540238 3.68217350 -0.00360921 0.00504405 0.00195253
C 0.83644259 15.57794637 3.24039877 -0.00336156 -0.00426941 -0.00529384
C 2.90541911 10.94891361 2.76833317 -0.00066743 -0.00068794 0.00037649
C 9.49610312 13.21823263 2.40889180 -0.00557579 -0.00185021 0.00007348
C 7.33865382 18.08064473 3.49858116 0.00259566 -0.00087680 -0.00635372
C 0.26527550 13.47380152 11.17616686 0.00344696 0.00114684 -0.00322878
C -2.56389402 18.54735420 7.13407737 0.00191880 -0.00179680 0.00061563
C 4.15992327 15.84492113 6.88853647 -0.00438009 -0.01072683 0.00053217
C 6.91548848 10.76168854 11.01300469 -0.00156243 0.00528080 0.00294676
C 1.43159820 13.35030695 10.44806053 -0.00152743 -0.00154362 -0.00933605
C 9.36177014 18.18734041 7.74568123 0.00258260 -0.00071168 0.00249985
C 2.95490924 15.93915377 7.70825712 0.00262761 -0.00122091 -0.00351968
C -5.11536229 10.91278539 10.40844882 -0.00254431 0.00130489 0.00696715
C 2.39127418 12.37256934 10.79684075 0.00237592 -0.00664727 -0.00257574
C 8.36738592 17.40871625 7.27415897 0.00142775 0.00221652 0.00047528
C 2.00140646 16.86853063 7.39710017 0.00130153 0.00029196 -0.00569421
C -4.11804818 11.80425865 10.75127363 0.00117278 -0.00101909 -0.00891902
C 2.16095056 11.54009156 11.84938294 -0.00791425 -0.00111049 0.00020780
C 8.70530361 16.53095936 6.22671517 -0.00075292 0.00110189 -0.00418947
C 2.15873064 17.66131653 6.26547449 -0.00262008 0.00271840 0.00172434
C -4.24358689 12.55882848 11.94150574 -0.00479724 0.00151005 -0.00355310
C 4.05343006 11.80651353 6.50797714 0.00771813 0.00647451 -0.00557791
C 6.83424288 16.28164148 11.66294887 -0.00364701 -0.00086992 0.00414563
C 0.30654922 17.38082221 11.69779475 0.00174458 -0.00273238 -0.00868636
C -2.43233580 12.65332931 6.79131394 0.00273903 -0.00155808 0.00242398
C 3.19052775 12.78836704 6.19068665 0.00103254 0.00811242 -0.00706326
C -5.40251078 17.43151826 12.19514607 0.00116484 0.00800933 -0.00496206
C 1.24668663 16.39746897 12.01659320 -0.00152560 0.00001392 0.00049267
C 9.74227514 11.41898495 6.21792806 -0.00277770 0.00115088 0.00292241
C -0.93884909 15.01409308 9.64772652 0.00254741 0.00575957 0.00172997
C -1.56878390 10.09505728 8.79010328 0.00549816 -0.00103083 -0.00141465
C 5.29144464 14.19674563 8.40048325 0.00091239 -0.00915835 -0.00250610
C 5.47394609 19.19208151 9.73295728 0.00692413 0.00720022 0.00244367
C -2.14226101 15.94175772 9.51222074 -0.00075889 -0.00173120 0.00004673
C -0.41470785 10.97028879 8.94353963 -0.00213005 -0.00221918 0.01472932
C 6.55142589 13.37128007 8.37598000 0.00500157 -0.00214403 -0.00323423
C 4.33636344 18.35446056 9.36025321 0.00052259 -0.00203731 0.00365046
C -2.89031844 13.45247112 16.99201577 -0.00299733 0.00588063 -0.00419426
C -5.76718817 18.35571621 13.30752515 0.00571483 0.00150308 -0.01079213
C 1.08351410 15.53970549 13.12272937 0.00426100 -0.00419352 -0.00276378
C 3.75054921 10.75917199 17.39382837 0.00238286 0.00163687 0.00432318
C -1.61564746 13.38895206 16.41886217 -0.00564345 -0.00471316 -0.00144530
C 6.10599755 17.96504262 13.68783500 -0.00849011 0.00185432 -0.00416122
C -0.11295635 15.72695382 13.85237968 -0.00044874 0.00671366 0.00177928
C -8.11500185 11.01273262 16.58003740 0.00259425 -0.00396117 -0.00347517
C -0.66709772 12.45761472 16.83812172 -0.00358993 -0.00403406 0.00194789
C 5.24623099 16.99096096 13.25023070 -0.01077214 -0.00285138 -0.00154566
C -1.08143092 16.65278691 13.50096908 0.00014595 -0.00926717 0.00351474
C -7.17579773 11.95132789 17.01491770 -0.00165049 0.00168689 0.00529396
C -0.98818107 11.59614704 17.97013222 0.00281568 0.00990556 -0.00365618
C 5.52361412 16.12051726 12.17266141 0.00086765 -0.00254362 -0.00457663
C -0.92990515 17.44799745 12.36393602 0.00078472 -0.00065096 -0.00181999
C -7.39600337 12.78853247 18.14355464 0.00219843 -0.00016308 -0.00709655
C 0.94753923 11.60410228 12.56951874 -0.00207318 0.00379340 -0.00330903
C 3.72108927 16.36439474 17.86539444 -0.00119040 -0.00378353 0.00372102
C -2.94393325 17.27893900 17.87836754 0.00666481 0.00014772 -0.00324894
C -5.40998083 12.35384801 12.73396823 -0.00399654 -0.00521584 0.00540261
C 0.02746843 12.56439418 12.27953209 0.00062792 -0.00758146 -0.00749795
C -8.49632679 17.63182464 18.02226267 0.00145176 0.00600036 0.00834803
C -1.95340209 16.36258743 18.07577099 0.00329733 0.00200981 0.00365893
C 6.44194721 11.68797861 11.96868837 -0.00321146 -0.00033959 -0.00365870
C -3.98524997 15.07038454 15.55891184 0.00005491 0.00332093 -0.00098042
C -4.34479075 9.94385560 14.77325659 -0.00174319 -0.00319187 0.00719585
C 2.49244208 14.27571818 14.66970913 -0.00916139 -0.01111430 -0.00203840
C 2.39799297 18.98196116 15.77923038 -0.00415182 0.00129457 0.00235204
C -5.06932839 16.08441617 15.44603312 0.00093635 -0.00085516 0.00524464
C -3.07614729 10.72700698 14.86864637 -0.00522168 -0.00157591 -0.00329005
C 3.66440267 13.31106530 14.69911258 0.00378807 0.00300813 -0.00414896
C 1.14802716 18.22326348 15.67909761 0.00573833 -0.00024436 0.00056432
C -5.84168183 13.50585644 23.48086474 -0.00358461 -0.01027970 0.00454040
C -8.68383215 18.34202094 19.14223658 0.00026641 0.00569822 -0.00208123
C -2.10983361 15.51977074 19.20126193 0.00004446 0.00258271 0.00229886
C 0.72199485 10.64749111 23.50464436 -0.00516348 -0.00117187 -0.00110959
C -4.61740903 13.44273868 22.78103531 0.00107486 -0.00387173 -0.00241377
C 3.29360661 18.18375026 19.89083666 0.00254675 -0.00181439 0.00316081
C -3.36196477 15.61208242 19.89333487 0.01192603 -0.00221751 -0.00765139
C 28.34633063 11.07066430 22.68634935 0.00154440 -0.00350157 -0.00025659
C -3.64954141 12.52486566 23.04976095 0.00016289 -0.00412861 -0.00047040
C 2.31522342 17.31522482 19.46858076 -0.00537985 -0.00041563 -0.00502351
C -4.35734703 16.43537840 19.58832455 0.00043439 -0.00324339 0.01005123
C -10.22816647 11.96465793 23.02427332 0.00448081 -0.00260096 0.00523869
C -3.79784951 11.69006581 24.18262016 -0.01006198 0.00156215 0.00440348
C 2.46378070 16.36791072 18.49319541 0.00278293 -0.00437375 0.00114509
C -4.19125616 17.41006042 18.52818782 0.00267202 0.00560245 -0.00148848
C -10.42244349 12.80810161 24.05851626 0.00501966 0.00294497 0.00367038
C -2.23556543 11.74788803 18.52447085 0.00288233 -0.00080691 -0.00141041
C 0.92317196 16.47766380 23.75399857 -0.00170473 0.00213111 0.00067653
C -5.79738697 17.33788497 23.77256048 0.00084171 -0.00515428 0.00145462
C -8.69384351 12.79514672 18.70957695 -0.00934198 -0.00245630 0.00257715
C -3.16712524 12.63886230 18.04113529 -0.00328977 0.00584451 -0.00385499
C -11.21546260 17.61935016 24.17125396 -0.00024405 -0.00000370 0.00229292
C -4.75762070 16.53607343 24.21704185 -0.00494895 0.00235946 -0.00117771
C 3.63896382 11.61214299 18.47984938 0.00372711 -0.00014856 0.00415615
C -7.03722136 14.92479704 21.90062558 0.00134018 -0.00481034 0.00935515
C -7.46485562 10.13212550 20.93273120 -0.00064488 0.00002059 0.00415398
C -0.83432445 14.27219440 20.79348589 -0.00072640 0.00120334 0.00226704
C -0.51137937 18.94862587 21.66720764 -0.00047562 -0.00324188 -0.00291281
C -8.12136932 15.94068388 21.69067576 0.00592612 -0.00032095 0.00502702
C -6.23635357 10.95565223 21.30212003 0.00149692 0.00083614 -0.00265078
C 0.31043022 13.36385061 20.94232306 0.00234423 -0.00044284 -0.00261407
C -1.68555691 18.11560560 21.35075739 -0.00071466 0.00218645 -0.00548283
C 3.27627078 23.15450556 5.29163535 0.00156881 0.00467662 0.00225759
C 0.65251796 27.89929312 1.06732182 0.00703263 0.00403231 0.00000272
C 7.06609827 25.34767901 1.05889792 -0.00176554 -0.00362540 0.00092730
C 9.72653450 20.57120469 5.10894547 0.00380544 0.00638311 -0.00163646
C 4.38992668 23.07440646 4.53462980 -0.00150072 -0.00515107 0.00132028
C 12.53466851 27.96180803 1.51898666 0.00087901 0.00383557 -0.00216278
C 5.86181459 25.47127528 1.78664206 -0.00035996 -0.00730811 -0.00237531
C -2.18604375 20.56528219 4.45268719 -0.00040201 -0.00394919 -0.00215113
C 5.37885939 22.19910150 4.90719899 -0.00065278 -0.00274839 -0.00078306
C 11.51151131 27.08542112 1.15412461 -0.00077298 -0.00832190 0.00816468
C 5.00076902 26.46575387 1.46434863 -0.00105174 -0.00418939 0.00069520
C -1.21690102 21.49874215 4.79233473 0.00490262 -0.00352925 0.00163760
C 5.23080125 21.38118339 6.07638901 0.00811070 -0.00226242 0.00275098
C 11.68982962 26.23024334 0.09339530 -0.00630047 0.00283640 -0.00082638
C 5.23164225 27.27945922 0.38246116 0.00516054 -0.00461835 0.00177320
C -1.39729374 22.35740470 5.92373078 0.00440193 0.00422814 -0.00283077
C 6.81849080 21.17856376 0.53976341 0.00205176 -0.00905290 0.00477924
C 9.77496947 26.37815520 5.51636020 -0.00727163 -0.00527906 -0.00363866
C 3.21611132 26.93748993 5.65321186 -0.00002724 -0.00439921 0.00025341
C 0.46155888 22.02734308 0.72370755 -0.00383031 -0.01424199 -0.00068793
C 5.93017361 22.14747043 0.06383405 0.00051262 0.00654447 -0.00485052
C -2.46527585 27.25320003 5.86535942 -0.00100943 0.00570132 0.00393940
C 4.15301612 26.08007485 6.10715133 -0.00663188 0.00347169 -0.01169086
C 12.30754508 21.10937950 0.13061820 0.00216521 -0.00598446 -0.00000238
C 2.07546146 24.49090019 3.71898798 -0.00222547 -0.00334029 0.00190512
C 1.72765401 19.74870553 2.50393863 0.00151523 0.00915702 -0.00025234
C 8.29930544 24.02113699 2.68476962 0.00300043 -0.00145816 -0.00220873
C 8.63483967 28.94959191 3.57769972 0.00674768 -0.00167455 -0.00245895
C 0.87546023 25.42456772 3.52756470 0.00139568 0.00635922 0.00104602
C 2.90396870 20.72147980 2.60801503 -0.00720665 -0.00607086 -0.00311663
C 9.60685755 23.19105984 2.89209458 -0.00365374 -0.00206850 0.00127326
C 7.53062341 27.90643872 3.34322577 -0.00236487 -0.00359065 0.00233480
C 0.23323469 22.96674059 11.21515625 0.00071359 -0.00450287 0.00672720
C -2.67047955 28.11595034 6.98725402 0.00844411 -0.00355291 -0.00868505
C 4.01934792 25.28670106 7.29012574 -0.00342937 -0.00831210 -0.00132002
C 6.74702388 20.51262731 11.26595538 0.00230085 0.00346463 0.00181682
C 1.45941857 22.98737455 10.61008278 0.00077569 -0.00399668 -0.00690352
C 9.42952687 27.94707464 7.82393812 0.00076285 -0.00188857 -0.00249112
C 2.81971788 25.32068085 7.94548591 -0.00330423 0.00099627 0.00587805
C 34.19859710 20.62996613 10.46411561 0.00600447 0.00482324 -0.00183071
C 2.43751608 22.10326574 10.90486018 0.00246354 0.00125067 -0.00075673
C 8.49551829 26.99112119 7.42243088 0.00496732 -0.00387663 0.00159672
C 1.85687791 26.19150143 7.53834839 -0.00797204 -0.00371281 0.00835028
C -4.35387915 21.39734967 10.91594290 0.00067899 -0.00380469 0.00055845
C 2.17555869 21.19227238 11.92466484 0.00069126 0.00099405 0.00011182
C 8.59766798 26.19541258 6.26756512 -0.00141328 -0.00954379 0.00041280
C 1.96135047 26.95823469 6.34743047 0.00319599 0.00638905 0.00177363
C -4.56245741 22.23641264 12.02917023 0.00288522 0.00354469 -0.00397327
C 4.04635337 21.48058281 6.75703807 -0.00261989 0.00111451 -0.00116049
C 6.70375843 26.60973077 11.54738584 -0.00503882 -0.00265776 -0.00523506
C 0.31365113 26.94910116 11.60376197 0.00080427 -0.00694691 0.00770166
C -2.59646277 22.39355189 6.65363864 -0.00255643 -0.01107007 -0.00203882
C 2.97539152 22.32911207 6.39811085 -0.00566254 -0.00608819 -0.00041094
C -5.26936618 27.32219157 12.20860013 0.00380999 0.00012780 -0.00117174
C 1.23349494 26.04724782 12.10444209 0.00092449 0.00256223 -0.00112495
C 9.51012937 21.43839410 6.19096604 0.00317308 0.00661365 -0.00106206
C -1.05683031 24.43483125 9.71590478 0.00783734 0.00213121 0.00044817
C -1.28354263 19.88113546 8.63041221 -0.00028840 -0.00213899 0.00381387
C 5.34375551 23.92313482 8.84760069 0.00216426 -0.00201240 -0.00543799
C 5.54883625 28.66116789 9.78818203 -0.00284071 -0.00380099 0.00163886
C -2.19502304 25.43348679 9.63147126 -0.00362395 -0.00213615 -0.00185312
C -0.14829329 20.79101298 8.66410255 -0.00643423 0.00373304 0.00411223
C 6.56976230 23.11527418 8.91383573 0.00562481 0.00345338 0.00126534
C 4.30677008 27.87705501 9.66649095 -0.00227478 -0.00368454 -0.00681132
C -2.79952096 23.12255139 17.27822200 0.00157933 0.01248123 -0.00474777
C -5.53896272 28.21330846 13.25530261 0.00589342 0.00332162 0.00197100
C 1.03630202 25.30823026 13.24029201 -0.00470271 0.00664509 0.00874632
C 3.72350964 20.35872739 17.28392664 0.00616652 0.00113354 0.00101427
C -1.57959410 23.04504507 16.64630326 -0.00469582 -0.00047175 -0.00663195
C 6.39630293 28.00699311 13.93453224 -0.00152767 0.00643932 0.00201263
C -0.13509388 25.49404539 13.95206422 -0.00205165 -0.00054149 -0.00512812
C 31.17191672 20.62323838 16.50754012 0.00774020 0.00150629 -0.00010209
C -0.57783622 22.18365048 17.04474693 0.00731954 0.00440020 -0.00143406
C 5.33440400 27.28050285 13.42578381 -0.00249427 -0.00540455 0.00006414
C -1.03148510 26.41696283 13.55588641 -0.00777509 0.00589177 0.00449934
C -7.31443675 21.45811066 16.90797623 -0.00273153 -0.00636418 0.00287390
C -0.89198214 21.31215478 18.10724602 0.00277663 0.00181147 0.00406296
C 5.56098600 26.45030447 12.36063998 0.01017872 0.00768427 0.00216562
C -0.85925165 27.16496358 12.40937311 0.00711461 -0.00792923 0.00989914
C -7.42387356 22.23833352 18.12288333 0.00119423 0.00306779 -0.01179818
C 0.99109802 21.24047078 12.66921166 -0.00380736 0.00003016 0.00194540
C 3.82126622 26.25934132 17.74817615 -0.00273549 -0.00112838 -0.00013901
C -2.97159862 26.93880749 17.73269059 0.00124034 -0.00048325 0.00215287
C -5.82744403 22.17399683 12.70304896 0.00422145 -0.00285555 0.00025115
C -0.01836233 22.12094707 12.28337086 0.00462673 -0.00045618 -0.00524932
C -8.55905914 27.16710279 18.38542836 -0.00343312 0.00164212 0.00368232
C -2.06452815 26.02598880 18.17445058 0.00270330 -0.00788805 -0.00493593
C 6.53151929 21.46657325 12.32298391 0.00822948 -0.00350878 0.00522669
C -4.00797355 24.42920383 15.67893701 0.00320732 0.00284676 0.00203014
C -4.49154790 19.77092634 14.94614344 -0.00284143 0.00140638 -0.00273185
C 2.28779447 23.87708053 14.84854840 -0.00651103 0.00269451 -0.00940395
C 2.47386684 28.91229726 15.62654747 0.00032040 -0.00173811 0.00408395
C -5.18736795 25.34565966 15.54447321 -0.00821494 -0.00012935 -0.00631264
C -3.41733288 20.77692336 14.98830370 0.00680774 -0.00627385 0.00237882
C 3.46428691 22.88630135 14.93986322 -0.00582692 0.00009326 0.00496226
C 1.23768817 28.14292120 15.36337569 -0.00307471 -0.00437827 0.00981257
C -5.72326976 22.97588186 23.37958318 0.00977871 0.00667564 -0.00279265
C -8.65279351 27.96463731 19.52653345 -0.00407347 -0.00143051 0.00603420
C -2.26108566 25.18658765 19.24621098 -0.00339409 0.00297273 0.00766690
C 0.59185417 20.31484498 23.37677332 -0.00084141 0.00335430 -0.00314210
C -4.45385093 22.93323790 22.85711914 0.00748537 0.00816844 0.00225370
C 3.42096113 27.96250400 19.89884043 0.00681872 0.00060242 -0.00461549
C -3.49931115 25.28178549 19.93582580 -0.00016941 -0.00101248 0.00048967
C -11.18249915 20.55560947 22.81789074 -0.00528258 -0.00129947 -0.00235975
C -3.51589107 22.01566881 23.37559148 -0.00061201 -0.00101777 0.00995463
C 2.47287066 27.00949639 19.57096273 0.00105686 0.01497439 0.00959201
C -4.40716263 26.24328178 19.57312468 0.00391480 -0.00017823 -0.00390082
C -10.12590058 21.37231218 23.25504086 -0.01188257 0.00133481 0.00043901
C 8.15952101 21.15288784 0.04012511 -0.00077231 0.00100805 0.00518595
C 2.64909715 26.13414415 18.49725377 -0.00485980 -0.00604653 0.00331959
C -4.17146234 27.05851140 18.46337115 -0.00437904 0.00461300 0.00211613
C 1.72557244 22.14960533 0.00783154 -0.00809318 0.00033478 -0.00587849
C -2.06700734 21.55033917 18.83645626 0.00152818 -0.00255762 0.00055892
C 0.91974969 26.26447449 23.84511720 -0.00355972 -0.00185925 -0.00105395
C -5.78671776 26.99471686 23.93931343 -0.00251392 -0.00594345 -0.00701985
C -8.66360788 22.20636465 18.81529112 -0.00522627 0.00660445 -0.00030618
C -3.05651091 22.35130292 18.40886056 -0.00255787 0.00157479 0.00259532
C -11.14706721 27.07174896 24.31879096 -0.00727909 0.00666753 -0.00051840
C -4.77097403 26.12383242 24.31266214 -0.00464133 -0.00358779 0.00492528
C 3.54607478 21.22193451 18.34189823 0.00113169 0.00256691 -0.00025727
C -6.86928063 24.47814937 21.79002455 -0.00514558 0.00445808 0.00033611
C -7.41120946 19.60647356 20.84110473 0.00007995 -0.00179783 0.00130771
C -0.99559289 23.82936451 20.86152609 0.00632376 0.00218453 -0.00270576
C -0.48873030 28.79500509 21.71498185 -0.00310700 0.00169953 0.00574388
C -8.14976174 25.23998763 21.66508969 -0.00326557 0.00393243 0.00301472
C -6.40796462 20.60713203 21.20796081 -0.00208029 0.00226680 -0.00474499
C 0.25768097 23.01230354 20.88651067 0.00119609 -0.00297629 0.00112648
C -1.65522413 27.88305080 21.70765327 -0.00470683 -0.00262447 0.00199110
C 16.36551845 3.70125647 5.12573545 0.00519801 0.00204138 0.00419789
C 13.62346403 8.43397360 0.86738884 0.00356207 0.00102942 0.00413059
C 20.14139134 5.82721011 0.99476981 0.00224233 -0.00406978 -0.00687608
C 22.88364821 1.02600293 5.36647355 0.00883455 0.00887312 0.00149518
C 17.59480813 3.67408535 4.48052400 -0.00214074 0.00034082 0.00484275
C 25.68997660 8.38439897 1.47000599 -0.00547937 -0.00077897 -0.00702958
C 18.90170766 5.85563422 1.67161308 0.00354569 -0.00459899 -0.00007430
C 11.08658786 1.36528362 4.39925496 0.00795022 0.00356660 0.00615346
C 18.57258006 2.86813205 4.98879559 -0.00592149 0.00431426 0.00150472
C 24.70179162 7.51125601 1.09847245 0.00039746 0.00351332 -0.00734917
C 17.87793374 6.63776987 1.27281882 0.00743032 0.00678496 -0.00744470
C 12.05305111 2.17832175 4.93308254 0.01003322 -0.00092597 -0.00391837
C 18.39093841 2.05380389 6.12144064 0.00447337 0.00030307 -0.00535379
C 24.86320909 6.59627613 0.03180905 -0.00607916 0.00887395 0.00074649
C 18.09262355 7.51414499 0.15822051 0.00069672 -0.00722789 0.00074022
C 11.90705537 2.99932342 6.13141940 -0.00839304 0.00188292 -0.00017067
C 20.28494637 1.91087634 0.58692867 -0.00377995 -0.00829164 -0.00540192
C 22.81911820 6.48507967 5.77282494 -0.00096398 0.01040413 -0.00081780
C 16.26605169 7.49442047 5.48356911 -0.00086909 0.00188175 -0.00838266
C 13.66058003 2.83537420 0.44781202 -0.00043691 0.00597835 -0.00014525
C 19.22301255 2.65754532 0.15074870 0.00244006 0.00973691 0.00265904
C 10.83605924 7.37272973 5.92415301 -0.00331970 -0.00107856 0.00255163
C 17.21152136 6.58504796 5.88732365 -0.00408538 -0.00400099 -0.00237446
C 25.80554792 1.97899502 0.40681354 -0.00174127 -0.00537106 -0.00122920
C 15.16600970 5.03103340 3.48209968 -0.00200104 0.00598638 -0.00082685
C 14.73386994 0.48648834 2.46069181 0.00569670 -0.00146522 0.00536260
C 21.24265806 4.36800473 2.49948146 0.00128570 -0.00378960 0.00189608
C 21.85370174 9.31828316 3.43078263 0.00736010 -0.00119580 -0.00251041
C 14.06430865 6.01375459 3.19171931 -0.00101624 0.00081015 -0.00545411
C 16.03338577 1.28111977 2.56452934 0.00535862 -0.00777457 -0.00675179
C 22.37315957 3.43661083 2.59387070 -0.00731438 0.00108798 0.00025068