2880
Time=39000.00000002 pbc="T T T" Lattice="39.64405308 0.00000000 0.00000000 0.00000000 29.12617863 0.00000000 -12.00044353 0.00000000 24.29002716" energy=-18396.45414484 virial="-9.29923936 -0.50660146 -32.01121941 -0.50660146 1.79590721 41.50423523 -32.01121941 41.50423523 18.61094878" stress="0.00220333 -0.00009702 -0.00111166 -0.00009702 0.00260101 0.00159768 -0.00111166 0.00159768 0.00310757" Properties=species:S:1:pos:R:3:vel:R:3
C 3.35094220 3.64530246 4.98714282 -0.00710982 0.00003858 -0.00031667
C 0.26218615 8.59346462 0.69498162 -0.00169771 -0.00782884 -0.00019486
C 6.99466606 5.99573828 0.83022517 -0.00160566 0.00411223 -0.00070960
C 9.89077902 0.99904715 5.07267291 -0.00531134 0.00536995 0.00188803
C 4.51834763 3.48201271 4.26492723 -0.00281274 -0.00502782 0.00170112
C 12.41644559 8.46355095 1.57749060 -0.00607283 -0.00036007 -0.00050409
C 5.75573375 5.99805080 1.50067469 0.00138297 0.00375824 -0.00027607
C -2.06789532 1.53511723 4.26444993 0.00070598 0.00360024 0.00145972
C 5.48171435 2.64740422 4.73178627 0.00090904 0.00043019 0.00547896
C 11.42167613 7.53181662 1.25252043 -0.00399362 0.00059453 -0.00223035
C 4.67641534 6.72970870 1.01298313 -0.00879046 -0.00599990 0.00535228
C -1.11837191 2.48708505 4.61075543 -0.00155892 -0.00861569 -0.00706929
C 5.31144964 1.90821568 5.93831648 -0.00366140 0.00122267 0.00274247
C 11.62747585 6.73321073 0.16791733 0.00897789 0.00031381 -0.00863794
C -7.20055537 7.59194144 24.22399830 0.00179593 0.00415426 0.00634130
C -1.28483131 3.28950436 5.79805275 0.00010951 0.00478780 0.00002433
C 7.01449899 2.09205306 0.49762883 -0.00307498 0.00142132 -0.00327638
C 9.72502426 6.94781296 5.38733626 0.00385165 -0.00649297 -0.00756269
C 3.19862030 7.70965623 5.37838392 -0.00072678 0.00055768 0.00743175
C 0.26467775 3.09663551 0.33009938 -0.00362695 0.00094573 0.00084810
C -5.99424392 2.87157739 24.24751053 0.00039768 -0.00151405 0.00155980
C -2.25147811 7.98516595 5.88992757 0.00419251 0.00345528 0.00563889
C 4.15645444 6.92340414 5.92679507 -0.00209653 0.00329919 0.00304849
C 12.43180511 1.95695721 0.05705272 -0.00593951 0.00230522 -0.00784310
C 2.22202489 5.05096626 3.36486409 0.00628564 -0.00283052 -0.01141645
C 1.65376393 0.29147659 2.30592525 -0.00341069 0.00264273 -0.00978269
C 8.20610854 4.63020554 2.41941974 0.00208614 -0.00173578 -0.00216976
C 8.60553212 9.32102384 3.55817720 0.00490274 0.00474088 0.00060539
C 1.04012450 5.99965484 3.26376639 0.00168176 -0.00503300 0.00119976
C 2.83240423 1.21868470 2.39053826 0.00376416 -0.00003987 -0.00258004
C 9.36526535 3.72733585 2.66303620 0.00924725 0.00101896 0.00207234
C 7.33747989 8.67136126 3.21570768 0.00153664 0.00509311 0.00596841
C 0.05293779 3.85658380 10.99895245 -0.01226970 0.00380147 0.00602049
C -2.34155138 8.80858742 7.02961764 -0.00328561 -0.00438372 0.00179259
C 3.99905287 6.16195809 7.05672294 0.00171391 -0.00079778 0.00122994
C 6.67810896 1.23149678 11.02588559 0.00174253 -0.00143546 -0.00077445
C 1.27590322 3.64823716 10.24271576 0.00178685 0.01007320 0.00163221
C 9.38001644 8.55451693 7.54211760 -0.00520322 -0.00244617 -0.00514134
C 2.75406647 6.25230865 7.71131638 0.00174423 -0.00944562 -0.00950257
C -5.04929884 1.13146451 10.62199397 0.00535771 -0.00554584 0.00005231
C 2.10620352 2.61402522 10.61607504 -0.00834008 0.00199790 -0.00728291
C 8.43601128 7.65254433 7.21450355 -0.00140443 -0.00126202 -0.00094693
C 1.80677141 7.14199244 7.26065849 0.00371049 -0.00285898 0.00444840
C -4.03610462 2.06007914 10.99973596 -0.00021481 0.00282280 0.00919604
C 1.91510443 1.86482060 11.77239932 0.00276817 0.00131804 0.00417052
C 8.52983862 6.83077656 6.04054831 0.00588782 0.00353922 0.00385887
C 2.00123815 7.86246044 6.07806764 -0.00014356 0.00098184 0.00284733
C -4.19138008 2.92005840 12.07652639 -0.00123284 -0.00325918 0.00724058
C 4.16422721 2.11127487 6.74161656 0.00179337 0.00244565 -0.00019446
C 6.81435899 6.84297256 11.64597674 -0.00010968 0.00065448 0.01300277
C 0.19082279 7.51948767 11.54989800 -0.00537570 0.00194114 -0.00154452
C -2.37289426 2.99705934 6.56734001 -0.00440267 0.00584060 -0.00200267
C 3.16692705 2.91987360 6.23627605 -0.00325934 0.00427102 0.00086618
C -5.48755351 7.72741441 11.88923017 -0.00476881 0.00191316 0.00808715
C 1.22668413 6.77728946 12.07869115 0.00771968 0.00168083 -0.00110379
C 9.67068300 1.84032755 6.20553380 0.00015238 0.00121439 -0.00010041
C -0.94522102 5.31492044 9.46589452 0.00142143 0.00114877 0.00143709
C -1.33049343 0.38500616 8.55919109 -0.00262459 0.00304430 0.00150475
C 5.35672362 4.90273296 8.69522780 0.00274765 -0.00826597 0.00539311
C 5.61900991 9.60560625 9.66718050 -0.00182754 0.00474086 -0.00751581
C -2.02173264 6.30605871 9.26254697 0.00196730 -0.01105206 -0.00026832
C -0.03366992 1.11992711 8.66085809 -0.00959809 -0.00206506 -0.00412483
C 6.50697663 3.91129205 8.80727809 0.00000612 -0.00075358 0.00143379
C 4.49536109 8.66803534 9.50294253 -0.00000916 0.00183208 -0.00352489
C -2.89815834 3.67265560 17.10904348 0.00178391 -0.00319537 0.00353453
C -5.78860732 8.62528440 13.00781313 -0.00088667 -0.00322609 -0.00322306
C 0.98260811 5.92772390 13.15689305 -0.00430440 -0.00228277 -0.00318020
C 3.83502355 1.12778606 17.19478154 0.00482373 -0.00403536 -0.00844951
C -1.73677445 3.61167675 16.39304844 -0.00096291 0.00409848 0.00115481
C 6.44796513 8.41992861 13.89908791 -0.00266620 0.00127570 0.00337471
C -0.23540476 6.07394234 13.77598698 -0.00416961 0.00280117 -0.00213859
C 30.94500528 1.18555207 16.24519010 -0.00315722 -0.00931752 0.00457439
C -0.85300030 2.63093670 16.74356927 0.00725837 0.00178984 0.00185654
C 5.57008600 7.36987412 13.56807482 0.00509062 -0.00564927 -0.00152578
C -1.14674569 7.10353340 13.48571668 0.00070215 -0.00289843 -0.00056661
C -7.61337100 2.04936429 16.44659492 0.00842732 -0.00166476 -0.00425878
C -0.94019631 1.93918845 17.94942981 -0.00610422 -0.00199934 -0.00521305
C 5.75912428 6.47860491 12.48163570 -0.00040196 -0.00068442 -0.00028797
C -1.01773710 7.76338670 12.31178071 0.00053434 -0.00839770 -0.00698786
C -7.49517939 2.69963249 17.66989995 -0.01082686 0.01171773 -0.00222186
C 0.77409752 2.16234609 12.52542168 0.00112626 -0.00315764 -0.00063006
C 3.86992870 6.74830317 17.65714762 -0.00310719 0.00238873 -0.00916919
C -2.95949654 7.74359472 17.64743873 0.00098238 0.00110002 0.00544666
C -5.29110153 2.71184684 12.87346808 -0.00039787 0.00071075 0.00403567
C -0.14589875 3.09123658 12.13381679 -0.00203048 -0.00079515 0.00148749
C -8.31656125 7.73109323 18.08495531 0.00319314 0.00371298 -0.00187791
C -1.90014273 6.93082448 18.01446268 -0.00264395 -0.00657029 -0.00298591
C 6.42411755 2.16574837 12.02011782 0.00125626 0.00761076 0.00630089
C -3.97516181 5.17211403 15.56330900 0.00520762 0.00087114 0.00209391
C -4.56250256 29.11620109 14.99254135 -0.00131224 0.00064332 -0.00459306
C 2.14546029 4.45157221 14.70284407 0.00103649 -0.00148552 0.00199849
C 2.78784540 9.27627536 15.64777840 0.00332543 -0.00573328 -0.01199520
C -5.22856419 5.96903999 15.25787605 -0.00098962 -0.00190312 0.00202676
C -3.44025907 0.90641574 15.30416967 -0.00785748 -0.00130183 0.00604582
C 3.51648212 3.95089800 14.90200410 0.00158630 -0.00038246 -0.00243839
C 1.66269051 8.28168744 15.28371254 -0.00022287 -0.00219389 0.00270019
C -5.67236375 3.62498367 23.10861737 -0.00174310 -0.00190340 -0.00152506
C -8.61387078 8.60194347 19.14374487 0.00646887 -0.00346100 -0.00093139
C -2.02656910 6.04140874 19.09934653 -0.00234991 0.00848510 -0.00120626
C 0.67432413 1.08874889 23.25901977 0.00529612 0.00498999 0.00184514
C -4.44651294 3.40645813 22.44884573 -0.00165848 0.00134696 -0.00196809
C 3.44265596 8.40382959 19.91534418 -0.00170535 0.00553604 0.00103097
C -3.22385480 6.09844222 19.87254164 0.00101757 0.00189495 -0.00342924
C 28.37998459 1.38834315 22.49191895 -0.00129048 -0.00388118 -0.00106190
C -3.45619168 2.67570815 23.00500016 0.00078061 -0.00255432 -0.00167869
C 2.42400262 7.59684719 19.40146714 0.00543371 0.00187655 0.00216283
C -4.28535729 6.90825539 19.50919641 0.00087881 -0.00366199 -0.00315995
C -10.45578907 2.48747626 22.71269698 -0.00837515 0.00498665 0.00411930
C -3.69407963 2.00341360 24.23439044 0.00049537 -0.00084573 0.00216062
C 2.57884427 6.79136682 18.27944801 -0.00561352 -0.00172918 0.00318475
C -4.18146680 7.74930974 18.38351402 0.00292901 0.00591092 -0.00458565
C -10.57545337 3.21901921 23.89934116 0.00129274 -0.00135547 0.00847648
C -2.11597254 2.08683708 18.69409231 0.00355852 -0.00310060 -0.00445617
C 0.93657815 6.74723477 23.85980151 0.00112642 0.00157917 -0.00191116
C -5.88619834 7.72945779 23.67551836 -0.00084312 0.00201912 -0.00388001
C -8.56117954 2.69350367 18.60953000 -0.00022116 -0.00324019 -0.00035809
C -3.17581114 2.85474421 18.19283425 0.00061474 -0.00036495 -0.00128629
C -11.55349453 7.67919858 23.92279391 -0.00932292 0.00132120 -0.00755811
C -4.83399604 6.93700567 24.05600967 -0.00306027 -0.00620261 -0.00645532
C 3.59874606 1.91945311 18.29701964 0.00153835 0.00050723 0.00287218
C -6.90915102 4.83267877 21.28268966 0.00170627 0.00397321 -0.00872633
C -7.43634052 0.31950808 20.55513598 0.00603518 -0.00173239 -0.00330891
C -0.81870060 4.57130981 20.62375628 -0.00026002 0.00035909 -0.00105899
C -0.40327649 9.27320096 21.81039983 0.00330854 0.00099311 0.00062958
C -8.09594486 5.76505680 20.98908728 -0.00494280 0.00154138 0.00520099
C -6.05100107 0.91825466 20.71396616 -0.00616875 0.00117984 -0.00021965
C 0.24872805 3.55212633 20.78036943 -0.00517542 -0.00302739 -0.00041597
C -1.63286653 8.43360036 21.50189272 -0.00201609 0.00142924 -0.00090616
C 3.21249646 13.34640215 5.03291670 0.00064694 -0.00500311 -0.00420588
C 0.50468099 18.17541284 1.16473415 -0.00724660 0.00500772 -0.00388367
C 7.17504793 15.40943982 0.91881586 -0.00244173 0.00433393 0.00208968
C 9.78036911 10.84239536 5.21922972 -0.00802503 -0.00243226 0.00142965
C 4.36270960 13.03872625 4.19651394 0.00030833 0.00129871 0.00158005
C 12.21729734 17.97926053 1.52426317 -0.00832206 0.00017427 0.00611275
C 5.92963811 15.47047512 1.59704122 -0.00309410 0.00543552 0.00217272
C 37.45260739 11.05762450 4.23041563 0.00761978 -0.00994897 -0.00717459
C 5.23213106 12.10398719 4.61065093 0.00403569 0.00223182 -0.00325967
C 11.28921321 17.05169315 1.10565170 0.00450362 0.00249807 -0.00184640
C 4.85822507 16.22476157 1.12725597 0.00382810 -0.00134161 0.00302828
C -1.19180203 11.96484988 4.64990655 0.00233202 0.00428516 0.00400074
C 5.17862964 11.45570359 5.81468308 -0.00481437 0.00953704 -0.00079781
C -0.48700724 16.32152793 24.26171791 -0.00375395 -0.00164654 0.00031733
C 5.10983633 17.21587881 0.16530586 -0.00028683 0.00372814 -0.00014432
C -1.58108724 12.84816705 5.67522182 -0.00266145 0.00583907 0.00105027
C 6.94006244 11.66536915 0.46254040 -0.00167296 -0.00635556 -0.00176597
C 9.85576612 16.27088835 5.69473865 0.00052037 -0.00520128 0.00043305
C 3.22406066 17.39545592 5.37427586 0.00031149 0.00231343 -0.00032364
C 0.38715720 12.69567969 0.36445007 0.00189166 -0.00744716 0.00394914
C -5.96550299 12.51651660 24.18818498 -0.00502625 0.00122265 0.00071896
C -2.36996168 17.75995063 5.84525554 -0.00112425 0.00312743 0.00133722
C 4.28392025 16.53025582 5.84897904 0.00174000 -0.00355406 -0.00029598
C 12.39240326 11.45706494 0.21202255 -0.00498930 -0.00126208 -0.00187336
C 2.06864694 14.85892500 3.57253533 -0.00112080 -0.00184108 -0.00078149
C 1.51572271 9.90109723 2.25412313 0.00235064 0.00876845 0.00162199
C 8.28650557 14.24112262 2.58836554 -0.00055666 0.00585319 0.00717727
C 8.37941340 19.00858451 3.45823003 -0.00106283 -0.00103761 0.00107258
C 0.81346483 15.67483704 3.42942214 -0.00230211 0.00556585 -0.00043846
C 2.78117956 10.69988303 2.51544612 -0.00041365 -0.00036133 0.00000775
C 9.37026400 13.41124201 2.78202400 -0.00633042 -0.00120480 -0.00324260
C 6.98511638 18.31019894 3.31444728 -0.01212438 0.00628278 -0.00080660
C 0.17871752 13.60360348 11.21746907 0.00757922 0.00309896 0.00919246
C -2.59152879 18.44422752 7.01424237 0.00073161 0.00526578 0.00212820
C 4.04458718 15.76866254 6.97400742 -0.00629669 0.00370934 0.00172233
C 6.89442098 11.03944971 11.13681235 0.00364238 -0.00220064 0.00195503
C 1.43970279 13.50835597 10.55237360 0.00008083 -0.00166435 -0.00450222
C 9.39213661 18.02514209 7.81849423 0.00175484 0.00761564 0.00172743
C 2.87195030 15.88627406 7.71305357 -0.00207333 -0.00642571 -0.00067888
C 34.41342846 11.06322203 10.18713174 -0.00048108 0.00100636 0.00374450
C 2.31784778 12.46919154 10.97175755 0.00572934 0.00293239 0.00420434
C 8.41824578 17.13421350 7.44593354 0.00241431 -0.00163333 0.00048834
C 1.92349689 16.81450291 7.34402827 0.00113092 -0.00594784 0.00256588
C -4.28783672 11.95977170 10.63842804 0.00023293 -0.00151812 -0.00602455
C 1.95622401 11.62127895 12.06090676 0.00311816 -0.00364821 -0.00046550
C 8.66630195 16.24228817 6.40256319 -0.00119025 0.00573640 -0.00530294
C 2.12050693 17.62907437 6.19395823 0.00142644 -0.00419593 0.00258164
C -4.41066706 12.59286468 11.89596791 -0.00564869 -0.00394823 -0.00148066
C 4.04322823 11.69323369 6.59170042 -0.00121615 0.00120156 0.00523891
C 6.95797705 16.54115468 11.52864199 0.00305408 -0.00635263 -0.00112378
C 0.16441188 17.33183915 11.75446547 0.00917196 -0.00566659 -0.00493780
C -2.72492323 12.65697310 6.44762403 -0.00075875 0.00448793 -0.00615877
C 3.04087562 12.55372294 6.21146938 -0.00000924 0.00103896 -0.00089564
C -5.21796915 17.27553638 12.29893397 -0.00144350 0.00139859 -0.00167452
C 1.19664571 16.53816075 12.20739880 -0.00723471 0.00242140 -0.00244200
C 9.55723831 11.47809011 6.42152422 -0.00065917 0.00354242 0.00085488
C -0.94585473 14.99536086 9.62551241 -0.00219806 0.00663138 -0.00015984
C -1.10749852 10.32716517 8.60606187 0.00517367 -0.00193706 0.00612283
C 5.16293679 14.28961568 8.53106042 -0.00574816 -0.00228249 -0.00355860
C 5.44817934 19.10683050 9.66767217 -0.00006713 0.00562972 -0.01156466
C -2.06980670 15.98104426 9.30504883 0.00593082 -0.00237441 0.00082912
C 0.08174419 11.31658352 8.80117127 0.00310867 0.00213057 -0.00224653
C 6.33456144 13.43716728 8.67660446 -0.00124766 -0.00844665 -0.00622930
C 4.23511088 18.18710342 9.50799212 0.00117719 -0.00353619 0.01234534
C -2.66868901 13.28454966 17.31843387 -0.00300081 0.00197572 -0.00487861
C -5.54128785 18.21292386 13.26183947 -0.00390850 0.00136511 -0.00056985
C 0.98578109 15.60622672 13.26720437 0.00298873 -0.00227616 0.00216433
C 3.92598696 10.63107754 17.29250759 -0.00195646 -0.00119247 -0.00986260
C -1.45840343 13.12353824 16.63334965 -0.00975417 0.00018472 -0.00089345
C 6.41000681 18.06432176 13.84052985 -0.00002751 0.00555072 -0.00073885
C -0.25526298 15.57500808 13.85900941 -0.00074353 -0.00574214 -0.00101180
C -8.09291075 10.81179041 16.56642023 0.00404206 -0.00014916 0.00728107
C -0.43783573 12.33437492 17.06404122 -0.00322318 -0.00480262 -0.00369320
C 5.52795364 17.11671663 13.46531860 0.00127821 -0.00072432 -0.00024795
C -1.27116917 16.45672010 13.55317484 0.00538404 0.00106664 -0.00172500
C -7.20667333 11.72308127 17.02416410 -0.00495700 -0.00049347 0.00286172
C -0.59223966 11.52922474 18.15396385 0.00357352 -0.00036517 -0.00236507
C 5.77484645 16.33211576 12.29217136 0.00802575 -0.00065945 -0.01023248
C -1.10124976 17.39434583 12.44272751 0.00460761 -0.00203673 -0.00177874
C -7.52401409 12.68839046 18.03418775 0.00373976 0.00187394 0.00450265
C 0.78450614 11.79247049 12.80892628 0.00041380 -0.00771165 -0.00046930
C 3.77947559 16.59975826 17.62344039 0.00620094 0.00442659 -0.00009236
C -2.67586607 17.34013523 17.81383806 -0.00032189 0.00869452 -0.00027270
C -5.61999359 12.43439474 12.57965127 0.00217965 0.00481550 0.00686490
C -0.08805362 12.74371911 12.33144133 0.00406320 -0.00028128 -0.00051679
C -8.41243953 17.35004038 18.08041876 0.00501847 -0.00417668 0.00081168
C -1.63287152 16.48955047 18.10415636 0.00167254 -0.01105917 -0.00373925
C 6.73945140 11.84926494 12.24961131 0.00701343 0.00399090 -0.00655631
C -4.00842615 14.69383262 15.75697070 -0.00076883 0.00592289 0.00152086
C -4.43315056 9.82208861 14.65066810 0.00918927 -0.00416187 -0.00067656
C 2.14706164 14.10174828 14.78693533 0.00930719 -0.00031078 0.00070081
C 2.71618849 19.00605568 15.72539465 -0.00133693 0.00285857 -0.00300413
C -5.31795382 15.51865386 15.62695417 0.00388963 -0.00445181 -0.00905871
C -3.11128744 10.60052719 14.58740395 0.00346652 -0.00453224 -0.00439006
C 3.39423070 13.47301198 15.08616899 -0.00050242 0.00309258 -0.00850308
C 1.59753825 18.03487714 15.61327984 0.00015038 -0.00151158 -0.00345861
C -5.59471848 13.34294429 23.15532270 0.00299781 0.00139519 0.00202912
C -8.62599224 18.17683979 19.20298804 0.00526707 0.00006963 -0.00589962
C -1.79240229 15.59714484 19.18470243 0.00121353 -0.00349713 -0.00262962
C 0.73308917 10.70545327 23.40131005 0.00666434 -0.01419104 -0.00153527
C -4.38639890 13.19610511 22.49890585 -0.00184364 -0.00542791 -0.00296195
C 3.29376971 18.03544301 19.93735987 -0.00168077 -0.00028963 0.00004552
C -2.98932678 15.75638820 19.91569949 0.00615252 0.01031421 -0.00436217
C -11.06767381 11.03124545 22.58692856 -0.00474655 -0.00514106 0.00113496
C -3.50139996 12.29130368 23.08749232 0.00291545 -0.00688333 -0.00288013
C 2.29344125 17.27316426 19.36043980 0.00071944 -0.00589377 0.00111371
C -3.99486455 16.65624610 19.64997676 0.00269750 0.01321667 -0.00308858
C -10.02188597 11.75117146 23.13143506 0.00088553 0.00519603 -0.00070249
C -3.76090270 11.58105054 24.27524774 -0.00247969 -0.00968597 0.00030878
C 2.54414772 16.49516161 18.22678979 0.00372398 0.00633779 0.00136280
C -3.84563040 17.57013145 18.54380023 0.00293107 0.00114449 0.01252767
C -10.28256293 12.62776230 24.18058678 -0.00046943 0.00417416 0.00858685
C -1.81665822 11.61771220 18.86864638 0.00269806 -0.00325901 -0.00409886
C 0.72038018 16.48260440 23.53295225 0.00783939 0.00246957 -0.00085343
C -5.62643696 17.11864074 23.73716740 0.01080986 0.00252406 0.00210164
C -8.77162894 12.57687367 18.73060268 0.00007054 0.00150887 0.00139296
C -2.84511072 12.36511986 18.37182325 -0.00095395 -0.00569293 0.00371935
C 0.70242012 17.31481733 0.11332871 0.00198715 0.00422288 0.00001697
C -4.65589975 16.22438399 24.08882679 0.00387350 0.00166306 -0.00749977
C 3.69363117 11.41711683 18.38395484 0.01177417 -0.00451429 0.00289429
C -6.85495341 14.74987332 21.52373581 0.00064244 0.00625381 -0.00678377
C -7.59598840 10.20870020 20.68065546 0.00369857 -0.00565568 -0.00359819
C -0.66180414 14.08232100 20.64860135 0.00548976 -0.00620646 -0.00179442
C -0.42242204 19.05955417 21.64323293 -0.00236418 -0.00067974 0.00371483
C -8.19267874 15.46044905 21.42477896 -0.00274349 -0.00319251 0.00338729
C -6.48503915 11.19291588 20.89453962 0.00308325 0.00694447 0.00123671
C 0.69339081 13.36424487 20.90626537 0.00889990 0.00046054 0.00064293
C -1.55292654 18.11749782 21.44876559 0.00111564 -0.00108185 0.00040882
C 3.12278515 23.29968000 4.91608869 0.00009668 -0.00085124 0.00104513
C 0.35643231 28.16654481 0.73514624 0.00163403 0.00499606 0.00492301
C 7.01200837 25.39963797 0.83847465 0.00259495 -0.00827430 0.00573478
C 9.71769628 20.15639398 5.12209200 0.00166485 -0.00438656 -0.00090955
C 4.40351551 23.40544213 4.43943419 -0.00378039 0.00040620 0.00248180
C 12.55521817 27.76282946 1.74588675 -0.00138482 0.00845822 0.00056992
C 5.80817317 25.59666914 1.49524484 -0.00945863 0.00606599 0.00572954
C 37.20051217 20.75927489 4.36035459 -0.00092006 -0.00027101 0.00576134
C 5.38405495 22.48984219 4.84782304 -0.00383748 -0.00626999 0.00152405
C 11.67619202 26.76300224 1.40586439 -0.00090042 -0.00606423 -0.00158064
C 4.85293083 26.47412277 1.05356248 -0.00188705 -0.00259652 -0.00204936
C -1.48427180 21.68739033 4.71023651 0.00871742 0.00300047 0.00392797
C 5.16690215 21.65717980 6.00499394 -0.00349607 -0.00109527 -0.00691059
C 11.81643725 26.03572742 0.21271865 0.00331503 -0.00820952 -0.00100378
C -7.00961511 27.20706178 24.11410162 0.00151317 -0.01137500 -0.00525659
C -1.59681072 22.38510770 5.92781585 0.00206850 0.00036583 -0.00114555
C 7.13833620 21.45570466 0.66910048 0.00559022 0.00386099 -0.00008642
C 9.94162601 26.19378494 5.66299318 0.00481692 0.00504838 -0.00012217
C 3.20850755 27.04367400 5.47568998 0.00464824 -0.00053360 0.00264457
C 0.67951479 22.15058154 0.76696765 0.00160491 0.00488676 0.00683659
C 6.12254216 22.31210040 0.36384555 -0.00687401 -0.00050717 -0.00609080
C -2.29919422 27.34643570 5.85831414 0.00163046 0.00600327 -0.00201691
C 4.17432933 26.15695160 5.88193050 -0.00170540 0.00953252 0.00621653
C 12.63117586 21.21762492 0.02196986 0.00047330 0.00064928 0.00118073
C 2.05772166 24.82976128 3.41905052 0.00858589 0.00485283 0.00772239
C 1.65855621 19.64588396 2.70479418 0.00183951 -0.00346953 0.00026616
C 8.17138559 24.05281441 2.47192788 -0.01195094 0.00206849 -0.00204393
C 8.78532666 28.57175303 3.58526162 0.00338137 0.00049349 0.00058257
C 0.96599259 25.86488062 3.10664402 -0.00572588 -0.00075207 0.00154453
C 2.86980816 20.42001989 3.08021398 -0.00245349 0.00583791 0.00285583
C 9.35704273 23.11427374 2.66745250 0.00002041 0.00478411 -0.00191591
C 7.54824884 27.74521601 3.47470702 -0.00469185 0.00720097 0.00468676
C 0.16490362 23.10204439 11.28632445 0.00314402 0.00465351 -0.00374224
C -2.51581723 28.15497786 7.01724524 0.00383548 -0.00731661 -0.00127404
C 3.93169576 25.35531174 7.02330515 -0.00582544 0.00402717 0.00706969
C 6.68349284 20.44372008 11.23667219 -0.00271508 0.00349865 -0.00497004
C 1.39189440 22.91071634 10.54175115 -0.00267613 0.00489316 0.00454365
C 9.44587255 27.66956968 7.88235278 -0.00313416 0.00271610 0.00060654
C 2.67059727 25.38667515 7.69451179 -0.00033916 0.00089325 -0.00019598
C -4.78816853 20.72393418 10.47318387 0.00066235 0.00104863 -0.00604035
C 2.24574654 21.91453565 10.87695454 0.00131622 0.00493043 -0.00224908
C 8.50352743 26.79360664 7.42377373 -0.00462686 0.00107069 -0.00203476
C 1.70307085 26.20569841 7.16033594 0.00239303 -0.00053731 -0.00723600
C -4.03714687 21.78010713 10.85903742 0.00099952 -0.00331839 0.00132738
C 1.99971646 20.99888310 11.93985962 -0.00043072 -0.00106520 0.00151219
C 8.71814605 25.94898537 6.34266313 -0.00145004 0.00656779 -0.00036746
C 1.91464489 27.07086830 6.08855229 -0.00301095 -0.00496260 0.00014577
C -4.33770417 22.57913000 12.04848196 0.00232039 -0.00236211 -0.00312372
C 3.93342335 21.66162750 6.57539612 -0.00321686 0.00500061 -0.00428489
C 6.99570146 26.23722345 11.62355510 -0.00611731 0.00338242 0.00095214
C 0.19965609 27.14595339 11.68047354 0.00196307 -0.00120270 0.00174916
C -2.78189679 22.24677356 6.59383165 0.00200257 0.00062665 0.00479953
C 2.95467003 22.42538655 5.99247745 0.00277678 0.00506961 0.00125011
C -5.45125980 27.05129410 12.08972365 -0.00151111 -0.00086368 0.00194843
C 1.19289088 26.25790749 12.12234073 0.00662855 0.00014852 0.01079067
C 9.47168011 20.99859242 6.22799190 -0.00108097 0.00179579 -0.00294659
C -1.09065996 24.51946139 9.72375345 0.00486494 -0.01002283 -0.00313789
C -1.37876429 19.64301051 8.72577775 0.00843792 -0.00386512 -0.00425347
C 5.08838554 23.98033201 8.63785013 0.00321427 0.00359385 0.00145101
C 5.71338345 28.74632546 9.47159668 0.00051775 0.00149496 0.00587327
C -2.31131928 25.45644155 9.53167574 0.00071637 -0.00231064 0.00178885
C -0.26391065 20.66216232 8.99688831 0.00224034 -0.01115402 0.00407676
C 6.21078026 22.95532907 8.89079199 -0.00411414 -0.00057907 -0.00394784
C 4.57060293 27.91921163 9.13416129 0.00009747 -0.00003679 -0.00486909
C -2.71117887 23.02725892 17.25612883 0.00355527 0.00310312 0.00359654
C -5.60021318 27.74575495 13.33125043 0.00028777 -0.00002033 0.00658891
C 1.05555961 25.51481609 13.26875961 0.00648609 0.00297089 -0.00281360
C 3.81298647 20.53351514 17.21166442 0.00239766 0.00472502 0.00137894
C -1.40702122 23.06247480 16.59610554 0.00166839 -0.00512753 -0.00591952
C 6.30703797 28.06504191 13.64853184 0.00106542 0.00150823 0.00305779
C -0.18036372 25.62726881 14.01251171 -0.00019694 -0.00189379 -0.00489643
C 31.22798584 20.50990761 16.52235602 0.00348596 0.00342063 0.00477848
C -0.37943590 22.28653616 17.14179358 0.00273123 -0.00077107 0.00553634
C 5.51796841 26.99994756 13.37263534 -0.00136664 0.00137667 0.00052215
C -1.16573035 26.46918760 13.48800432 -0.01226052 -0.00217997 -0.00320025
C -7.42736713 21.40449950 16.93560200 -0.00079612 0.00603743 -0.00824190
C -0.63519023 21.38556570 18.22390990 0.00287496 0.00268356 0.00498957
C 5.75142448 26.09458047 12.30846574 -0.00070802 0.00491389 0.00070856
C -0.95943339 27.31689696 12.38138076 0.00205989 0.00196114 -0.00110317
C -7.47554012 22.14254175 18.16022236 -0.00433903 0.00126523 -0.00465187
C 0.86303609 21.27433136 12.72828485 -0.00137385 -0.00249657 -0.00035883
C 3.82056238 26.33659669 17.69258240 0.00850810 -0.00942512 -0.00199429
C -2.78832496 26.84814866 17.69771125 0.00536177 -0.00470855 -0.00191606
C -5.57784111 22.32843302 12.71079269 0.00506242 0.00750785 0.00005414
C 0.06292798 22.35371397 12.45168528 0.00393051 -0.00453134 -0.00437505
C -8.64942551 27.11428868 17.97874960 0.00508839 -0.00078184 0.00456322
C -1.83107699 25.97780474 18.21090759 0.00093687 0.00542903 -0.00125579
C 6.48131143 21.28002126 12.34013409 0.00352229 0.00095357 -0.00204953
C -3.89118230 24.36888940 15.64561246 -0.00023651 -0.00362037 0.00919152
C -4.50025856 19.75363416 14.80343053 -0.00525127 0.00323158 -0.00323436
C 2.17477854 24.09433750 14.89383228 -0.00195889 -0.00464112 0.00191284
C 2.71412618 28.97449620 15.60315233 -0.00118190 -0.00243774 0.00053148
C -5.09885852 25.21787663 15.53929814 0.00006759 -0.00364600 -0.00748685
C -3.32022917 20.79325455 14.98271923 -0.00006227 0.00375653 0.00271178
C 3.34284960 23.14112719 15.13711583 -0.00370815 -0.00261509 -0.00393800
C 1.78255933 27.90672270 15.35012535 0.00315876 0.00512719 0.00305878
C -5.83313856 23.01543793 23.39439781 0.00086808 -0.00053450 -0.00674550
C -8.74482932 27.97757275 19.01891343 0.00096302 -0.00146729 -0.00360774
C -1.99977832 25.21558631 19.38239770 -0.00215723 -0.00052062 -0.00534596
C 0.75041751 20.45737498 23.15130592 0.00396205 -0.00116283 0.00207048
C -4.64973815 22.95294740 22.59351285 0.00555218 -0.00473139 -0.00165940
C 3.39324751 27.93659298 19.93863229 -0.00579078 -0.00782563 -0.00416988
C -3.29127911 25.17183186 19.92367922 -0.00358664 0.00230025 -0.00325410
C -10.83028433 20.47367293 22.92666926 -0.00509884 -0.00181140 -0.00727086
C -3.67197626 22.03697012 22.86095159 -0.00049174 0.00425437 -0.00281384
C 2.49133124 27.00140583 19.62044856 0.00575245 0.00818461 -0.00477912
C -4.32702212 25.89457629 19.33713902 0.00477278 0.00496447 0.00225831
C -9.84483412 21.31043209 23.31859003 0.00642989 0.00468197 -0.00039451
C -3.73442861 21.21226873 24.10361756 -0.00600289 -0.00170885 -0.00388898
C 2.63079316 26.26496218 18.40710633 -0.00719662 0.00305078 -0.00332712
C -4.01392883 26.92086666 18.30997502 -0.00262784 0.00168444 0.00335543
C 1.91424792 22.15730077 0.14554504 -0.00037437 0.00210757 0.00098648
C -1.79095560 21.57034675 18.97860149 -0.00210032 -0.00334532 -0.00036538
C 1.00132498 26.23514951 23.75347904 0.00770316 -0.00182592 -0.00249588
C -5.75022550 27.06347092 23.49980587 0.00216229 -0.00065076 -0.00054757
C -8.68134400 21.98982687 18.93094939 0.00251211 -0.00096635 0.00133500
C -2.87782191 22.22579856 18.42661367 0.00042875 0.00458833 0.00493211
C -11.52081417 27.32545034 23.91853090 0.00493979 -0.00392700 0.00713109
C -4.76652725 26.26384468 23.98143362 -0.00663815 0.00430982 -0.00035917
C 3.52477645 21.39855212 18.28340532 0.00443866 0.00099146 -0.00664365
C -7.24163255 24.38865647 21.95745928 -0.00078739 0.00258829 0.00667686
C -7.43946955 19.45188440 20.84316138 -0.00167247 -0.00239439 0.00041227
C -0.62354893 24.10474777 21.01265305 -0.00916106 0.00898002 -0.00771088
C -0.47193404 28.69155360 21.77739095 0.00253869 -0.00360746 -0.00228685
C -8.29717669 25.46523944 21.88549426 0.00031465 -0.00424331 -0.00417079
C -6.24552474 20.26666131 21.16629595 -0.00589897 0.01033523 0.00324557
C 0.68371034 23.39956773 21.34663181 -0.00062590 -0.00120994 0.00614653
C -1.47675217 27.59956133 21.72033067 -0.00350271 0.00669308 0.00116758
C 16.34315593 3.70749975 5.20169562 -0.01149657 0.00342702 -0.00310154
C 13.65689482 8.53496937 0.94854149 0.00469007 0.00486177 -0.00549333
C 20.30927143 5.79079373 1.21020922 -0.00694382 -0.00171429 -0.00433786
C 23.11285111 1.26467233 5.33031163 0.00334424 -0.00010031 0.00647335
C 17.48720724 3.57693731 4.47486300 -0.00060096 0.00471500 0.00408256
C 25.75966341 8.50860526 1.76081799 0.00366267 0.00109421 -0.00101701
C 19.12929892 5.94212282 1.97897426 -0.00222919 0.00730547 0.00107684
C 11.07557980 1.16643257 4.35142927 -0.00062884 -0.00006704 -0.00008113
C 18.53438919 2.80764015 4.88085502 0.00264967 0.00554019 0.00720975
C 24.85116319 7.55708743 1.40217163 0.00174754 0.00463802 0.00290663
C 18.23443821 6.93788866 1.60375359 -0.00548251 0.01036593 0.00522081
C 12.09328675 1.98653673 4.79761473 0.00765366 0.00377387 0.00353633
C 18.43902223 2.03740911 6.06292303 -0.00999941 0.00429946 0.00455800
C 24.93901869 6.80485782 0.25007804 0.00481302 0.00163193 -0.00514902
C 18.40952025 7.67380879 0.37714741 -0.00945370 0.00340158 -0.00147926
C 11.85187175 2.84590690 5.84400390 -0.00241640 -0.00001772 -0.00036376
C 20.13043819 1.97885318 0.66720910 -0.00706196 -0.01262629 -0.00350164
C 23.03065015 6.99197826 5.47475484 0.00552091 -0.00401963 0.00365455
C 16.34094646 7.68554942 5.56909500 0.00360671 0.00056672 0.00148888
C 13.41371030 2.76774444 0.54700610 0.00370332 0.00221954 0.00534008
C 19.11369264 2.84772866 0.33109584 0.01071359 -0.00022508 -0.00411972
C 10.83355265 7.65865959 5.79406990 -0.00761528 0.00383873 -0.00566026
C 17.38346480 6.87420798 5.88586186 -0.00436887 -0.00453438 -0.00132406
C 25.82000939 2.01903590 0.14786814 -0.00023021 -0.00026143 0.00186979
C 15.28905832 5.15064246 3.59898882 0.00345765 0.00054051 -0.00507589
C 14.93127507 0.27772722 2.53686232 0.00237441 -0.00157934 -0.00798781
C 21.46252463 4.38720419 2.71212130 -0.00048806 0.00126367 0.00937459
C 21.89406037 9.33402435 3.71234689 0.00140900 -0.00240323 -0.00524412
C 14.05850732 6.02671909 3.45721757 0.00981096 0.00448792 0.00137398
C 16.12723889 1.13006393 2.79078282 0.00463010 -0.00447461 0.00424246
C 22.69981079 3.42217434 2.97291895 0.00494088 -0.00168967 0.00080451