2880
Time=90000.00000003 pbc="T T T" Lattice="39.60266818 0.00000000 0.00000000 0.00000000 29.04420244 0.00000000 -12.02781663 0.00000000 24.40096497" energy=-18399.86417198 virial="-13.52841012 -16.66042308 -58.27130967 -16.66042308 -71.88506510 -31.21083625 -58.27130967 -31.21083625 -63.20762292" stress="0.00196431 -0.00061690 -0.00209349 -0.00061690 -0.00008843 -0.00111833 -0.00209349 -0.00111833 0.00037888" Properties=species:S:1:pos:R:3:vel:R:3
C 3.06276789 3.48902324 4.89487324 -0.00467356 -0.00248507 0.00105669
C 0.23828077 8.76850104 1.20201594 0.00137284 -0.00189954 -0.00229713
C 6.84953130 5.81622734 0.94326399 -0.00137383 -0.00006615 0.00582198
C 9.75507784 1.13475704 4.97216821 0.00034959 -0.00053207 0.00278912
C 4.23357856 3.40079497 4.12405695 0.00111923 -0.00680394 0.00194232
C 12.22267435 8.68643840 1.56302262 -0.00269225 -0.00069447 0.00037731
C 5.66367884 5.87562458 1.63322823 -0.00155405 0.00293750 0.00297799
C -2.01161826 1.22125520 4.38410138 0.00440502 -0.00214921 0.00574043
C 5.18083168 2.44817356 4.50197385 -0.00374634 0.00103991 0.00201392
C 11.21699438 7.79848200 1.26407798 0.00300763 -0.00617829 -0.01057319
C 4.69682931 6.70684988 1.15440782 0.00269315 -0.00098307 0.00048717
C -1.13268854 2.23394275 4.81280306 0.00594541 0.00469690 -0.00244603
C 5.04049069 1.70536624 5.74266723 -0.00364215 0.00120924 0.00359369
C 11.24417065 6.99855070 0.14641520 0.00400389 -0.00210479 -0.00925693
C 4.94785411 7.60903433 0.07579812 0.00693442 -0.00213293 -0.00140031
C -1.41224949 3.09037460 5.83624545 -0.00620683 0.00256679 -0.00390970
C 7.18279299 1.85806123 0.49846409 0.00246534 0.00012541 -0.00316968
C 9.54313341 6.72225008 5.53321404 0.00186057 0.00071672 0.00200287
C 3.16704078 7.49093620 5.50069158 -0.00267211 -0.00394657 0.00052829
C 0.27926665 2.80181706 0.49174656 0.00237302 -0.00146953 -0.00469623
C 6.07590028 2.59735593 0.12459993 0.00478614 -0.00080617 -0.00192131
C -2.31174950 7.67369813 6.15427838 0.00625604 0.00284118 0.00324215
C 4.15455900 6.57590426 5.76172186 0.00362261 0.00054157 0.01028339
C 12.54093946 1.99240661 0.09320358 0.00239435 -0.01297021 -0.00241924
C 1.92700143 4.94489917 3.43410669 -0.00531275 0.00210378 -0.00798179
C 1.63073529 0.14615575 2.37492688 0.00266828 -0.00038117 0.00836901
C 8.01715307 4.39338441 2.56266834 -0.00029235 -0.00016560 0.00275957
C 8.46215872 9.47245401 3.33259969 0.00384489 -0.00779103 -0.00054622
C 0.86506325 5.90817107 3.27504048 0.00005223 -0.00031414 0.00431357
C 2.97313194 0.87105832 2.38113514 -0.00583994 -0.00565620 0.00094902
C 9.25134864 3.59103820 2.83170088 -0.00555604 -0.00178201 0.01035666
C 7.43591850 8.44895187 3.08136022 -0.00372171 -0.00587792 0.00604935
C 0.06872880 3.53576873 11.33951653 0.00230410 0.00229438 0.01475467
C -2.57941498 8.50460546 7.24186319 -0.00742323 -0.00167940 -0.00141496
C 4.09545899 5.81175384 6.93228305 0.00223429 0.00357569 -0.00978918
C 6.81575150 1.23094686 11.26316546 -0.00866490 0.01281996 -0.00380485
C 1.27185283 3.43562649 10.62901332 0.00423632 0.00105499 -0.00001431
C 9.14241657 8.64991958 7.53253465 0.00266180 -0.00141819 -0.00782052
C 2.90695560 5.86525026 7.71941635 0.00054495 -0.00175118 -0.00207851
C 34.28173861 1.07371844 10.72587262 0.00417105 -0.00221792 -0.00303079
C 2.30941266 2.61548514 10.98044141 0.00288046 0.00083933 0.00483057
C 8.07912779 7.93987092 7.05052383 -0.01066505 -0.00253648 -0.00165593
C 1.89005455 6.79042176 7.38255831 0.00330248 0.00449059 -0.00041508
C -4.37461977 1.95291980 11.12884604 0.00226807 0.00463689 -0.00422783
C 2.21310995 1.74292776 12.12437564 -0.00635511 -0.00204767 0.00260880
C 8.22194706 6.89238070 6.08564441 -0.00492400 -0.00276103 -0.00410844
C 2.08345344 7.65797857 6.33075392 0.00509129 0.00237039 0.00344631
C -4.61423676 2.76798067 12.17245916 0.00709897 -0.00589267 0.00124204
C 3.88742507 1.80665196 6.47117083 -0.00628528 0.00406715 0.00068459
C 6.93232736 6.96045079 11.72683115 0.00445716 -0.00043233 0.00684955
C 0.48035198 8.07740927 12.15550609 -0.00358734 -0.00342489 -0.00363572
C -2.62601041 2.88418390 6.54742085 0.01068531 -0.00851124 0.00169886
C 2.89244546 2.62538445 6.01664734 -0.00714520 -0.00044800 0.00053050
C -5.30795130 7.62126612 12.32728066 0.00343870 -0.00164532 0.00064503
C 1.32656790 6.99469548 12.38755700 0.00148916 -0.00755116 -0.00218287
C 9.47463379 2.11161092 5.96109339 0.00257673 0.00374726 -0.00448030
C -1.10724230 4.92735709 9.76421447 0.00215976 -0.00649959 -0.00261075
C -1.15343115 0.20771484 8.57849977 -0.00256705 -0.00414626 -0.00917168
C 5.34619477 4.56611955 8.56154133 -0.00197711 -0.00224581 -0.00129634
C 5.54803284 9.57334268 9.61517909 0.00308562 -0.00476571 0.00796758
C -2.29299316 5.80555217 9.60109121 0.00641380 -0.00006317 -0.00063242
C 0.15471236 0.84205228 8.90021055 -0.00313317 -0.00344972 -0.00215881
C 6.60952059 3.72110320 8.65346326 0.00497078 0.00260361 0.00242665
C 4.28951832 8.76962056 9.31943780 -0.00444623 0.00108990 0.00626088
C -2.87597182 3.89528711 17.48667080 0.00098518 0.00133673 -0.00266939
C -5.53030147 8.54494990 13.44735432 0.00240047 -0.00362222 0.00169234
C 0.91778851 6.03569645 13.31757891 -0.00032350 0.00166125 0.00041750
C 3.99041595 1.14476487 17.38893660 0.00213033 -0.00646064 0.00081008
C -1.71391265 3.78762675 16.74445886 0.00583171 0.00011926 0.00422622
C 6.48424348 8.49825082 14.02254746 -0.00209741 -0.00115110 -0.00365110
C -0.30606502 6.07835827 13.97863194 0.00610580 -0.00857576 -0.00292647
C -8.15638921 0.98304427 16.72000252 0.00336838 -0.00207721 0.00316935
C -0.76478185 2.82506514 16.99048384 -0.00228381 0.00110992 -0.00234436
C 5.45764983 7.70229126 13.54727057 -0.00411809 0.00086366 0.00142249
C -1.15462481 7.17216044 13.85572250 -0.00122810 -0.00511687 0.00005708
C -7.20556427 1.92566590 17.19457836 0.00307320 0.00885629 -0.00315182
C -0.90827965 1.98814925 18.08848278 -0.00433212 -0.00102380 0.00493466
C 5.68527871 6.86389185 12.44634720 -0.00789457 -0.00281234 0.00563369
C -0.77104204 8.16201688 12.87009744 -0.00498676 0.00071001 0.00226349
C -7.50026368 2.72067448 18.29428940 0.00338823 -0.00983955 0.00329005
C 0.94090756 1.85831790 12.82319159 0.00397947 0.00162544 0.00134757
C 3.86080332 6.69760825 17.98536511 0.00123819 0.00064136 -0.00101602
C -2.65505183 7.84687312 18.21199149 0.00094342 0.00334204 0.00361561
C -5.82922256 2.53802417 12.94699179 -0.00032582 -0.00233646 0.00581004
C -0.07388682 2.72831017 12.44829117 0.00311650 -0.00265662 -0.00089722
C -8.43789905 7.74942450 18.38760955 0.00190245 0.00089492 0.00464749
C -1.73892873 6.91574859 18.67881379 0.00069432 0.00179912 -0.00328482
C 6.70286219 2.00433746 12.40428281 0.00221775 -0.00352652 0.00079332
C -4.28038153 5.16113091 15.94330027 -0.00212874 0.00008421 -0.00281026
C -4.47328362 0.20757991 14.91049449 0.00496421 -0.00582024 0.00724800
C 2.13319853 4.44168133 14.79881564 -0.00375406 -0.00639770 0.00460196
C 2.71575825 9.37189381 15.88902895 -0.00061064 -0.00566223 -0.00629262
C -5.53283062 5.92402940 15.89560111 0.00668979 0.00693455 -0.01052203
C -3.17227235 0.99858915 15.08783337 0.00553986 -0.00042714 -0.00907391
C 3.35829524 3.54000336 14.90676573 0.00641751 -0.00388493 0.00463018
C 1.42679825 8.70265250 15.80127180 0.00028209 -0.00080277 0.00784254
C -5.86945050 3.50758572 23.46144429 -0.00106372 -0.00157230 0.00738193
C -8.53100329 8.53022016 19.55300159 -0.00193885 -0.00137272 -0.00765004
C -2.04944726 5.92507148 19.60285599 -0.00304893 -0.00243257 -0.00068931
C 0.66978364 1.14806783 23.36237872 -0.00355573 0.00286980 -0.00220006
C -4.61489157 3.66366475 22.79554578 0.00223518 0.00335341 0.00546058
C 3.54427332 8.53953589 20.00028997 0.00264441 0.00404830 0.00122709
C -3.32052852 6.02038602 20.22939491 -0.00130263 0.00178257 -0.00041882
C 28.36639583 1.08896156 22.69863152 0.00189518 -0.00049691 0.00168164
C -3.51902807 2.85909245 23.13244487 -0.00129516 -0.00975703 0.00150445
C 2.50148278 7.66176240 19.74611789 0.00531946 0.00310125 -0.00062235
C -4.18048296 7.07964441 19.97756521 -0.01122639 -0.00323257 0.00620675
C -10.26132707 1.92669876 23.25744335 0.00066098 0.00012904 -0.00541345
C -3.55196736 2.02691645 24.28914883 0.00165738 -0.00362343 -0.00642838
C 2.60981321 6.75687561 18.72679914 -0.00240157 0.00314924 0.00561419
C -3.84814278 7.93138753 18.85470088 -0.00333137 -0.00003365 -0.00603511
C -10.51832962 2.88147585 24.21449457 -0.00454707 -0.00406797 0.00230472
C -2.09206539 2.05025047 18.87659825 0.00565163 0.00017089 0.00805711
C 0.43331378 7.03878468 23.79753746 0.00137350 0.00228555 -0.00289615
C -5.78077867 7.55236070 23.85032121 -0.00383663 0.00009866 0.00321195
C -8.74351494 2.63265806 18.93244089 -0.00483749 0.00298551 0.00105127
C -3.07842779 2.95143074 18.51874008 -0.00147049 -0.00022244 0.00502528
C 0.58448970 7.92558218 0.13748850 0.00089078 -0.00655336 0.00336722
C -4.87504421 6.62916000 24.23520022 0.01016170 -0.00218907 0.00608986
C 3.82093953 2.01747192 18.49393471 -0.00769088 -0.00359267 -0.00641505
C -7.15094782 5.12288466 22.14235278 -0.00567230 0.00529671 0.00487361
C -7.53154918 0.07273204 20.94905489 0.00266377 0.00097937 -0.00347659
C -0.67872173 4.52209345 21.10637685 0.00853975 -0.00535570 -0.00556347
C -0.46394186 9.58493405 21.86160011 -0.00199841 -0.00511895 0.00760195
C -8.51088580 5.80429815 21.99545105 0.00289634 -0.00102001 0.00461301
C -6.35224493 1.02291073 21.06554685 0.00245826 -0.00028845 0.00363748
C 0.59442521 3.77025343 21.23525755 0.00380259 -0.00068943 0.00070283
C -1.75258776 8.89023237 21.60054625 0.00531854 0.00143803 -0.00218873
C 3.31354371 13.51767241 5.07011092 -0.00357965 0.00077586 0.00156566
C 0.50049302 18.17406278 1.03370445 0.00673444 0.00592927 0.00787921
C 7.19141118 15.77348806 0.98075008 -0.00914636 -0.00134868 -0.00134851
C 9.62859778 10.67789177 5.03694301 -0.00636581 -0.00176985 -0.00579112
C 4.49010978 13.42511808 4.41374007 -0.00832422 -0.00504968 0.00265835
C 12.39672744 18.33388482 1.65571096 0.00008996 -0.00387750 0.00910007
C 5.96810787 15.82642458 1.69283634 -0.00100381 -0.00091172 0.00477148
C -2.09082478 10.85383186 4.85198869 0.00315802 0.00221263 0.00484602
C 5.46708535 12.45552208 4.80598018 0.00016550 -0.00333081 0.00608522
C 11.50095104 17.36104304 1.21864171 -0.00022604 -0.00089537 -0.00095343
C 4.97610122 16.65647441 1.21180958 0.00342247 0.00013003 0.00594707
C -1.11393025 11.70598302 5.23799410 0.00785748 0.00100697 0.00565359
C 5.24836528 11.63547467 5.91612830 0.00750773 0.00199768 -0.00031839
C 11.74990493 16.62570279 0.10423580 0.00410320 -0.00096018 0.00493390
C 5.17062977 17.49957532 0.13252208 0.00399827 0.00394693 0.00179861
C -1.27907608 12.60354815 6.35089045 -0.00222567 0.00434910 0.00570918
C 7.03078713 12.03581351 0.58063523 0.00489650 -0.00346311 0.00149023
C 9.92000005 16.44424074 5.43118651 0.00876698 -0.00703630 -0.00360064
C 3.44463895 17.33494979 5.61730912 -0.00321923 -0.00021761 0.00524000
C 0.18108269 12.55605269 0.59189010 -0.00108808 -0.00702221 0.00171971
C 5.99563648 12.80288539 0.12563983 -0.00162072 0.00580388 0.00477466
C -2.51373628 17.27203768 5.84592379 0.00428071 0.00418162 -0.00353278
C 4.49665336 16.51170749 5.99589768 -0.00910982 0.00399298 -0.00759488
C 12.64986365 11.91754665 0.10135183 0.00594200 0.00296864 0.00729786
C 2.04358265 14.91748193 3.50974702 0.00281987 -0.00303014 0.00039461
C 1.41495633 10.09212971 2.83516245 0.00653430 -0.00685196 0.00588808
C 8.30746857 14.23520015 2.44098012 -0.00116503 -0.00410428 0.00611564
C 8.76262702 18.96628434 3.45371879 -0.00003523 -0.00275633 0.00402877
C 0.74922869 15.76553525 3.33440935 0.00481478 -0.00306816 -0.00516968
C 2.63972546 10.98091458 2.83995229 -0.00836413 0.00206788 -0.00612435
C 9.64004229 13.51537347 2.56064286 0.00090577 -0.00151996 -0.00951871
C 7.74145955 17.83492083 3.15786384 -0.00122055 0.00458697 -0.00612501
C -0.09495884 13.35253467 11.26792155 0.00257525 -0.00013021 -0.00218019
C -2.64064332 18.01773933 7.00715343 -0.00062153 0.01265271 0.00962871
C 4.32406641 15.61537530 7.08836408 -0.00570483 -0.00426363 -0.00066993
C 6.66165801 10.88514155 11.29440270 -0.00154343 -0.00546960 0.00113645
C 1.13347905 13.36489887 10.61876510 -0.00298207 0.00356747 0.00102501
C 9.51911159 18.03855753 7.75450127 0.00156907 0.00199013 0.00168363
C 3.06742619 15.56357766 7.65768907 0.00813740 0.00280437 0.00406778
C -5.27936894 10.62737361 10.78788599 -0.00259721 -0.00482553 0.00868284
C 2.09111832 12.49637753 10.98397060 -0.00122545 -0.00034172 0.00271009
C 8.55612345 17.14595979 7.30287861 0.00014264 -0.00954735 0.00171737
C 1.99929305 16.40921449 7.28763038 -0.00145570 0.00099895 -0.00042241
C -4.22466418 11.40525463 11.18591225 -0.00240465 -0.00246768 -0.00539422
C 1.95428978 11.65145086 12.14919452 0.00454555 0.00353648 -0.00096471
C 8.71731168 16.33708810 6.14297569 0.00447643 0.00685425 0.00627662
C 2.16371664 17.32589261 6.22737259 -0.00088970 -0.00076764 0.00721761
C -4.43122289 12.29753954 12.31947778 0.00019121 0.00822945 -0.00579687
C 4.02802417 11.83969807 6.55542110 -0.00357380 -0.00289710 -0.00218935
C 6.65378045 16.51361521 11.39610791 -0.00797362 -0.00210702 0.00635708
C 0.05289991 17.26452933 11.32308925 0.00133810 0.00236678 -0.00705050
C -2.55300236 12.53741280 6.99288967 -0.00110089 -0.00463637 0.00652527
C 3.02252960 12.72301233 6.15788023 -0.00724797 -0.00623642 -0.00218346
C -5.39494155 17.52207929 12.06446015 0.00183096 0.00048990 -0.01001830
C 0.99508412 16.39695088 11.81743432 -0.00584068 -0.00638598 0.00123868
C 9.37918885 11.52241517 6.17632698 0.00393237 0.00596392 0.00104373
C -1.37695705 14.83154506 9.84776041 0.00300415 0.00269111 0.00443359
C -1.22700966 9.71735644 8.91297696 0.00016961 -0.00359622 -0.00225996
C 5.45045979 14.11646717 8.65336093 -0.00405900 0.00441235 -0.00027018
C 5.32422184 19.08263469 9.58740740 -0.00268222 0.00511512 0.00015203
C -2.74148704 15.39737941 9.66122932 -0.00362708 -0.00031472 -0.00319492
C -0.19699014 10.75040649 8.98160320 0.00225728 0.00706851 0.00490200
C 6.73271143 13.33378502 8.86907629 0.00288896 -0.00606196 0.00071926
C 4.18480067 18.11926630 9.58238843 0.00691188 -0.00094335 -0.00045189
C -2.70435249 13.47657815 17.35295980 -0.00180267 0.00232315 -0.00376484
C -5.63791439 18.37705735 13.14351181 -0.00544914 -0.00257715 -0.00209097
C 0.82248980 15.65465990 13.05001216 0.00114592 0.00099422 -0.00084090
C 3.87685461 10.81269359 17.39457742 0.00164649 0.00229927 -0.00059156
C -1.49391621 13.42731617 16.64513302 0.00238248 -0.00253639 0.00483127
C 6.15091748 18.00801746 13.66147101 -0.00548686 0.00199459 0.00250627
C -0.35889284 15.97670649 13.77262601 0.00782610 -0.00070274 -0.00631930
C -8.07309192 10.79774145 16.88223506 -0.00058134 -0.00143007 -0.00055037
C -0.48821298 12.54456789 17.07882941 0.00186125 0.00124203 0.00583084
C 5.18516455 17.19937338 13.14290249 -0.00177531 -0.00314588 -0.00773389
C -1.26912263 16.86093515 13.27805704 0.00012138 -0.00002855 -0.00273250
C -7.14218960 11.74907915 17.17833285 -0.00791843 0.00089355 0.00125139
C -0.73482418 11.66730243 18.14726794 0.00199260 -0.00125106 0.00070807
C 5.42053161 16.37388602 12.05111885 0.00186124 0.00091778 -0.00671237
C -1.04616599 17.64205005 12.14696925 -0.00962176 -0.00114728 0.00426903
C -7.35409182 12.61972423 18.31079494 0.00234119 0.00098968 -0.00498435
C 0.69338076 11.60573569 12.79103638 0.00246383 0.00605312 0.00451498
C 3.90720221 16.35128794 17.96401133 0.00269132 -0.00228636 -0.00512743
C -2.70644895 17.54188289 17.70161904 0.00194018 0.00287903 0.01007166
C -5.70391447 12.39878470 12.84183644 0.01132825 -0.00422198 -0.00122673
C -0.32254876 12.45555893 12.35393555 -0.00208138 0.00284114 0.00307282
C -8.47700543 17.36530851 17.93987739 0.00555380 0.00587903 0.00545740
C -1.70368652 16.71721352 18.13680291 -0.00590718 0.00374120 -0.00302504
C 6.42644845 11.64842249 12.50205434 0.00372774 -0.00682277 -0.00468398
C -4.03043706 14.78236035 15.85905726 0.00312517 0.00800752 -0.00233835
C -4.40277973 9.90366388 15.05155278 0.00204571 -0.00265291 0.00570478
C 1.97992773 14.43135114 14.82783006 0.00396467 0.00087608 0.00379935
C 2.79652564 19.08913703 15.60160424 -0.00453239 0.00340301 0.00368791
C -5.13117744 15.77879987 15.70630452 0.00038172 -0.00312107 -0.01392279
C -3.26590422 10.84019277 15.31042062 0.00171691 0.00925829 0.00656162
C 3.01949652 13.38356978 15.25310835 0.00347775 0.00373461 -0.00295187
C 1.51639097 18.34429438 15.28384791 0.00037725 0.00066968 0.00213477
C -5.87124248 13.66833206 23.39413439 0.00105706 -0.00399181 -0.00297082
C -8.59210814 18.22776410 19.04546008 -0.00019069 -0.00483269 -0.00749822
C -1.99529627 15.78637409 19.21283951 -0.00027748 -0.00713757 0.01006590
C 0.80582242 10.97134812 23.46316145 -0.00890208 -0.00407383 0.00792955
C -4.79869611 13.48463855 22.57309530 0.00648753 0.00213271 0.00287637
C 3.38637172 18.20778595 19.84090584 0.00161505 -0.00494846 0.00071226
C -3.25743751 15.83532611 19.89013006 -0.00933508 0.00199921 -0.00777110
C -11.29746343 10.85750078 22.91965977 0.00541500 -0.00419573 -0.00106071
C -3.80550018 12.63608184 22.96709015 0.00459832 0.00250167 0.00761819
C 2.48212264 17.17344526 19.63866899 0.00097800 -0.00519748 -0.00392842
C -4.22915453 16.70159253 19.41331740 0.00376091 -0.00696380 0.00390053
C -10.32764418 11.74857073 23.37402274 0.00381202 0.00119983 0.01322080
C -3.89125949 11.81357885 24.09362181 0.00135758 -0.00362615 0.00429690
C 2.68941681 16.22836750 18.61972803 -0.00033688 -0.01002445 -0.00019293
C -3.97749695 17.58647480 18.31990661 0.00095599 0.00049500 0.00292294
C 1.49519216 12.61092988 0.04709228 0.00222960 0.00316713 -0.00107888
C -1.91904612 11.79208389 18.89236086 0.00361667 -0.00250360 -0.00718330
C 1.02651063 16.75772624 23.88243052 0.00033750 0.00011569 -0.00168139
C -5.58537547 17.60642780 23.92125036 0.00275548 -0.00828835 0.00474424
C -8.56674701 12.53133478 18.97670843 -0.00964308 -0.00299565 0.00008775
C -2.93964768 12.65925853 18.48350810 -0.00548474 0.01172278 -0.00491456
C -11.40337416 17.35925714 24.35169294 0.00464340 0.00643395 -0.00333753
C -4.64273924 16.72471926 24.28665052 -0.00634150 -0.00256754 -0.00324560
C 3.71442738 11.62423435 18.49058586 0.00065948 0.00285549 -0.00579829
C -7.24145084 14.93006516 21.91005248 0.00588632 -0.00145707 -0.00528873
C -7.40687670 10.00510518 21.11172411 -0.00594998 0.00078514 -0.00513858
C -0.93464998 14.34285599 20.82000622 -0.00088600 0.00949408 -0.00059518
C -0.39513997 19.11546807 21.75252541 0.00067432 0.00228554 0.00035949
C -8.49702085 15.83937750 21.77712999 -0.00519107 -0.00272677 0.00719765
C -6.18370497 10.82713286 21.40077677 0.00363271 -0.00530167 0.00577549
C 0.20877156 13.36583038 20.99029889 -0.00281766 -0.00501366 -0.00586775
C -1.45045087 18.05804152 21.68624521 -0.00145511 0.01025685 0.00205367
C 3.09453549 23.00182197 5.02435808 0.00308502 0.00801127 0.00437764
C 0.27052951 27.82619739 0.84165799 -0.00692051 -0.00283527 0.00030473
C 7.27444091 25.18370797 0.85794021 0.00781962 -0.00805914 0.00077271
C 9.80893903 20.45168424 5.05004097 0.00667468 0.00601551 -0.00110577
C 4.31752805 22.87922312 4.30974438 -0.00157133 0.00434159 0.00342524
C 12.53119906 27.89509940 1.71828729 -0.00245519 -0.00219135 0.00065733
C 6.01378982 25.15830072 1.50726690 0.00600944 0.00731774 0.00294863
C 37.25442404 20.33537049 4.43492197 0.00571200 -0.00103560 -0.00383809
C 5.27232871 22.09310825 4.87728070 0.00068069 0.00013784 0.00317937
C 11.59720821 26.95258379 1.23179713 0.00074709 -0.00435052 -0.00544291
C 5.05191524 26.05647594 1.22106048 -0.00048240 0.00359758 0.00466967
C -1.38289840 21.23178944 4.86581489 0.00790994 -0.00025921 0.00541534
C 5.11688477 21.31700533 5.96587127 0.00345385 0.00029626 -0.00360035
C 11.74825083 26.16371757 0.04855448 0.00049480 -0.00129229 0.00188905
C 5.08312761 26.93088341 0.07118247 -0.00679250 0.00492193 0.00150375
C -1.57429908 22.10783382 5.95888633 -0.00336723 -0.00198439 0.00397551
C 7.02152592 21.19011527 0.46150527 -0.00337226 0.00447851 -0.00311245
C 9.93757926 26.08183608 5.43859238 0.00045779 -0.00471149 -0.00083153
C 3.13900820 26.93132089 5.20757285 0.00289342 -0.00242167 -0.00628323
C 0.45481268 21.87287899 0.49962317 -0.00293727 -0.00120188 -0.00167700
C 6.09073411 22.19382474 0.11368386 0.00058343 0.00089755 0.00391477
C -2.42920754 27.04642721 6.05017053 -0.00431330 0.00315130 -0.00592660
C 4.23622055 26.27258523 5.77290110 0.00310646 0.00484557 -0.00602729
C 0.59230123 21.56061487 24.28632137 0.00040956 0.00425151 -0.00547425
C 2.03828318 24.45183883 3.31138213 -0.00351684 0.00216694 0.00248451
C 1.81042167 19.50664394 2.62280303 0.00532009 -0.00244067 0.00296899
C 8.51213534 23.86022319 2.38326450 -0.00258556 -0.00454287 0.00009623
C 8.63968429 28.70689023 3.39043830 -0.00231873 -0.00375911 0.00293502
C 1.02491391 25.48875283 2.92892931 -0.00145782 -0.00253944 0.00105413
C 3.23357004 20.09986442 2.61197522 0.00388762 -0.00452303 -0.00268605
C 9.88286846 23.15141621 2.49261219 0.00916824 0.00467104 -0.00473260
C 7.41802761 27.84799894 3.09651147 0.00309931 0.00751358 0.00585973
C 0.12169352 23.06769776 11.08837590 -0.00148953 -0.00115884 -0.00060132
C -2.55324159 27.97992404 7.09577529 0.00151310 0.00790623 0.00167901
C 4.04619806 25.38710376 6.84538437 0.00436492 -0.01278528 -0.00363336
C 6.70200498 20.45722641 11.10164239 0.00735523 -0.00217394 0.00500204
C 1.34812554 23.09576606 10.39152411 0.00611073 -0.00204189 0.00100751
C 9.29484395 27.80203543 7.59076318 0.00027324 0.00850087 -0.00231916
C 2.87747989 25.44158958 7.56192334 0.00269157 -0.01079325 -0.00179085
C 34.09126756 20.71404778 10.41262308 0.00517690 -0.00327528 -0.00563434
C 2.35855517 22.24583653 10.78897791 0.00379383 0.00120672 0.00159654
C 8.61893902 26.62679017 7.29534915 -0.00139212 -0.00584080 -0.00433348
C 1.82006767 26.23206518 7.12173018 0.00124777 0.00036885 -0.00044816
C -4.51003589 21.63786157 10.71960192 0.00084171 0.00441859 -0.00523634
C 2.15650171 21.42989865 11.91265217 -0.00273613 0.00389774 -0.00269569
C 8.79647255 25.81992151 6.17962125 0.00200549 0.00769467 -0.00242075
C 1.88727499 26.90719006 5.86076040 0.00323627 0.00306245 0.00748726
C -4.53852064 22.31458931 11.97702696 0.00366107 -0.00413338 -0.01089315
C 3.91124981 21.43872002 6.66175512 0.00993251 -0.00735374 -0.00201769
C 6.78263639 26.18548999 11.55371036 0.00418900 -0.00892360 -0.00138657
C -0.02350180 27.17499667 11.38773540 -0.00917419 0.00880124 -0.00384101
C -2.65245008 21.85344302 6.79962531 -0.00529906 -0.00397204 -0.00643252
C 2.90953548 22.20685103 6.14261623 0.00156716 0.00496594 0.00221498
C -5.52882658 27.05812202 12.05269308 0.00385682 -0.00217439 -0.00159059
C 0.92659036 26.21858620 11.71519716 0.00565782 -0.00484431 -0.00357675
C 9.67181782 21.19848957 6.21771723 0.00290910 0.00139194 -0.00252511
C -1.17290694 24.50465153 9.61213912 -0.00022151 0.00288614 0.00262691
C -1.49111477 19.64874934 8.48058838 0.00018561 -0.00392365 0.00294933
C 5.22802753 23.97585562 8.41231704 -0.00212803 -0.00595652 0.00090012
C 5.53607589 28.81858534 9.75792251 0.00299110 0.00178848 -0.00600225
C -2.30381244 25.45736011 9.49227665 -0.00255407 0.00167254 0.00171976
C -0.12337874 20.29851742 8.57440796 -0.00100818 0.00447297 -0.00359825
C 6.20215773 22.84384228 8.51575880 0.00220045 -0.00700785 -0.00315922
C 4.50480533 27.78859519 9.77202957 0.00014126 0.00262162 0.00310738
C -2.74546259 23.16187001 17.40686535 -0.00056108 -0.00071269 0.00183432
C -5.64488526 27.83595204 13.25183202 0.00679850 0.00206672 -0.00257499
C 0.83144345 25.42539422 12.89285086 -0.00343118 -0.00219402 0.00091262
C 3.97703626 20.45801692 17.27293045 0.00104106 -0.00185546 -0.00172156
C -1.52795223 23.16338370 16.71168328 0.00125269 -0.00258998 0.00249429
C 6.35126863 27.73101605 13.92826091 -0.00468463 -0.00278544 -0.00121403
C -0.33946794 25.54870179 13.65654233 -0.00378069 -0.00371419 -0.00258582
C 31.27837489 20.79482907 16.40813929 0.00043223 0.00942636 0.00785939
C -0.53402248 22.30783637 17.06182334 0.00106119 0.00088413 -0.00352785
C 5.38759609 26.87351825 13.41750482 0.00373822 0.00445272 0.00577759
C -1.31876797 26.45720821 13.30616959 -0.00310722 0.00367330 0.00835837
C -7.36528402 21.65174964 16.92664757 0.00164084 0.00400215 -0.00215267
C -0.78347082 21.32450059 18.01600760 0.00403916 0.00230131 0.00018403
C 5.59801247 26.02727426 12.28933272 -0.00062495 -0.00152053 -0.00562538
C -1.21142660 27.29344358 12.17926986 -0.00532590 0.00326232 0.00404605
C -7.48586330 22.19739096 18.18408121 0.00329359 -0.00686610 0.00094529
C 0.99796009 21.47360862 12.65342008 0.00448918 0.01204121 0.00038529
C 4.12965363 26.12845063 17.88037669 -0.00150643 0.00383120 0.00428306
C -3.09922670 27.35003302 17.84222781 0.00255097 -0.00168483 -0.00640623
C -5.72726618 22.14455970 12.70570921 0.00332987 0.00476791 -0.00678787
C -0.09140129 22.18555699 12.16983606 -0.00496021 0.00096028 0.00104339
C -8.56634852 26.99835145 18.16611228 -0.00386688 -0.00082338 0.00227846
C -2.06832437 26.52335485 18.19292983 -0.00262733 -0.00473598 0.00384834
C 6.49688633 21.36178312 12.13443043 -0.00097109 -0.00688570 0.00091397
C -3.79758077 24.51748293 15.71320694 -0.00541353 0.00437237 0.00175755
C -4.38921913 19.88391610 14.53873149 0.00145516 -0.00037858 0.00062411
C 2.17628391 24.14059251 14.48748960 -0.00065129 0.00431551 -0.00415792
C 2.76509815 28.93977895 15.81927337 0.00098001 -0.00157832 -0.00182838
C -4.90053622 25.47920204 15.45847440 -0.00081864 -0.00516418 -0.00009715
C -3.14371927 20.65149329 14.60288927 0.00390429 -0.00531825 0.00665034
C 3.32686818 23.23209901 14.59926014 0.00810121 -0.00571180 0.00057642
C 1.48634252 28.13868235 15.56643970 -0.01202394 -0.00138028 0.00359192
C -5.78538070 22.97501345 23.39189751 0.00203679 -0.00271943 0.00105574
C -8.74014251 27.80697155 19.33511514 0.00256143 0.00562030 0.00283829
C -2.18156511 25.56623530 19.18164408 -0.00731934 0.00867940 -0.00619260
C 0.80076001 20.67138118 23.23508058 0.00138992 -0.00447428 -0.00010150
C -4.56965714 22.98805001 22.65818988 -0.00292498 0.00429856 0.00504040
C 3.62071081 27.92671970 19.92708342 0.00028873 -0.00579121 0.00290185
C -3.40819788 25.46591149 19.87455088 0.00508472 -0.00658764 -0.00020553
C -11.19192416 20.28913867 22.72385044 -0.00074730 0.00273548 -0.00254843
C -3.66133219 22.04328339 23.10557685 0.00116686 -0.00521933 0.00839394
C 2.67852235 27.00487791 19.53233353 0.00007439 -0.00785861 -0.00069207
C -4.35397030 26.41463082 19.58022785 -0.00397125 -0.00433911 -0.00539761
C -10.23411699 21.19712065 23.02913639 -0.00658190 -0.00168570 0.00195307
C -3.78336034 21.17867437 24.15622098 -0.00293289 -0.00546520 -0.00572355
C 2.86939141 26.11971393 18.47249118 0.00162675 0.00079988 0.00016249
C -4.32645954 27.35956484 18.55731475 -0.00038291 -0.00180601 0.00515892
C -10.38065877 22.06525610 24.12740390 -0.00664064 0.01014913 -0.00364359
C -2.03743665 21.30646348 18.66334284 -0.00021469 0.00211841 0.00505400
C 0.98917318 26.31425629 23.81239093 -0.00624538 -0.00029818 0.00702900
C -5.70238182 26.95865509 23.82883360 0.00151972 -0.00381262 -0.00273002
C -8.75160043 22.05812693 18.81674939 0.00175970 0.00672995 0.00652148
C -2.96639673 22.24886352 18.41199913 0.00517053 -0.00527889 0.00690582
C -11.56953332 26.94096486 24.15611105 0.00073590 -0.00172390 0.00007869
C -4.68295427 26.08433303 24.15383672 -0.00097724 0.00097620 -0.00140600
C 3.71049199 21.36747737 18.31561854 -0.00460543 0.00307154 -0.00542379
C -7.10376168 24.47347649 21.93943389 0.00109578 -0.00960127 -0.00506417
C -7.39206427 19.72075398 20.61996036 -0.00123537 0.00412864 -0.00096459
C -0.82743602 24.11522422 20.66082016 -0.00319026 -0.00415747 -0.00203994
C -0.33879098 28.69008272 21.73419918 -0.00040025 0.00013983 -0.00081343
C -8.47729685 25.07594912 21.69826788 -0.00613592 -0.00218220 -0.00895402
C -6.21716946 20.54065032 20.53472916 0.00393884 0.00318306 -0.00280639
C 0.44620991 23.30417668 20.58958076 0.00506243 -0.00359228 0.00140520
C -1.34118201 27.57483603 21.58824069 -0.00017436 0.00351179 0.00331077
C 16.51148528 3.95265211 5.13293133 -0.00215153 0.00224176 0.00475867
C 13.43790808 8.65460703 0.94853399 -0.00816305 -0.00413088 -0.00036759
C 20.13660150 5.93485503 0.86693769 0.00440963 -0.00230387 0.00204274
C 23.02757361 1.09118310 5.22167844 0.00111960 0.00515050 -0.00266568
C 17.71272342 3.90262081 4.39661899 -0.00294994 -0.00074796 0.00339052
C 25.73077909 8.48033020 1.65897248 0.00104555 0.00549803 -0.00106658
C 18.91569487 6.06505392 1.54968396 -0.00449292 0.00232326 -0.00094966
C 11.03123965 1.22083613 4.33091335 0.00038580 -0.00633664 0.00526427
C 18.71346157 3.06521535 4.82530142 0.00958580 0.00380081 0.00769893
C 24.70033152 7.69809747 1.21537648 -0.00062255 0.00467711 -0.00217001
C 18.06407259 7.11561583 1.16527262 -0.00394525 -0.00359464 -0.00286993
C 11.95901290 2.09657782 4.81136023 0.00148091 0.01106487 0.00184902
C 18.63547708 2.23073255 5.96981589 0.00137233 0.00273234 -0.00756804
C 12.79371517 6.96917437 24.39052273 0.00170875 -0.00410947 -0.00826505
C 6.28860354 7.88835741 24.36785781 0.00314078 -0.00063787 0.00721064
C 11.66094354 2.98639749 5.82233475 -0.00054011 -0.00211372 -0.01058008
C 19.96021763 2.04846523 0.62091565 -0.00407322 0.00376645 0.00087788
C 23.16090338 6.94776421 5.70815155 -0.00595972 -0.00911639 0.00048123
C 16.42296391 7.65306258 5.50849899 -0.00059754 -0.00140494 -0.00238751
C 13.57328545 2.84798980 0.49029665 -0.00371803 0.00019140 0.00037767
C 19.06747499 2.96779150 0.10272636 -0.00298195 0.00501006 -0.00115819
C 10.53631406 7.61885485 5.85721786 0.00364416 0.00315373 0.00086789
C 17.34889993 6.80536403 6.02323270 -0.00718505 0.00867096 0.00217193
C 25.51632481 2.10040007 0.21700344 0.00036841 0.00304865 -0.00155449
C 15.26654792 5.24216929 3.52540490 -0.00593720 -0.00388769 -0.00291528
C 14.91074044 0.41882193 2.53175264 -0.00440795 -0.00121080 -0.00030523
C 21.43763064 4.61634963 2.47555913 0.00098616 -0.00408954 -0.00189955
C 21.93361631 9.23242419 3.60767654 -0.00290848 0.00310776 0.00085472
C 14.00070220 5.94935779 3.34183619 -0.00658957 0.00544566 0.00294741
C 16.14031529 1.30440183 2.67517608 0.00349944 0.00698402 -0.01171063
C 22.50253602 3.64867814 2.68761327 0.00371703 0.00404846 0.00321225