2880
Time=62000.00000005 pbc="T T T" Lattice="39.54244315 0.00000000 0.00000000 0.00000000 28.98616387 0.00000000 -12.04629118 0.00000000 24.47598162" energy=-18395.03332323 virial="75.22639947 16.02561377 -65.35587764 16.02561377 2.52208731 27.59252446 -65.35587764 27.59252446 -25.99834309" stress="0.00519263 0.00055289 -0.00236774 0.00055289 0.00240402 0.00097854 -0.00236774 0.00097854 0.00153007" Properties=species:S:1:pos:R:3:vel:R:3
C 3.10060849 3.53601583 5.03380268 0.00095567 -0.00612719 0.00391809
C 0.34412349 8.72055347 1.02801517 -0.00348851 0.00694520 -0.00985804
C 7.08309630 5.82677367 0.74797979 0.00270258 0.00306738 0.00298170
C 9.95427078 1.24497984 5.25437224 0.00320267 -0.00063049 0.00634734
C 4.31965331 3.42899440 4.39668786 0.00301512 -0.00041699 0.00056607
C 12.02116441 8.35707917 1.56148229 -0.00047776 -0.00458502 -0.00303017
C 5.89982534 6.14729129 1.46441839 -0.01004742 0.00050823 -0.00317128
C 37.23488513 1.25869286 4.27689393 0.00566102 -0.00411769 -0.00125631
C 5.28896782 2.55652992 4.79789853 -0.00778900 -0.00011950 0.00236702
C 11.00154494 7.59736844 0.97367582 -0.00122915 -0.00226878 -0.00385447
C 5.06128435 7.12414963 1.01282285 -0.00785653 -0.00117304 0.00017784
C -1.31426738 2.15525811 4.68101777 0.00607380 -0.00211737 0.00801868
C 5.17609602 1.83565324 5.97995017 0.00082233 -0.00153499 0.00750035
C -0.79507318 6.82528195 24.32990638 -0.00107351 0.00039277 0.01082786
C -6.79636479 7.82499213 24.32575700 0.00008625 0.00301502 -0.00491636
C -1.46791346 2.93868618 5.87885340 -0.00410149 -0.00067908 0.00206942
C 6.90764932 1.92877281 0.59096252 -0.00096411 -0.00938984 -0.00226666
C 9.95798989 6.74982074 5.69421722 -0.00246845 -0.00263093 -0.00358404
C 3.13777262 7.33330035 5.15186896 -0.00076191 0.00295556 -0.00296103
C 0.37961725 3.10128352 0.37673506 0.00141308 0.00313343 0.00416840
C 5.87873502 2.76198052 0.16462702 -0.00095616 -0.00018384 0.00165106
C -2.62696428 7.61577671 5.79706138 -0.00341839 -0.00207045 -0.00425961
C 4.22559935 6.72600762 5.73827677 -0.00681893 -0.00137208 0.00188510
C 12.42882349 1.72157140 0.18832618 0.00448202 -0.00824322 0.00607092
C 2.14975214 5.07407819 3.43240953 -0.00417074 -0.00398457 -0.00743036
C 1.67085388 0.42505348 2.53315346 -0.00662616 0.00107673 0.00578447
C 8.34034841 4.68258734 2.41904139 0.00932941 0.00458547 0.00472642
C 8.61223501 9.46784154 3.52316477 -0.00526652 -0.00254346 -0.00719450
C 0.92715327 5.92330787 3.12212745 -0.00479518 -0.00590110 0.00277001
C 2.95220758 1.04034679 2.91135927 0.00148102 -0.00980720 -0.00337323
C 9.55726638 3.86518581 2.66944580 -0.00582835 0.00611119 0.00181276
C 7.48782153 8.43358120 3.35768611 0.00059299 -0.00419118 0.00144076
C 0.00882670 3.77586553 11.22038365 -0.00558445 -0.00622126 0.00579724
C -2.74730780 8.39457651 6.99122348 0.00757595 -0.00093932 0.00719356
C 4.03744914 5.94603505 6.90336001 -0.00713085 -0.00517732 -0.00126346
C 6.69114245 1.15363293 11.23313113 -0.00571419 0.00219710 0.00869894
C 1.16559771 3.61832629 10.47369734 0.00018299 0.00692193 -0.00374720
C 9.47373499 8.53477399 7.71349976 -0.00648460 -0.01151664 0.00791146
C 2.84437443 5.88102558 7.56299839 -0.00389861 -0.00001430 -0.00064061
C 34.31573011 1.18012482 10.56412786 -0.00187512 0.00206536 0.00127982
C 2.23373789 2.83523728 10.93859739 0.00653490 -0.00022802 -0.00699962
C 8.49900183 7.66036813 7.40627290 0.00521933 0.00151048 -0.00104789
C 1.79445662 6.62087943 7.02559367 0.00004761 -0.00596994 -0.00119870
C -4.34320038 2.18779826 10.86959683 -0.00701141 0.00085456 0.00173787
C 2.12246286 2.03029131 12.08756277 -0.00450425 0.00161407 -0.00269543
C 8.72882632 6.72672905 6.33136476 0.00120952 -0.00319825 -0.00262785
C 1.92857094 7.48685708 5.96435999 0.00613542 0.00378895 -0.00190355
C -4.59035493 2.99154089 12.03666506 -0.00021401 -0.00144234 -0.00268430
C 3.92750847 1.85568724 6.57813840 -0.00396479 -0.00622768 0.00589604
C 6.58928155 6.59958356 11.60996025 -0.00179778 -0.00477264 -0.00472007
C 0.24410850 7.49766840 11.61162478 -0.00150260 0.00287632 -0.00032479
C -2.80087688 3.04248251 6.39382113 -0.00081477 0.00320804 -0.00797363
C 2.90356480 2.68790981 6.12347133 0.00373478 -0.00626197 0.00277552
C -5.24965928 8.00895218 12.15592221 0.01079565 -0.00819221 0.00290948
C 1.20868347 6.60566447 11.99323048 0.00971779 -0.00642786 0.00025613
C 9.74836219 1.95894340 6.47624676 0.00453790 0.00558981 -0.00146332
C -1.22611415 5.02005986 9.53832255 0.00510906 -0.01022909 0.00649350
C -1.57518854 0.11898800 8.68614410 -0.00392361 0.00097596 -0.00209245
C 5.27071200 4.60227520 8.50265441 -0.00270489 -0.00105880 -0.00339436
C 5.49029034 9.32348820 9.33100071 0.00110267 0.00056752 0.00487461
C -2.27632245 6.02642293 9.19461934 -0.00098529 -0.00052326 -0.00353270
C -0.30797215 0.86562301 8.87186358 0.00321881 -0.00802736 0.00141782
C 6.39848016 3.65329221 8.63353964 -0.00814462 -0.00350079 -0.00409506
C 4.37673542 8.38906725 9.15002392 0.00025444 0.00366507 -0.00436371
C -3.05051480 3.63885290 17.34506498 -0.00482035 0.00253847 0.00144440
C -5.50133545 8.70763917 13.34285994 0.00105088 -0.00411343 -0.01059984
C 0.95549204 5.76065584 13.12005429 -0.00570094 0.00315060 0.00030448
C 3.72427820 1.09151958 17.42708966 0.00157425 -0.00169852 0.00006170
C -1.88250963 3.55858818 16.59898130 0.00274868 0.00109518 -0.00417948
C 6.11717260 8.31997445 13.77791159 -0.00124396 0.00126050 -0.00847504
C -0.25450155 5.91245038 13.77969936 -0.00138434 0.00207513 0.00460748
C 31.29626388 1.24754927 16.74207168 -0.00125834 0.00076689 -0.00167172
C -0.97675396 2.57027268 16.92668873 0.00489213 -0.00065343 0.00283352
C 5.11966982 7.44937068 13.37329327 -0.00269344 0.00362751 -0.00452999
C -1.22838360 6.88594665 13.38410047 -0.00182949 0.00011447 0.00025439
C -7.25151316 2.17844757 17.11501308 -0.00202449 0.00148532 0.00126394
C -1.23048589 1.59152846 17.91130213 0.00433586 -0.00066751 -0.00187905
C 5.31487669 6.61772156 12.26774838 0.00290339 -0.00456224 -0.00129801
C -0.99384265 7.69511090 12.27178636 0.00119135 0.00855888 0.00462617
C -7.32112521 2.93903042 18.30983160 -0.00081434 0.00129511 -0.00067759
C 0.95225454 2.16443832 12.88320153 0.00022678 -0.00163432 -0.00495459
C 3.78267400 6.85866886 17.66870227 0.00186222 0.00248567 0.00770408
C -2.70071063 7.48459160 17.99426734 0.00522576 -0.00097287 -0.00447732
C -5.86999312 2.94440985 12.61275623 -0.00363787 0.00067697 -0.00314429
C -0.10734294 2.94765416 12.42429437 -0.00225357 0.00322959 -0.00098525
C -8.44193942 7.59895666 18.06120682 0.00258837 -0.00601449 0.00002555
C -1.69725544 6.62865106 18.41752766 0.00257348 -0.00124941 -0.00012363
C 6.41274245 2.02993635 12.27826438 0.00289776 0.00337543 0.00368511
C -4.08749594 5.11850688 15.76507086 -0.00337511 -0.00295009 -0.01014391
C -4.62522704 0.35194198 14.88687540 0.00054213 0.00139838 0.00145943
C 2.21186913 4.52103730 14.67343757 0.00020312 0.00255814 0.00530085
C 2.21055241 9.32472386 15.73177955 -0.00767389 0.00192804 -0.00391735
C -5.15280952 6.11960993 15.59031198 -0.00205671 -0.00071631 -0.01409046
C -3.51811698 1.27878865 15.24269543 0.00175607 -0.01156739 0.00125883
C 3.30155031 3.53391299 14.82060367 -0.00291415 0.00596715 0.00317132
C 0.86270242 8.63269866 15.42601347 -0.00170427 0.00358173 0.00131944
C -5.96772663 3.52741234 23.48298177 0.00553504 0.00048291 0.00054495
C -8.60735599 8.34496079 19.25998522 -0.00259978 0.00927964 -0.00435514
C -1.99558038 5.71580918 19.44520243 -0.00837066 0.00396964 0.00006256
C 0.69084562 0.92771803 23.50818122 -0.00204014 0.00208703 -0.00634081
C -4.79638886 3.39523021 22.72422149 -0.00774551 -0.00256817 0.00215362
C 3.53105553 8.21754450 19.99097652 0.00325297 0.00352231 -0.00050892
C -3.16771732 5.82025098 20.18006243 -0.00052901 0.00128198 0.00302992
C -11.02691762 1.46480261 22.73585179 0.00471122 -0.00009136 -0.00437627
C -3.91010216 2.42022951 23.03117116 0.00644561 0.00853425 0.00425942
C 2.49714077 7.39558225 19.58122818 -0.00246228 -0.00204807 0.00417894
C -4.13952111 6.74023726 19.76365634 -0.01026075 0.00216022 0.01063541
C -10.13155546 2.34345194 23.16987039 -0.00105030 0.00106000 -0.00149004
C -3.96432300 1.82053790 24.30599144 0.00382019 0.01044687 0.00274284
C 2.58264968 6.70461150 18.36743062 0.00067934 0.00098755 -0.01042983
C -3.92765794 7.52466969 18.65541728 -0.00025168 0.00362030 -0.00377292
C -10.37350965 3.17811843 24.35428400 0.00912083 0.00138456 -0.00507351
C -2.41185517 1.68212314 18.64311861 -0.00427293 0.00089083 0.00526452
C 0.53650221 6.88893331 23.72067055 -0.00042950 -0.00260530 0.00491299
C -5.59136259 7.49616544 23.62438395 0.00416779 -0.00367715 -0.00135285
C -8.62537897 2.80395704 18.99310989 -0.00721027 -0.00268642 -0.00156469
C -3.24281273 2.67448615 18.44616945 0.00225798 -0.00050075 0.00280291
C -11.45859266 7.93539796 24.36039130 0.00346175 -0.00137684 -0.00019732
C -4.65510398 6.52779225 24.07730212 0.00492020 -0.00213965 -0.00231052
C 3.56115965 2.00972923 18.43211149 -0.00177100 0.00102096 0.00638060
C -7.06473742 5.07978533 22.04440668 0.00665814 0.00001561 0.00063431
C -7.51324505 0.21335771 20.98617956 -0.00781095 -0.00308718 0.00654666
C -0.92469483 4.17455878 20.87719679 0.01348241 0.00195957 -0.00104451
C -0.42384988 9.35555615 21.87667125 -0.00053957 -0.00675447 0.00965650
C -8.08702556 6.18040075 21.79266445 0.00150910 0.00617302 0.00307705
C -6.28163056 1.02682540 21.18326648 0.00272094 0.00068541 0.00026131
C 0.22497066 3.24101650 21.09720587 -0.00418808 0.00456621 -0.00279652
C -1.51333960 8.42950835 21.54281063 0.00452811 -0.00015091 0.00065316
C 3.03396319 13.33638252 5.25895328 0.00452815 -0.00791867 -0.00733800
C 0.34216280 18.18869523 1.04106499 -0.00199025 -0.00217886 0.00079089
C 7.00707498 15.65024329 1.03616261 -0.00564841 0.00148467 0.00140934
C 9.78146564 10.77285092 5.11832674 -0.00251014 0.00402220 0.00041574
C 4.26796457 13.41830802 4.53320230 -0.00044113 0.00311456 0.00372578
C 12.32986784 17.90409639 1.69199135 0.00242910 -0.00064874 -0.00226783
C 5.86862891 15.80071696 1.83673313 -0.00165789 -0.00059633 -0.00035577
C 37.21474207 10.99462539 4.49618259 -0.00109538 -0.00376224 -0.00000300
C 5.32352042 12.53075481 4.86222934 0.00321556 -0.00363710 0.00756087
C 11.29109774 16.99300626 1.31027590 0.00215003 0.00024201 0.00808763
C 4.79419553 16.55078994 1.37644885 -0.00313121 -0.00354886 -0.00712986
C -1.35547572 11.90937378 4.90810332 0.01388323 -0.00440366 0.00179497
C 5.14948113 11.53443854 5.86153103 0.00032036 0.00520512 -0.00021700
C 11.45669408 16.18472054 0.18295847 -0.00103314 0.00111691 -0.00349608
C 4.98925996 17.34594791 0.20750560 0.00227838 0.00168161 -0.00663319
C -1.62490032 12.69531502 6.07793121 0.00455116 0.00284431 -0.00653647
C 6.94307194 11.61048715 0.49945777 0.00419350 0.00408113 -0.00008622
C 9.65445434 16.60204141 5.62144553 0.00020480 0.00053738 0.00634872
C 3.20632446 17.38950817 5.50092965 0.00548864 -0.00642958 -0.00262218
C 0.19146855 12.56925810 0.49795947 0.00412206 0.00394435 0.00240342
C 6.02949306 12.61171505 0.20660543 -0.00337302 0.00005951 0.00114150
C -2.35961684 17.39653606 6.05332572 -0.00104802 0.00544147 0.00419469
C 4.20892148 16.52599282 5.87654071 -0.00173451 0.00003024 0.00120557
C 12.52371222 11.63922763 0.08337585 0.00837604 -0.00167451 -0.00296971
C 1.70359612 14.74178440 3.80497931 0.00552215 -0.00501417 0.00954915
C 1.53796549 10.10297483 2.65562340 -0.00189776 -0.00466017 -0.00595171
C 8.26746775 14.28171384 2.58395868 0.00327185 -0.00120989 -0.00193271
C 8.70275031 18.96899629 3.55909527 -0.00499871 -0.00746659 -0.00488899
C 0.53378143 15.58619677 3.67962741 0.00350968 0.00871534 0.00059208
C 2.83442936 10.83070821 2.64713136 -0.00321089 -0.00623262 -0.01126011
C 9.44615824 13.30862406 2.71836013 0.00426944 -0.00556796 0.00019918
C 7.50083815 18.14721754 3.29801331 0.00054082 0.00269945 -0.00634461
C 0.29006416 13.27613448 11.33565371 0.00647101 0.00090577 0.00756029
C -2.52669585 18.17780351 7.22057385 0.00347747 -0.00334399 0.00190839
C 4.06556021 15.68590223 7.02798549 -0.00081170 -0.00426421 -0.00169722
C 6.55833665 10.71600768 10.97105933 -0.00298251 -0.00430380 -0.00356608
C 1.43548073 13.13311494 10.54225244 0.00267438 0.00023166 0.00619892
C 9.22258865 18.23214318 7.78222184 -0.00295514 0.00231822 -0.00245840
C 2.84572804 15.75387140 7.69030093 0.00429761 -0.00039279 -0.00359939
C 34.07404640 11.05384006 10.67573108 0.00567084 -0.01063075 0.00027544
C 2.43149699 12.24510181 10.84434819 0.00077718 -0.00207265 -0.00302472
C 8.23552574 17.41924364 7.31727975 0.00323899 -0.00032914 -0.00722380
C 1.83183587 16.54518373 7.30437787 0.00056821 -0.00667947 0.00106521
C -4.46030763 11.88497218 11.11086375 0.00465246 -0.00405507 0.00339889
C 2.21190338 11.32543887 11.95095155 -0.00126268 0.01394831 -0.00361356
C 8.41792950 16.46570269 6.25218510 -0.00035713 -0.01085484 -0.00244900
C 2.01481326 17.42134956 6.22558664 -0.00356273 -0.00043817 -0.00133302
C -4.50527571 12.61471834 12.30002006 0.00254126 -0.00580714 0.00307582
C 3.92552222 11.57175676 6.59256907 -0.00083736 -0.00135486 0.00423770
C 6.69811121 16.70742498 11.73738221 0.00426974 -0.00433492 0.00593850
C 0.42257771 17.44576029 11.85453947 0.00330066 0.00464239 -0.00052719
C -2.84289798 12.58239960 6.66293897 -0.00917499 -0.00308745 0.00025878
C 2.90324726 12.45131479 6.31178600 0.00624677 -0.00015734 0.00640776
C -5.40305272 17.05239924 12.29191143 -0.00299008 0.00182029 -0.00187259
C 1.28135240 16.46766677 12.11757379 0.00014471 0.00119335 0.00043275
C 9.57375451 11.61873930 6.21644517 -0.00082107 -0.00555369 -0.00452259
C -0.87540599 14.95465276 9.84896950 0.00004138 0.00049647 0.00012204
C -1.42364437 9.76738476 8.50015590 -0.00298094 0.00204159 0.00081461
C 5.21462222 14.29119092 8.72074767 0.00535220 -0.00370438 -0.00296719
C 5.62589887 19.32729646 9.77328830 -0.00374090 0.00051613 0.00116595
C -1.96293869 15.99745036 9.78665572 0.00410008 0.00011488 0.00343376
C -0.31641412 10.69501233 8.70235728 0.00458081 -0.00015493 -0.00795856
C 6.50041612 13.49879550 8.89482853 -0.00617787 -0.00191591 -0.00584385
C 4.53816232 18.28320104 9.66353676 0.00297970 -0.00348551 0.00580488
C -2.66534839 13.59591321 17.61217557 -0.00005179 -0.00085100 -0.00278667
C -5.62248402 17.89758871 13.39129324 0.00698530 0.00750527 -0.00084066
C 1.16085297 15.64946150 13.25569799 0.00090869 -0.00794239 0.00308604
C 3.50545142 10.60135030 17.37098681 0.00462353 0.00537054 0.00554195
C -1.44783655 13.48043880 16.92294952 0.00228088 0.00787132 0.00427090
C 6.37032231 18.41531424 13.96835804 0.00519400 -0.00319347 -0.00359446
C 0.02094373 15.80955899 14.09265030 0.00697962 -0.00269736 -0.00101887
C 31.20485212 10.91267798 16.67772163 0.00160160 0.00275827 -0.00977697
C -0.38340635 12.71765198 17.41760274 -0.00173802 0.00482759 -0.00265408
C 5.37069962 17.48723800 13.61663255 0.00176148 0.00282941 0.00274484
C -0.96835775 16.71333874 13.69731554 0.00307289 0.00062103 0.00477704
C -7.30680344 11.57896920 17.21140534 -0.00186834 -0.00530010 -0.00162314
C -0.60782209 11.84331782 18.48853545 -0.00535560 0.00489497 0.00241486
C 5.49758019 16.70372478 12.48847209 -0.00450879 -0.00571147 -0.00000437
C -0.80571258 17.53070420 12.51087955 0.00202138 0.00494759 0.00180133
C -7.46632922 12.36592051 18.39048915 0.00022997 -0.00465271 -0.00449580
C 1.05834715 11.48499296 12.72058801 -0.00307661 -0.00082044 0.00348489
C 3.91229673 16.59028218 18.08905709 -0.00565644 -0.00000645 -0.00298694
C -2.63348085 17.66526389 18.29562442 -0.00156375 0.00338684 -0.00269166
C -5.77925045 12.60533426 13.00200866 0.00068199 0.00385457 0.00088160
C 0.08893005 12.39704939 12.39767840 0.00255726 -0.00020782 0.00203207
C -8.27902034 17.41346564 18.40599529 0.00001203 0.00182558 0.00411926
C -1.69295518 16.67667224 18.59250726 -0.00487071 -0.00240924 -0.00084439
C 6.39185867 11.47553346 12.15108600 0.00570652 0.00065382 0.00330539
C -3.71520983 14.92272855 16.02497083 0.00325928 -0.00121612 0.00052180
C -4.42397295 10.00240586 14.98871723 0.00114318 0.00219913 -0.00149646
C 2.43078473 14.26468497 14.77534870 -0.00175720 0.00238933 0.00053034
C 2.59725428 19.22954669 15.95021507 -0.00600874 -0.00610160 0.00283230
C -5.05010051 15.56580288 15.75138282 -0.00010937 0.00176981 0.00324855
C -3.36972853 11.03295442 15.23951760 0.00600112 0.00121738 -0.00014256
C 3.62192708 13.29200972 14.86852545 0.00176041 0.00475016 -0.00165256
C 1.27563242 18.54676769 15.75686604 0.00471713 -0.00555717 -0.00360949
C -5.86287912 13.41960481 23.56514620 -0.00338662 -0.00594809 0.00255760
C -8.56207986 18.33709264 19.44851494 -0.00092311 0.00298841 -0.00244974
C -1.89980207 15.76493016 19.64473864 0.00463240 -0.00758114 0.00292219
C 0.59270744 10.83619266 23.44471928 0.00206924 0.00043202 -0.00035449
C -4.73571685 13.18225211 22.70698387 0.00220644 0.00132043 -0.00254445
C 3.27256361 18.30279356 20.19281589 0.00145108 -0.00206404 0.00314257
C -3.15303601 15.69701703 20.25547236 0.00314681 0.00382334 -0.00365760
C 28.17865906 10.88978082 22.84868431 0.00481062 -0.00347897 0.00013587
C -3.75328771 12.27788276 23.07349950 0.00256386 -0.00272236 0.00681793
C 2.27215576 17.45870893 19.70852310 -0.00611701 -0.00275646 -0.00199688
C -4.16714274 16.56943093 19.83919024 -0.00263554 -0.00267217 -0.00092303
C -10.44163791 11.91221549 23.15204815 0.00066866 0.00049808 -0.00017342
C -3.98008931 11.48506647 24.22474138 0.00400677 0.00290548 -0.00116707
C 2.63550164 16.52285058 18.65836457 0.00564129 0.00140629 -0.00261460
C -3.95401554 17.52636116 18.80917312 -0.00088179 -0.00472025 -0.00028228
C -10.66124071 12.62351560 24.36117435 0.01028938 -0.00489277 -0.00563086
C -1.87147856 11.97193584 19.22559461 0.00110430 0.00104059 -0.00201487
C 0.58859975 16.39765845 23.85617848 0.00087282 0.00248650 -0.00001655
C -5.87999465 17.33080946 23.96547127 0.00054527 0.00020268 -0.00074998
C -8.70080245 12.26186920 19.09173817 0.00330338 -0.00340416 0.00367551
C -2.85933892 12.76437513 18.78687348 0.00062359 -0.00083981 -0.00257450
C -11.53942258 17.34135457 24.39460264 0.00374685 0.00486302 -0.00070440
C -4.89000403 16.47836397 24.37479477 -0.00575741 -0.00468218 0.00182564
C 3.43071426 11.39410206 18.47346092 -0.00320648 -0.00208041 0.00381060
C -7.34412831 14.72623533 22.11228031 0.00513191 0.00119273 -0.00435699
C -7.40948549 9.85704940 20.71528195 0.00144260 -0.00760010 -0.00668628
C -0.64723823 14.15570555 21.06043834 0.00106936 0.00050214 -0.00285448
C -0.29094451 19.26409076 21.92722058 0.00077802 0.00074265 -0.00745149
C -8.50939226 15.59180334 22.09197641 0.00163415 0.00203763 -0.00249813
C -6.20495068 10.62108886 20.86791325 0.00057431 0.00915250 -0.00133045
C 0.64408753 13.31862641 21.14924412 -0.00787043 -0.00280830 0.00240710
C -1.52101475 18.53631324 21.65869950 0.00611362 -0.00370248 0.00571101
C 3.20048250 23.16909019 4.94058218 -0.00724743 0.00080445 0.00566756
C 0.43637186 28.26926268 0.80379113 -0.00458032 -0.00659042 -0.00099672
C 7.04923137 25.29454314 1.08227131 -0.00676261 0.00559970 0.00169599
C 9.68472092 20.54541645 5.07141836 0.00726940 0.00296783 0.00148182
C 4.41638398 23.08754438 4.16853159 -0.00125794 0.00758917 0.00108881
C 12.39785834 27.93182987 1.71843205 0.00246478 0.00497688 0.01033579
C 5.81803639 25.39439658 1.75539953 0.00300961 -0.00474855 0.00326260
C -2.26947130 20.59453817 4.64291093 0.00691015 -0.00797363 -0.00250139
C 5.35244161 22.17988351 4.60924830 0.00203673 0.00091610 0.00131786
C 11.51478037 26.97241219 1.28512727 -0.00057296 -0.00296353 -0.00147997
C 4.85110325 26.26119595 1.25862253 -0.00336301 0.00039918 0.00113388
C -1.27750104 21.49688118 5.17601587 -0.00078094 0.00210358 0.00284214
C 5.24569532 21.40878177 5.80992141 0.00158721 0.00407778 -0.00408972
C 11.80548082 26.01359000 0.21687162 0.00183657 -0.00123700 -0.00059697
C 5.01397122 26.85132650 0.00943585 0.00256398 -0.00225202 0.00386326
C -1.49970863 22.19678276 6.37143055 -0.00146245 0.00120161 -0.00207462
C 7.21591776 21.20181380 0.67300539 0.00065451 -0.00349061 0.00011869
C 9.69950205 26.51552913 5.44381885 -0.00099932 0.00006736 -0.00789158
C 3.21891960 26.98003039 5.59627650 -0.00252889 0.00495215 -0.00062144
C 0.61337499 22.13525001 0.76114888 -0.00318446 0.00558946 0.00287714
C 6.23439229 22.08583195 0.18350047 0.00534078 0.00593481 0.00497499
C -2.63289553 27.00073358 5.94148058 -0.00418853 0.00316370 0.00074297
C 4.12091258 26.07861861 6.10450690 -0.00399477 -0.00290502 -0.00299290
C 12.89597380 21.24699457 0.31252861 0.00127013 0.00200802 0.00910718
C 1.89867507 24.51026871 3.34579320 -0.00519702 -0.00213594 -0.00807553
C 1.62904684 19.61813690 2.49723651 0.00415086 -0.00406499 -0.00074888
C 8.19450370 23.91563420 2.73921080 0.00179460 -0.00873353 -0.00437408
C 8.78784509 0.08442996 3.52611607 -0.00121879 0.00163330 0.00319228
C 0.71785616 25.33093337 3.05908367 -0.00396596 -0.00163956 -0.00397291
C 2.96991473 20.33452503 2.59183192 -0.00164929 0.00244496 -0.00886357
C 9.46740613 23.15590397 2.99057979 0.00304342 -0.00030419 -0.00396757
C 7.58530847 28.28031543 3.29198059 0.00408734 -0.00017746 -0.00277484
C 0.09163732 22.98888419 11.28084117 -0.00521355 0.00079404 0.00717469
C -2.79774708 27.82589436 7.05026212 -0.00162185 0.00230841 0.00575395
C 3.83024060 25.18325864 7.18501380 0.00107999 0.00152948 -0.00752659
C 6.90017143 20.68836621 11.37470966 -0.00158005 -0.00213379 0.00155361
C 1.26404734 22.81683088 10.49240291 -0.00334064 0.00035209 0.00819281
C 9.53442846 27.65858797 7.87198706 -0.00063034 -0.00273129 -0.00060378
C 2.57075937 25.31497336 7.78786517 -0.00249654 -0.00879100 -0.00117376
C 34.22400556 20.14036074 10.68284143 -0.00224249 -0.00253177 -0.00365643
C 2.32782560 22.01592314 10.96540465 0.00211835 -0.00024822 0.00029080
C 8.51982937 26.77139544 7.48894763 -0.00615845 -0.00832175 -0.00397287
C 1.60449267 26.15604785 7.18019086 0.00109413 -0.00348527 0.00480992
C -4.25176420 20.98979065 11.05778413 -0.00252328 -0.00166881 -0.00042723
C 2.27167187 21.28692420 12.18435233 0.00529485 -0.00292289 0.00416545
C 8.52752094 26.31458457 6.20565240 -0.00399666 -0.00203629 0.00239140
C 1.85569948 26.91142619 5.98814492 -0.00175388 -0.00157557 0.00482719
C -4.30063398 21.74204084 12.24497154 0.00054425 0.00667960 0.00312552
C 4.00953163 21.48991604 6.55078122 -0.00311387 -0.00597634 0.00474272
C 6.76817624 26.41045220 11.77078287 0.00353875 0.00031051 0.00076555
C 0.10508047 26.74628179 11.56540247 0.00381297 -0.00021508 -0.00248446
C -2.62938608 21.89814312 7.07080933 -0.00063380 -0.00333155 0.00238677
C 3.00997314 22.30481898 6.04285594 -0.00550103 -0.00536873 0.00085322
C -5.56703604 27.13018913 12.15422477 -0.00150936 0.00631678 0.00531006
C 1.15219317 25.92647344 12.02756750 0.00095390 -0.00253030 0.00051205
C 9.50966792 21.39286902 6.19336230 -0.01003376 0.00112224 0.01176546
C -1.27570085 24.44717384 9.81654433 0.00344145 0.00375195 -0.00255205
C -1.29153127 19.56034829 8.84660764 -0.00389278 0.00228139 -0.00244814
C 5.08550653 23.90163960 8.82003278 -0.00101231 0.00449820 0.00457381
C 5.44657264 28.54708175 9.78602577 0.00150879 0.00020019 0.00085839
C -2.47071658 25.31796888 9.82914428 -0.00307552 -0.00333790 0.00318761
C -0.14162194 20.50212160 9.04486277 -0.00570307 -0.00089149 -0.00052190
C 6.27065791 23.02179781 8.90875471 -0.00222216 -0.00372933 0.00433258
C 4.20318042 27.68197544 9.81658253 -0.00961801 -0.01172019 -0.00343262
C -2.84222013 22.94403687 17.42235290 -0.00518548 -0.00635183 -0.00442772
C -5.75543023 27.93670414 13.32165670 -0.00221254 0.00407842 0.00361084
C 1.03889830 25.18904070 13.17021696 -0.00444876 -0.00036746 0.00411545
C 3.83833925 20.66033620 17.46010469 -0.00169638 0.00781463 -0.00704136
C -1.63247244 23.02734596 16.66909029 -0.00447573 -0.00303430 -0.00126229
C 6.46455915 27.82396256 14.08140975 0.00321680 0.01007378 0.00461119
C -0.10528359 25.27335240 13.89221392 0.00069466 0.00162833 0.00717304
C -8.21164559 20.49286068 16.80048916 0.00295368 0.00242144 0.00413188
C -0.55922652 22.28023250 17.13526262 -0.00134126 0.00052534 -0.00026916
C 5.50847949 26.93994795 13.67336440 -0.00164332 0.00020765 0.00894615
C -1.15107394 26.10798977 13.49967612 0.00271648 -0.00325524 -0.00012891
C -7.25549719 21.30551490 17.29249026 0.00253681 -0.00306962 -0.00742102
C -0.68940908 21.49638240 18.24357701 -0.00033702 -0.00987616 0.00929293
C 5.57694689 26.19850532 12.51306433 -0.00016453 0.00492829 0.00208019
C -1.04678445 26.83676819 12.29574530 0.00080805 0.00217335 -0.00232310
C -7.52543129 22.31340010 18.30720553 -0.00419673 -0.00258093 -0.00303485
C 1.09264940 21.53068767 12.92532021 0.00197183 0.00035062 0.00033173
C 3.69840485 26.16825448 17.97407678 -0.00131159 0.00423824 -0.00089659
C -3.01586947 26.70971776 17.78706860 0.00114242 0.00310487 0.00236243
C -5.56486039 21.83406916 12.90182635 -0.00333462 0.00119646 0.00341903
C 0.01919776 22.26423117 12.46000539 0.00323244 -0.00574927 -0.00179655
C -8.47634048 27.14135751 18.10386886 0.00097216 0.00090417 -0.00403388
C -2.00545704 25.92228132 18.26038870 -0.00059524 -0.00212545 0.00259369
C 6.82780210 21.52052685 12.47884221 0.00027095 -0.00393655 -0.00186903
C -4.05622765 24.39509212 15.74927288 -0.00409651 -0.00147869 0.00831918
C -4.43089360 19.23982010 14.95543184 -0.00766739 -0.00133962 -0.00364635
C 2.44198581 24.10174122 14.90069132 0.00160914 -0.00538535 0.00277937
C 2.65944717 28.71099478 15.75378646 0.00699205 -0.00608396 0.00254614
C -5.26075161 25.27347179 15.44221308 0.00496979 -0.00510684 -0.00014085
C -3.32840223 20.18767887 15.15443623 0.00107430 -0.00053301 0.00051227
C 3.69571013 23.28111815 15.07593262 -0.00190902 -0.00254746 0.00179310
C 1.44097973 27.88936498 15.53784560 0.00133016 0.00293853 0.00393492
C -5.45399491 22.98586421 23.64123847 0.00107723 -0.00039382 0.00150727
C -8.65876718 27.81694934 19.30081247 -0.00067519 0.00052345 -0.00182472
C -2.16895333 25.10292723 19.31499349 0.00169480 -0.00160491 -0.00362796
C 1.03371065 20.49718683 23.60268763 -0.00066570 -0.00126065 -0.00395515
C -4.15249519 23.00925473 23.07491400 -0.00028481 -0.00446005 -0.00101168
C 3.32486640 27.91989666 20.08979798 0.00146946 -0.00407931 -0.00108557
C -3.46554857 25.13556528 19.88392318 0.00302100 -0.00432011 -0.01003237
C -11.20828009 20.60600430 22.87094736 -0.00123714 -0.00444563 -0.00401922
C -3.19802097 22.23346938 23.56723977 -0.00261720 -0.00283997 0.01004937
C 2.24091207 27.24929410 19.65083563 -0.00101239 -0.00258049 0.00120738
C -4.51437085 25.97135702 19.50422521 -0.00106630 -0.00357068 -0.00397861
C -10.14852909 21.36574519 23.34022404 -0.00091455 -0.00129325 -0.01091104
C 8.56398750 21.30072210 0.14948201 -0.00128540 0.00285141 0.00821597
C 2.41420319 26.34622324 18.52889782 0.00053722 -0.00741726 0.00114429
C -4.25690169 26.85171066 18.44151932 0.00772411 0.00029118 -0.00149479
C 1.85641120 22.07388827 0.09072755 0.00105707 0.00186588 0.00476771
C -1.94917400 21.44595479 18.96426609 0.00083222 0.00297611 -0.00152820
C 1.08934653 26.08202661 24.15972096 0.00060578 0.00503174 0.00985436
C -5.81053187 26.67893621 23.80778367 -0.00551530 -0.00725662 0.00725408
C -8.82690491 22.22835913 18.92708109 -0.00546639 -0.00414887 0.00315664
C -3.04697961 22.05974026 18.46969464 -0.00669687 -0.00217140 -0.00127826
C -11.33838799 27.41730986 24.21258216 -0.00450457 0.00173212 0.00435910
C -4.78518065 26.04161264 24.45017033 0.00093084 -0.00537485 0.00805665
C 3.63969807 21.54487601 18.54850263 0.00743078 -0.00658900 -0.00292721
C -6.70831257 24.12216361 21.93683333 -0.00119900 -0.00273736 -0.00480476
C -7.14051504 19.63723386 20.98059104 0.00870216 0.00236364 -0.00535455
C -0.80317268 23.96060497 20.96180864 0.00141418 0.00894849 -0.00086726
C -0.52644341 28.64796099 21.84701276 -0.00285301 -0.00779086 -0.00064612
C -8.11686222 24.78873054 21.69474784 0.00030828 -0.00219270 -0.00717244
C -5.87507616 20.41911584 21.13934506 -0.00269706 0.00355459 -0.00206506
C 0.52255668 23.13770728 21.14683631 0.00216689 0.00393923 0.00465974
C -1.68248304 27.62613930 21.67966520 0.00335883 0.00314737 -0.00216548
C 16.50091618 3.67869308 5.22663099 -0.01035736 -0.00342605 0.00103661
C 13.31891292 8.38888845 0.99666177 0.00020566 -0.00228114 0.00258946
C 20.28561558 5.72915077 0.93439052 -0.00745661 -0.00075933 -0.00298963
C 23.22102918 1.10716135 5.27552200 -0.00181681 0.00450888 0.00049599
C 17.72957224 3.56638879 4.59379419 0.00099337 -0.00010250 -0.00059003
C 25.55275044 8.65296326 1.47081728 0.00410344 0.00262937 0.00095076
C 19.08910144 5.90935917 1.65824201 -0.00613841 0.00160384 -0.00584780
C 11.12106647 1.39754118 4.52244332 0.00133861 0.00383323 0.00538838
C 18.73413542 2.78191952 5.17056021 -0.00599884 0.00192870 -0.00762601
C 24.57551571 7.73836221 1.12931335 -0.00587538 -0.00268805 0.00006933
C 18.14318508 6.81342769 1.25296549 0.00703376 0.00225458 -0.00165467
C 12.14423249 2.15641650 4.98645274 0.00482574 0.00686745 0.00254827
C 18.47778464 1.98436847 6.32723022 0.00799150 -0.00215855 -0.00126101
C 24.79899553 6.85400520 0.07032441 0.00386397 -0.00573748 -0.00016459
C 18.22964540 7.49242304 0.00449535 -0.00928025 0.00384223 -0.00227939
C 11.96066951 2.87255127 6.23622110 -0.00116340 0.00118190 0.00298395
C 20.59761042 2.04360616 1.08849509 0.00600640 -0.00646370 -0.00181363
C 23.19491898 6.86855878 5.63729107 0.00629808 0.00257974 0.00376651
C 16.42464303 7.80414393 5.66179515 -0.00669026 0.00538965 0.00326067
C 13.36076653 2.68968745 0.59660315 -0.00289466 0.00596598 -0.00991179
C 19.47989335 2.68030243 0.56953492 0.00735933 0.00171417 0.00494802
C 10.93363173 7.63158752 6.03993828 -0.00277269 -0.00347340 0.00166810
C 17.40155682 6.86027229 5.94173790 -0.00046560 -0.00271237 -0.00557492
C 25.89068176 1.72690362 0.00682061 -0.00463742 0.00487090 -0.00671142
C 15.22934436 5.01259430 3.63284701 0.00116168 -0.00012706 -0.00381655
C 14.77357326 0.50360402 2.74544174 0.00393074 -0.00188875 -0.00546560
C 21.69179221 4.49625000 2.55522440 0.00145773 -0.00396596 0.00423158
C 21.54008836 9.36124676 3.46708069 -0.00622469 0.00564094 0.00674770
C 14.04375907 5.82666663 3.45259896 0.00302076 0.00598045 0.00526610
C 15.91508796 1.50028746 2.84145340 -0.00538436 -0.00395870 0.00170518
C 23.03979481 3.88992428 2.75933415 -0.00268580 0.00441388 0.00185643