2880
Time=75000.00000007 pbc="T T T" Lattice="39.47922566 0.00000000 0.00000000 0.00000000 28.98883239 0.00000000 -12.03358846 0.00000000 24.42438936" energy=-18398.52902001 virial="-2.06877466 -10.65054442 -28.21621759 -10.65054442 7.79580464 -33.97386718 -28.21621759 -33.97386718 29.67459132" stress="0.00238976 -0.00044185 -0.00106519 -0.00044185 0.00269909 -0.00123629 -0.00106519 -0.00123629 0.00361753" Properties=species:S:1:pos:R:3:vel:R:3
C 3.12476286 3.89924105 5.02701555 -0.00130819 -0.00426298 -0.00164236
C 0.35514139 8.57888286 1.03728231 0.00107236 -0.00799417 -0.00392016
C 6.86376926 6.08892514 1.11199918 0.00103578 0.00426259 0.00347573
C 9.55599503 1.31220954 4.91986333 -0.00372298 -0.00416742 0.00010538
C 4.18581129 3.74219303 4.19531214 -0.00355509 0.00662090 0.00289635
C 12.30424951 8.37741341 1.59406607 -0.00551948 -0.00398271 -0.00277382
C 5.59123049 6.15264141 1.76284742 0.00294812 -0.00116449 0.00199800
C 37.15584770 1.11218295 4.47957886 -0.01101350 -0.00155071 -0.00382758
C 5.22919772 2.89190618 4.57990178 0.00293522 0.00010113 0.00270414
C 11.27267158 7.58207729 1.14944857 -0.00157108 -0.00044094 -0.00144720
C 4.59046085 6.99939562 1.29908197 -0.00475003 0.00285334 -0.00181533
C -1.29800430 1.95707811 4.89128211 -0.00318535 -0.00834436 0.00142022
C 5.05761923 1.97656400 5.67465038 0.00315970 -0.00573204 0.00266044
C -0.60084506 6.83581141 24.38415771 -0.00543636 -0.00836556 0.00113615
C 4.78919091 7.80762952 0.17994915 0.00608944 -0.00594429 -0.00423249
C -1.52686800 2.82806675 6.00986331 0.00415670 -0.00730149 0.00220023
C 6.98761514 1.98388324 0.49390310 -0.00293443 -0.00018719 -0.00350346
C 9.79604238 6.86452698 5.49602276 0.00121247 0.00746076 -0.00016751
C 3.25985367 7.68361217 5.47066741 -0.00615380 0.00293474 0.00736765
C 0.22406973 2.88581283 0.49455892 0.00395814 -0.00271912 -0.00553038
C 5.93435278 2.93943654 0.23568189 0.00557627 -0.00498346 0.00360204
C -2.45309346 7.66903451 5.99455250 0.00382343 -0.00038689 0.00008976
C 4.22001995 6.81969821 5.95530806 0.00128191 0.00604865 0.00219253
C 12.32826573 1.93490666 0.18651703 -0.00159145 0.00233235 0.00485757
C 1.54778589 4.95107463 3.49076503 -0.00585034 -0.00103449 0.00500758
C 1.60764730 0.29768540 2.60288013 0.00296966 -0.00276699 0.00738395
C 8.04135491 4.75960851 2.74181326 0.00086838 -0.00263655 0.00226276
C 8.57958612 9.28836018 3.60446217 -0.00135576 -0.00055115 0.00381594
C 0.21602870 5.51873353 3.43051363 0.00771926 0.00433426 0.00103550
C 2.95490338 1.00390780 2.70673560 -0.00393675 -0.00264521 -0.01158234
C 9.09891228 3.79286422 3.13847722 -0.00468870 0.00429181 0.00010842
C 7.39941689 8.36499719 3.40752166 0.00213183 -0.00075658 0.00499736
C 0.27835149 3.69199699 11.13758532 0.00222719 0.00077023 -0.00873784
C -2.55168086 8.60029828 7.05568442 0.00123793 -0.00021790 0.00213297
C 3.90890694 6.00757832 7.03929159 0.00351349 0.00393180 0.00062258
C 7.06644687 1.26959497 11.24871576 -0.00192738 -0.00564806 0.00807380
C 1.41913214 3.59315117 10.33723412 -0.00848367 0.00241035 -0.00908912
C 9.36687200 8.50642242 7.69219023 0.00572729 -0.00450716 0.00488262
C 2.71011375 6.04599869 7.73432434 -0.00396685 0.00282651 -0.00629123
C -5.27621376 0.99662725 10.76131909 -0.00214218 -0.00284935 -0.00847505
C 2.40233071 2.70329823 10.77101741 -0.00103910 -0.00379419 -0.00287231
C 8.49345716 7.54775877 7.36825762 0.00134222 -0.00150492 -0.00576135
C 1.77230991 6.94675242 7.29179424 -0.00115003 0.00059511 -0.01130995
C -4.22414390 1.85515699 11.09992649 0.00073000 -0.00236093 -0.00589073
C 2.28670667 1.99795433 11.98885327 0.00203930 -0.00048726 -0.00166481
C 8.70473814 6.68418268 6.27276176 0.00216351 0.00021426 0.00066387
C 2.02273502 7.82704680 6.19370160 0.00761046 0.00366289 0.00309193
C -4.45085291 2.74962868 12.13920309 -0.00883910 0.00178333 -0.00242944
C 3.96129019 2.19388205 6.51667536 0.00114632 -0.00011995 -0.00084478
C 6.70474361 6.88396425 11.68072513 -0.00007683 -0.00379873 0.00723064
C 0.06076336 7.74753034 11.55076463 -0.00059236 -0.00489996 -0.00602812
C -2.79765049 2.71070568 6.67615470 -0.00429876 0.00680728 0.00815498
C 3.00702683 3.12869092 6.19392398 0.00133212 -0.00163456 -0.00563954
C -5.44613759 7.79706344 12.03028318 0.00133738 -0.00023498 0.00217581
C 1.05096449 6.92537441 11.97943311 0.00294152 -0.00273280 0.00096611
C 9.37595577 2.16655901 6.03136908 -0.00677427 -0.00188972 -0.00617973
C -1.16295654 5.04515468 9.61964907 -0.00147310 0.00502096 0.00018236
C -1.41973007 0.27048266 8.77527745 -0.00164243 -0.00253774 0.00051657
C 5.23300280 4.81460956 8.66624707 0.00380522 0.00315947 0.00078611
C 5.79826891 9.25050796 9.96241385 0.00130203 -0.00238356 -0.00582906
C -2.37472445 5.82189375 9.42027006 -0.00038061 -0.00249173 -0.00480379
C -0.28210543 1.25101810 8.89154146 0.00231006 -0.00070542 0.00286196
C 6.61813866 4.27248174 8.90325249 0.00343176 -0.00073270 -0.00546063
C 4.59021092 8.39144704 9.82239170 -0.00328979 -0.00014244 0.00490560
C -2.83354565 3.93701745 17.28226127 0.00741856 -0.00453679 0.00739013
C -5.68810824 8.55684608 13.13796089 -0.00378245 0.00755603 0.00479352
C 0.84024918 6.10524783 13.15560223 -0.00070746 0.00369995 0.00517962
C 3.98616304 1.06838938 17.46584139 0.00710761 -0.00229940 0.00072511
C -1.63202827 3.85597388 16.57273150 0.00639753 -0.00788459 0.00779462
C 6.54714903 8.27916351 14.03296733 0.00111985 -0.00387088 -0.00874487
C -0.30925485 6.20660455 13.87304168 0.00088353 -0.00282235 0.00419023
C 31.25350669 0.95872716 16.69461874 0.00228429 0.00637439 0.00036199
C -0.67677779 2.93854823 16.87079088 -0.00157747 -0.00333466 -0.00408051
C 5.51954924 7.44658136 13.70900497 0.00058527 -0.00107917 -0.00505282
C -1.20908840 7.18847919 13.57715178 0.00296895 -0.00355549 0.00747150
C -7.34181814 1.96102098 17.08064181 -0.01156992 -0.00256174 -0.00893687
C -0.83011691 2.13672143 18.06734372 -0.00355184 0.00371248 0.00930263
C 5.56269931 6.69419563 12.49155118 0.00691859 0.00500986 0.00271492
C -1.13323722 7.90108531 12.34158425 -0.01065788 0.00532148 -0.00895897
C -7.56898674 2.81345694 18.18383701 -0.00031167 -0.00291228 -0.00307835
C 1.10718563 2.14310457 12.75939172 0.00262119 0.00197414 0.00066677
C 4.11563601 6.52424862 17.94619657 0.00225278 0.00243894 0.00436352
C -2.69371185 7.77320909 18.05524287 -0.00241004 0.00570823 0.01155404
C -5.54614550 2.58789605 12.99688538 -0.00286681 0.00527309 -0.00214100
C 0.08668286 2.91901346 12.31121590 0.00413846 0.00061814 0.01157657
C -8.46643189 7.68245751 18.24633024 -0.00312644 -0.00408454 0.00126712
C -1.74504819 6.81748850 18.30627204 -0.00385743 0.00177417 0.00610217
C 6.75576725 2.08558565 12.31571890 0.00907069 0.00799110 0.00249863
C -4.10930576 5.22819158 15.68701350 0.00485375 0.00449069 0.00188940
C -4.38573637 0.32819151 14.89980141 -0.00437545 -0.00187581 0.00580330
C 2.12540968 4.78046413 14.71462675 0.00285538 -0.00402342 0.00047622
C 2.55256877 9.25523230 15.70679293 -0.00290468 -0.00645860 -0.00370317
C -5.52820334 5.75343401 15.51091652 -0.00448899 -0.00125206 0.00032731
C -3.10232630 1.15565784 15.01615741 0.00075755 0.00564704 -0.00292924
C 3.28527191 3.94075612 14.99369276 -0.00458629 0.00287707 0.00437018
C 1.36004659 8.41607945 15.61023503 -0.00259981 0.00418510 0.00017891
C -5.93913569 3.86043838 23.64380463 0.00399117 -0.00160899 0.00245278
C -8.58905131 8.43789935 19.40783482 0.00371780 -0.00254922 -0.00477681
C -2.02143016 5.90841854 19.31435870 0.00389090 0.00476221 -0.00062986
C 0.40940739 1.11428942 23.42985528 0.00375834 0.00462249 0.00021023
C -4.73655615 3.89675587 22.91309711 0.00384342 -0.00080360 0.00304803
C 3.60251532 8.26302305 19.97156856 0.00256779 -0.00213015 -0.01081127
C -3.17161060 5.97574391 20.06147657 -0.00119260 0.00325135 0.00486535
C 28.10406125 1.11535986 22.76334346 -0.00096449 0.00251320 0.00328834
C -3.72532972 3.01911229 23.20475798 -0.00846547 0.00403906 -0.00221856
C 2.61836462 7.43501451 19.56467432 0.00447952 -0.00383769 0.01084698
C -4.20114312 6.85474204 19.63698584 -0.00199182 -0.00371854 0.00038325
C -10.36893216 2.00297035 23.19138080 0.00230235 0.00417127 0.00879852
C -3.82885367 2.04086686 24.27068530 0.00246723 0.00240669 -0.00454306
C 2.83921218 6.58370258 18.48706304 0.00278132 0.00403501 -0.00104336
C -3.91619820 7.80862131 18.69286917 0.00551573 -0.00285438 -0.00240473
C -10.61129388 2.94355872 24.23643741 -0.00642942 -0.00969503 0.01113976
C -2.05858908 2.10156414 18.69447062 0.00102031 0.00096878 0.00166574
C 0.62878561 6.82159449 23.69700289 -0.00044544 -0.00418863 -0.00210626
C -6.07216149 7.60671819 23.85584803 -0.00440998 -0.00232918 0.00292583
C -8.79506190 2.66369342 18.83890568 -0.00342120 -0.00007818 0.00737050
C -3.06016060 2.96651517 18.30855071 -0.00296495 0.00196322 -0.00793809
C -11.51299418 7.70969908 24.34779449 -0.00002934 -0.00069954 -0.00332395
C -5.01015436 6.89669031 24.36363451 -0.00042244 0.00320169 -0.00369999
C 3.76901923 1.91204941 18.59785402 -0.00142097 0.00156871 0.00239941
C -7.41613602 4.96412291 22.04067063 -0.00419974 -0.00776228 -0.00017046
C -7.32813863 0.32273212 20.94597668 -0.00717475 0.00032313 0.00207954
C -0.96500384 4.38236120 20.88702699 -0.00315281 -0.00171835 -0.00868854
C -0.64889150 9.27519820 21.81277805 -0.00256106 0.00963605 0.00007959
C -8.73610603 5.63252145 21.89662112 -0.00551790 0.00166458 -0.00255176
C -6.27994999 1.30314542 21.08229454 -0.00161182 0.00066652 0.00242417
C 0.13930769 3.45441273 21.11227710 0.00205804 0.00126168 0.00113560
C -1.85280627 8.49298107 21.62329410 -0.00251823 0.00905034 0.00264616
C 3.30438360 13.40097725 5.11931054 -0.00623896 0.00089811 -0.00368452
C 0.35597513 18.12984448 0.93259574 0.00150983 -0.00870211 -0.00416919
C 6.87202402 15.67423207 0.97160306 -0.00382882 0.00381987 -0.00140815
C 9.63774679 10.79417285 5.10147990 0.00040271 0.00191235 -0.00978154
C 4.48211349 13.17364377 4.36354074 0.00108660 0.00027294 -0.00951388
C 12.45717798 18.13720958 1.57307393 0.00392505 0.00947930 -0.00462653
C 5.69165012 15.88267574 1.75067513 0.00124153 -0.00376456 -0.00140223
C 37.17105543 11.01707022 4.09918409 -0.00686435 0.00190933 0.00123438
C 5.49710546 12.33918434 4.91249651 -0.00631636 -0.00146170 0.00829963
C 11.50684361 17.29843772 1.15340858 -0.00169829 0.00343017 -0.00108499
C 4.72226688 16.68707973 1.29723955 -0.00444486 0.00435087 -0.00534600
C -1.31709132 11.90684905 4.51460525 0.00305961 0.00197197 -0.00140259
C 5.20792762 11.56773678 6.03609995 -0.00198419 0.00010210 -0.00680265
C -0.34143172 16.55129729 24.39055853 -0.00630526 -0.00185287 0.00190261
C 4.85873956 17.45587571 0.09361277 -0.00668943 -0.00479539 0.00417771
C -1.41875750 12.55492576 5.79926822 -0.00272659 0.01301418 -0.00986134
C 6.94257635 11.69913998 0.70096576 -0.00305902 0.00274652 0.00132383
C 9.80133818 16.75467962 5.46199851 -0.00225301 -0.00066519 0.00047686
C 3.20787553 17.43723725 5.52684906 0.00574573 0.00418342 0.00107366
C 0.16669960 12.56567432 0.33919138 0.00447277 -0.00013516 -0.00718769
C 5.95530542 12.52436494 0.22253158 0.00205868 -0.00712184 -0.00698103
C -2.28136762 17.41555214 5.81572739 -0.00970597 0.00391504 0.00943010
C 4.11572904 16.56187964 5.95433631 0.00440542 0.00211725 -0.00829449
C 12.52910553 11.53520066 0.00394757 0.00079616 -0.00122836 0.01114008
C 2.22849271 14.82589491 3.48723807 0.00527515 0.00185677 -0.00538021
C 1.61056809 10.04096704 2.46540461 0.00299404 0.00931736 0.00191511
C 8.03847451 14.21122354 2.52186458 -0.00111398 -0.00305201 -0.00296813
C 8.52909677 19.02569425 3.47908103 -0.00245324 0.00131075 -0.00714326
C 1.12802128 15.85930495 3.26982690 0.00539431 0.00362486 -0.00382905
C 2.91861135 10.76903212 2.63844121 0.00320961 0.00392506 0.00313423
C 9.31582731 13.40458127 2.73598552 -0.00085642 0.00616100 0.00772587
C 7.44601078 17.98524438 3.39583974 0.00186250 0.00076529 0.00284661
C 0.16200694 13.60243260 11.04808023 -0.00678452 0.00013665 0.00882478
C -2.59124151 18.21731535 6.93556558 0.00327235 0.00554377 -0.00329168
C 4.02131426 15.78838889 7.12080979 0.00186497 0.00348086 0.00393004
C 6.89441343 10.76597099 11.50813198 -0.00591521 -0.00512469 -0.00453108
C 1.33990148 13.39786743 10.36508823 0.00465159 0.00527752 0.00134170
C 9.45708857 18.35301373 7.66317892 0.00621502 -0.00408503 -0.00915931
C 2.84232832 15.94165049 7.86139018 0.00186145 -0.00293395 -0.00461779
C 34.19539344 10.75044917 10.50776563 0.00268425 0.00434326 0.00238391
C 2.26779707 12.52909467 10.86077326 -0.00824459 0.00413253 -0.00118457
C 8.39655196 17.52729288 7.33538967 0.00091941 0.00452346 -0.00305046
C 1.89198546 16.85259348 7.46219244 -0.00102781 0.00215251 -0.00218753
C -4.35268084 11.69118756 10.91997698 -0.00039165 -0.00803152 0.00065586
C 1.99382718 11.67455394 11.88646423 -0.00904835 -0.00400075 -0.00180279
C 8.66635082 16.66742719 6.26667656 -0.00050586 -0.00019578 0.00037592
C 2.02494713 17.60284711 6.23235068 -0.00488940 0.00189688 0.00303919
C -4.56363911 12.43773049 12.07210236 -0.00252284 -0.00158723 -0.00450329
C 4.04195660 11.77356606 6.78256709 -0.00179790 0.00729110 0.00777830
C 6.67868181 16.56704658 11.48218450 -0.00422253 -0.00359244 0.00457995
C 0.21790212 17.50269057 11.90609414 0.00008174 -0.00568784 -0.00109818
C -2.59727357 12.31964591 6.53619956 0.00238958 0.00810390 -0.00360356
C 3.08788223 12.66124440 6.28114401 -0.00182745 0.00505040 -0.00904721
C -5.51027745 17.50209481 12.04627462 0.00510929 -0.00021541 0.00486452
C 1.16570376 16.70354391 12.29328788 -0.00107548 0.00766570 -0.00197088
C 9.52201865 11.74037268 6.17215361 -0.00405419 0.00324051 -0.00112052
C -1.14344397 14.89283607 9.44231250 0.00110442 -0.00351420 0.00273452
C -1.40889677 10.12921533 8.43973234 -0.00482394 -0.00098705 0.00395647
C 5.22170912 14.26873864 8.59788708 0.00134448 -0.00251083 -0.00425272
C 5.69987191 19.10451528 9.68054289 -0.00742276 -0.00117853 -0.00085564
C -2.41981622 15.65249089 9.20863072 -0.00264905 0.00269084 0.00738032
C -0.35248643 11.18306030 8.58117636 -0.00447728 -0.00174458 0.00602384
C 6.40928654 13.38309716 8.75413417 -0.00642639 -0.00439197 -0.00179270
C 4.34730517 18.52912529 9.23725292 -0.00002763 0.00763780 0.00286106
C -2.73435560 13.38913813 17.39654319 -0.00241052 -0.00581558 -0.00393865
C -5.68010786 18.22534446 13.19776424 0.00352965 0.00288577 0.00340892
C 0.97536482 15.71912558 13.24327420 -0.00645988 0.00647038 -0.00927519
C 3.76568384 10.59937444 17.22331028 -0.00141949 -0.00296964 0.00056052
C -1.60354137 13.33705370 16.63781338 -0.00270321 0.00014996 0.00223334
C 6.23258042 18.25027863 13.70433999 0.00415927 -0.00223674 -0.00059028
C -0.32042468 15.75819710 13.82547745 0.00013889 -0.00175204 0.00062555
C -8.16861497 10.75204061 16.81162910 0.00040935 0.00151068 0.00177909
C -0.63080232 12.45196285 17.02177851 0.00115611 -0.00362134 0.00243635
C 5.30673528 17.23967230 13.37771386 0.00457088 -0.00106833 -0.00637307
C -1.31649125 16.61019184 13.53737244 0.00442777 -0.00184097 0.00034461
C -7.16506308 11.67181048 17.09486099 -0.00080409 -0.00170430 0.00214709
C -0.63052481 11.77265642 18.24421165 -0.00182923 0.00386282 -0.00364058
C 5.46864139 16.50116521 12.27369547 0.00315168 -0.00247016 -0.00310772
C -1.07344230 17.50609477 12.48249360 0.00678548 0.00713766 0.00179769
C -7.32005284 12.52642812 18.18556941 0.00352489 0.00059437 -0.00127634
C 0.77742574 11.79969540 12.54435492 0.00165184 0.00416598 -0.00022910
C 3.43538096 16.80333055 17.47793966 -0.00543226 0.00498017 0.00565461
C -2.61963611 17.28175784 17.74993846 0.01125016 0.00742414 -0.00443473
C -5.74594019 12.25369360 12.82151712 0.00246395 -0.00394453 0.00301310
C -0.12130044 12.68379903 12.04603646 0.00421843 0.00488141 0.00016679
C -8.30445245 17.45343215 18.28629862 -0.00207809 0.00668330 0.00230295
C -1.65841750 16.46292898 18.20378070 0.00297120 -0.00608849 -0.00094483
C 6.65951905 11.62655948 12.56544568 0.00462494 -0.00153075 0.00807649
C -4.03790495 14.78595199 15.92560042 0.00844120 -0.00361200 0.01015535
C -4.38332289 9.81575646 14.73452782 0.00366765 0.00438850 0.00308526
C 2.32801369 14.24756416 14.67483243 -0.00622766 -0.00099389 -0.00182523
C 2.52859596 19.34472270 15.63892123 0.00527137 0.00285446 -0.00196993
C -5.36200840 15.49653376 15.86628819 -0.00136627 -0.00139422 -0.00502541
C -3.14321922 10.67658443 14.99670127 0.00360090 0.00660043 -0.00059615
C 3.71282490 13.73317055 14.66182672 0.00480629 -0.00218169 0.00811485
C 1.10258989 18.72964249 15.36258798 -0.00324806 -0.00949868 0.00631401
C -5.87231865 13.33663589 23.51182484 -0.00466040 0.00305673 0.00000340
C -8.56834728 18.35275538 19.32759294 0.00336428 0.00687227 -0.00507560
C -1.83950202 15.59029184 19.29267877 -0.00379431 -0.00536578 -0.00023834
C 0.67171391 10.58454415 23.39427067 0.00177468 -0.00471283 0.00182407
C -4.61744562 13.21183785 22.84408041 -0.00090658 -0.00315264 -0.00309788
C 3.23383348 18.25265376 19.79569960 -0.00593887 -0.00138501 0.00174683
C -3.02150707 15.67438811 20.06961521 -0.00023385 -0.01197911 0.00073917
C 28.18357337 10.67994908 22.83429109 -0.00427092 -0.00542298 0.00054869
C -3.61542523 12.35968236 23.26970295 0.00318233 -0.00630865 -0.00571375
C 2.18057506 17.49515725 19.43054122 -0.00400694 0.00156518 0.01271772
C -4.03652991 16.56463844 19.67639388 -0.00178889 0.00603418 -0.00780181
C -10.30512889 11.56055110 23.24321589 0.01016693 0.00405355 -0.00396195
C 8.23411278 11.56882032 0.01109249 -0.00549274 -0.00040095 0.00543910
C 2.31939049 16.63922216 18.31400361 0.00311568 -0.01100740 0.00249523
C -3.87713551 17.35391134 18.52232617 0.01203575 0.00137236 -0.00009724
C -10.53567097 12.54834988 24.20803281 0.00264981 -0.00517779 0.00252768
C -1.89406666 11.79424372 18.91243578 0.00378744 0.00120528 -0.00235666
C 0.90312326 16.64967917 23.73500272 0.00396495 0.00170534 -0.00734195
C -5.89632925 17.43566452 23.90653515 -0.00130348 0.00080321 -0.00028318
C -8.46731439 12.42587397 18.96174246 0.00069735 -0.00529748 -0.00558374
C -2.90549939 12.62564011 18.55318796 -0.00597851 -0.01330464 -0.00004018
C -11.48825366 17.21968337 24.28436644 -0.00807106 -0.00385781 -0.00432672
C -4.96576879 16.56184998 24.39070800 -0.00229987 0.00375533 -0.00593461
C 3.61222511 11.45428539 18.39411127 0.00881120 -0.00422841 -0.00076700
C -7.01025936 14.66621766 21.89840254 0.00683161 -0.00434601 0.00538331
C -7.32496042 9.73079184 20.94730062 0.01090524 -0.00119705 0.00191493
C -0.58228343 14.20240845 20.89817403 0.00662273 0.00518261 0.00424875
C -0.38314573 18.97140445 21.81524790 0.00233899 0.00192071 -0.00117542
C -8.18453440 15.59235444 21.55268577 -0.00060945 0.00143204 -0.00355530
C -6.15767950 10.60727044 21.20083618 -0.00513013 -0.00208211 0.00524247
C 0.52918437 13.22464864 20.98367451 0.00215907 -0.00223419 -0.00095789
C -1.73699097 18.27435641 21.63993218 0.00250281 -0.00426322 0.00943020
C 3.22005283 23.02542906 5.32872477 -0.00436530 -0.00218139 -0.00801386
C 0.40090188 27.86053770 0.92241807 0.00335491 -0.00210408 0.00241678
C 6.96283605 25.32833631 1.04341059 -0.00433221 -0.00056215 0.00404472
C 9.71580146 20.42161230 5.03854841 0.00338349 0.00000914 -0.00207785
C 4.40775638 22.84368719 4.55643081 -0.00001545 0.00574875 0.00574078
C 12.37120578 27.68735049 1.75029216 0.00230441 -0.00037029 0.00301204
C 5.71582396 25.30835950 1.70118413 0.00450039 0.00233698 -0.00051503
C 37.13259889 20.51832179 4.39972125 -0.00323595 -0.00242450 0.00083357
C 5.45814273 22.04658933 4.89296167 -0.00216040 -0.00263777 0.00245209
C 11.41936551 26.77788813 1.41819305 0.00159202 0.00615918 -0.00078622
C 4.67454585 26.09779422 1.27462587 -0.00179795 -0.00476246 0.00846384
C -1.40457238 21.46520835 4.82198811 0.00064053 -0.00126611 -0.00075356
C 5.32020089 21.25510891 6.07020625 -0.00200674 0.00170677 0.00409412
C 11.49591949 26.02655945 0.23567795 -0.00393439 0.00057657 -0.00209997
C 4.78472065 27.01040552 0.15993058 -0.00170557 0.00435943 -0.00111285
C -1.51194897 22.13191930 6.06408779 0.00492661 -0.00360342 -0.00077128
C 6.96382332 21.37843529 0.53699535 0.00129262 -0.00284490 -0.00093294
C 9.75685244 26.43341908 5.53070143 -0.00227045 0.00472845 0.00234249
C 3.11257905 26.90711564 5.43593911 -0.00343324 0.00669250 0.00367155
C 0.40634365 22.06333963 0.61570806 0.00373654 0.00345794 -0.00435795
C 5.98208856 22.25058076 0.15639203 -0.00408005 -0.00151432 -0.00887370
C -2.26216252 27.01477205 6.12090768 0.00050186 -0.00487106 -0.00288633
C 4.15396993 26.10887758 5.77769167 -0.00395746 -0.00296481 -0.00567313
C 12.50298467 21.24493962 0.13691352 -0.01262802 0.00459053 0.00393356
C 1.97512995 24.36193857 3.73219638 -0.00013289 -0.00047119 -0.00304282
C 1.42899993 19.67644742 2.50809188 -0.00234852 0.00141890 0.00105797
C 8.12750412 23.82762945 2.55034149 0.00038368 0.00233696 -0.00375996
C 8.53827167 28.69805933 3.47784951 -0.00428999 -0.00116108 0.00148425
C 0.66436851 25.17118145 3.61048659 0.00577748 0.00728467 0.00561568
C 2.55879315 20.61217862 2.60611183 -0.00199101 0.00021182 -0.00651177
C 9.33527290 22.96532231 2.71085350 0.00040035 0.00142499 0.00622823
C 7.25220197 27.85863707 3.35225972 -0.00518294 0.00564566 0.00348809
C 0.03051890 23.22961729 11.24050737 -0.00670015 0.00096242 -0.00021685
C -2.62709020 27.88277074 7.19588922 0.00053151 -0.00073148 -0.00832268
C 4.14579956 25.35572602 6.98037070 -0.00153183 -0.00537822 0.00194359
C 6.75506616 20.61985549 11.23985131 0.00390924 0.00147746 -0.00160222
C 1.30433686 23.19658790 10.64313588 -0.00195145 -0.00797476 -0.00704620
C 8.99538601 28.10126424 7.69952401 -0.00606587 0.00662705 -0.00358693
C 3.00911932 25.43080445 7.78027550 -0.00529931 0.00124638 -0.00193030
C 33.89169646 20.45927316 10.58303739 -0.00927697 0.00610619 -0.00070086
C 2.35037123 22.33588019 11.00095179 -0.00326515 0.00138683 0.00323704
C 8.20961964 27.03719530 7.26051608 0.00079241 0.00406132 0.00288113
C 1.94240567 26.25978867 7.46397545 -0.00218972 -0.00180824 0.00041043
C -4.59352575 21.35392725 10.93701103 -0.00317950 -0.00353543 0.00609933
C 2.13021698 21.49745582 12.05282713 -0.00141490 -0.00197246 -0.00171629
C 8.55168216 26.21525756 6.17615937 0.00193313 -0.00401493 0.00079982
C 2.00008808 27.04504022 6.28835436 0.00272730 0.00588673 -0.00503611
C -4.74612221 22.21608256 12.02226188 0.00246603 0.00070407 -0.00035634
C 4.06500313 21.34534317 6.78025096 -0.00021583 0.00976801 -0.00919425
C 6.72339291 26.36620971 11.68098937 -0.01052063 0.00154634 -0.00396043
C -0.10107029 27.07497451 11.61258251 0.00201579 -0.00533308 0.00061723
C -2.84381034 22.12605115 6.66809881 0.00520273 -0.01237275 -0.00366925
C 3.00469438 22.14519940 6.37054707 0.00302844 -0.00501909 0.00461954
C -5.46297074 27.12291939 12.10133396 -0.00165176 -0.00339455 -0.00209632
C 0.95956296 26.28544101 12.03705331 0.00333062 -0.00047307 -0.00432784
C 9.54704446 21.17964676 6.20547901 -0.00682550 0.00151158 0.00150554
C -1.17919935 24.54101279 9.62260748 -0.00118838 0.00239556 -0.00065680
C -1.53966086 19.65556067 8.71143182 -0.00134213 -0.00431217 0.00151999
C 5.42354253 23.97091126 8.52227498 -0.00197329 0.00346433 0.00668232
C 5.99871916 0.03320170 9.49785963 0.00116301 -0.00357235 -0.00004955
C -2.34630821 25.37602737 9.43893274 -0.00550570 -0.00202555 -0.00013892
C -0.50683145 20.70846904 8.88478145 0.00304066 0.00092662 0.00297983
C 6.66059999 23.07749373 8.68876043 0.00556343 -0.00695244 0.00150186
C 4.97443675 27.82616952 9.28041774 0.00270909 -0.00754977 -0.00299253
C -2.91712842 22.94045360 17.35853968 0.00374747 0.00105089 0.00849828
C -5.60963325 27.85169482 13.29836441 -0.00494853 -0.00144899 -0.00551325
C 0.77848161 25.45721967 13.16035444 0.00456798 -0.00608140 0.00467574
C 3.86567594 20.47488795 17.31373638 0.00380726 -0.01150216 -0.00325098
C -1.77604209 22.86635157 16.55065916 0.00260911 -0.00071854 -0.00308615
C 6.39799130 27.68960038 14.05342447 -0.00679839 0.00083459 0.00173045
C -0.38731470 25.41473066 13.83830150 0.00012570 0.00465312 0.00636328
C 31.26464688 20.36613614 16.65567754 0.00563247 -0.00411999 -0.00042618
C -0.80365086 21.96215026 16.89873509 0.00172056 -0.00383233 0.00084690
C 5.33399988 26.94948864 13.57150930 0.00043327 0.00020464 0.00579536
C -1.46426400 26.21078361 13.39826272 0.00202217 -0.00051109 0.00339928
C -7.36781886 21.36060781 16.92409893 0.00228683 -0.00379904 -0.00670558
C -0.83846643 21.28026982 18.13404158 -0.00058419 -0.00461334 -0.00496431
C 5.48389393 26.29362912 12.33127548 -0.00102224 -0.00142025 -0.00026742
C -1.25509622 27.16904180 12.37339313 -0.00718784 0.00114729 -0.00301836
C -7.57860968 22.18674008 18.07537105 -0.00407885 -0.00345730 0.00197580
C 0.84742008 21.48945052 12.66337707 -0.00467599 -0.00644845 -0.01450931
C 3.69293595 26.04799498 17.82086718 -0.00253552 0.00193187 -0.00287039
C -2.60848716 26.88001218 17.67068306 -0.00721577 -0.00306663 0.00637156
C -5.98043147 22.17825864 12.71399520 0.00270365 0.00160998 -0.00969886
C -0.10507159 22.36837863 12.33613163 -0.00151749 -0.00570045 -0.00332693
C -8.11361087 26.86897905 18.48480948 0.00020521 0.00225901 0.00130130
C -1.64794016 25.97709754 18.04444804 0.00092171 -0.00484595 0.00237317
C 6.54733514 21.47113833 12.36478495 0.00628246 0.00307309 -0.00066350
C -4.26084069 24.21628345 15.88682945 0.01515312 -0.00372945 0.00024194
C -4.63377199 19.65767339 14.80074889 -0.00343667 0.00026623 0.00691891
C 1.96881618 24.03755005 14.72951479 0.00399654 0.00078897 0.00169110
C 2.76373598 28.81529742 15.75100526 0.00218474 -0.00211038 0.00467143
C -5.43700493 25.22473608 15.80340334 0.00294485 0.00381042 -0.00046660
C -3.52671846 20.69710593 14.97163039 0.00088077 0.00014394 -0.00123796
C 3.17291354 23.15468291 14.90183915 -0.00534042 0.00205990 -0.01069817
C 1.65177184 27.85872587 15.40557651 -0.00020574 0.00542290 -0.00310807
C -5.93144139 23.06033476 23.46240119 -0.00096144 -0.00704210 0.00516369
C -8.46820991 27.79221182 19.45104045 -0.00217423 0.00136629 0.00224105
C -1.89523131 25.16444105 19.16842513 -0.00034219 -0.00464688 0.00115695
C 0.74985624 20.44113532 23.38775402 0.00185909 0.00227250 -0.00012931
C -4.68285106 23.08614504 22.71418793 0.00173382 0.00173706 -0.00438560
C 3.29072025 27.71263468 19.94920406 -0.00209233 0.00413699 -0.00358437
C -3.06394081 25.34986811 19.92877441 0.00110272 -0.00045387 -0.00822857
C -11.10532247 20.47766454 22.70883557 0.00003756 -0.00274772 0.00239036
C -3.68919772 22.19405343 23.14747064 -0.00255784 0.00074058 0.00188088
C 2.22480493 26.91172078 19.54522944 -0.00304432 -0.00718285 -0.00428447
C -4.02672895 26.29664460 19.59806864 0.00369435 -0.00299156 0.00192220
C -10.19040673 21.38456609 23.19700174 -0.00085051 -0.00512601 0.00177776
C -3.86188966 21.36532193 24.27119851 -0.00659790 -0.00048566 -0.00766195
C 2.42960009 26.00849224 18.45122647 0.00021183 0.01065326 -0.00029862
C -3.80136987 27.07856005 18.46067828 -0.00374796 0.00093366 0.00359291
C -10.39616342 22.22663006 24.42337678 0.00002912 -0.00558938 -0.00245667
C -2.01105732 21.30927944 18.90121851 0.00071265 -0.00322499 -0.00206251
C 0.64489343 26.12104315 23.90662137 0.00483292 0.00070281 0.00788592
C -5.99821653 27.03761607 23.95024133 0.00842686 -0.01270819 0.00313872
C -8.87505148 22.06874434 18.67693294 0.00246483 -0.00176839 -0.00158906
C -2.98851766 22.27535674 18.57085043 0.00284836 0.00613028 0.00316829
C -11.52334497 26.94711502 24.24354327 0.00012091 -0.00024459 -0.00780101
C 7.11418826 26.30499916 0.01958658 0.00279092 -0.00099298 -0.00528825
C 3.69729708 21.23366375 18.42321337 0.00282412 -0.00249432 0.00152227
C -7.26706004 24.33735898 21.93157245 -0.00087809 -0.00008238 -0.00526943
C -7.23981240 19.80093429 20.77041584 0.00075305 0.00413435 0.00047642
C -0.58481325 23.91837253 20.85994874 0.00067065 0.00318229 0.00220426
C -0.65836376 28.65042306 21.76186044 0.00127817 -0.00021632 -0.00533414
C -8.51375172 25.07677598 21.78965347 -0.00849896 0.00021863 0.00342879
C -5.96147017 20.50992213 20.84281702 0.00205787 0.00098097 0.00678561
C 0.49467538 22.94250855 20.89361510 -0.00177560 0.00884801 0.00191364
C -1.88370702 27.85243727 21.48324761 0.00649741 -0.00224728 0.00509933
C 16.13789697 3.76187932 5.15795845 -0.00906083 0.00027311 0.00623122
C 13.53288978 8.40408683 0.89424690 0.00407654 -0.00657082 -0.00515908
C 20.07226972 5.95834212 0.68499027 -0.01117111 -0.00330913 0.00482232
C 22.79194791 1.33554451 5.16064304 -0.00022586 -0.00230113 0.00685422
C 17.36879781 3.58685364 4.52788781 -0.00184922 0.00079798 0.01017373
C 25.41889513 8.08664313 1.64882011 -0.00548335 -0.00638064 0.00442408
C 18.89506911 5.96973335 1.39572338 -0.00311361 0.00131972 -0.00099227
C 10.81176390 1.34630923 4.21318877 0.00029032 -0.00252657 0.00344238
C 18.37097485 2.78390413 4.99250340 -0.00353736 -0.00088237 -0.00240625
C 24.51424459 7.10168520 1.24597950 0.00226993 0.00222766 0.00268709
C 17.83748195 6.81690846 0.98956959 0.00191131 0.00437974 -0.00545656
C 11.76467305 2.22347684 4.65100379 0.00574410 0.00353225 0.00067191
C 18.13484711 2.03431098 6.13256208 0.00316101 -0.00215899 -0.00248040
C 24.75717534 6.28375595 0.18235572 0.00118114 0.00498553 -0.00042870
C 5.93578459 7.70487485 24.34972856 0.00967072 0.00554157 -0.00659887
C 11.62431499 3.02578411 5.79517450 0.00018425 0.00005597 0.00140720
C 19.88037284 2.02036090 0.50727717 -0.00194713 -0.00252334 -0.00400166
C 22.82849629 6.69195782 5.26361521 -0.01033559 -0.00761668 0.00232969
C 16.28760008 7.56947019 5.49305658 -0.00005603 0.00175444 -0.00156902
C 13.29503612 2.87465079 0.49180706 0.00249557 -0.00526595 -0.00434941
C 18.96151955 2.93235688 0.11845111 -0.00586392 0.00118393 -0.00535546
C 10.74338657 7.81275505 5.78848661 -0.00298498 0.00825869 -0.00418687
C 17.36889510 6.78500857 5.93965981 0.00284086 0.00176121 -0.00164819
C 25.67368818 1.85216326 0.29471319 -0.00351634 -0.00185118 0.00460520
C 14.90217130 5.03426217 3.48262537 0.00068150 0.00284381 -0.00625743
C 14.64280238 0.36811409 2.42364364 -0.00475079 -0.00063022 0.00247652
C 21.17841161 4.38797663 2.16483475 -0.00301617 -0.00721412 -0.00354057
C 21.61722974 9.31181449 3.23153390 -0.00114301 0.00201877 0.00248424
C 13.57782703 5.68988191 3.34291639 -0.00600515 -0.00662817 -0.00338399
C 15.69786953 1.39019894 2.64652658 0.00035816 -0.00835908 0.00884035