2880
Time=33000.00000001 pbc="T T T" Lattice="39.45410369 0.00000000 0.00000000 0.00000000 29.11841630 0.00000000 -12.01533365 0.00000000 24.35034256" energy=-18399.26777548 virial="8.16483818 -20.23640319 -25.70784177 -20.23640319 35.94083911 5.20357796 -25.70784177 5.20357796 -9.31750744" stress="0.00281366 -0.00067329 -0.00093029 -0.00067329 0.00373926 0.00008678 -0.00093029 0.00008678 0.00222184" Properties=species:S:1:pos:R:3:vel:R:3
C 3.23076295 3.77287654 5.03013884 0.00315334 -0.00534724 -0.00375212
C 0.31942919 8.73221955 0.96360064 -0.00313266 0.00179949 0.00400604
C 7.08327533 5.95150402 1.26526596 -0.00596026 0.00357576 0.01049244
C 9.83339634 1.01369243 5.14838018 -0.00087587 0.00097525 -0.00033965
C 4.44704363 3.58103319 4.25115476 -0.00437790 -0.00728976 -0.00413320
C 12.41938603 8.36915199 1.95437715 0.00321306 0.00563959 -0.00942259
C 5.90787125 6.01090572 1.96958231 0.00118549 0.00649316 0.00456689
C -2.07173056 1.03775658 4.39131174 0.00199008 -0.00038886 -0.00056747
C 5.34487474 2.63687111 4.68003415 -0.00124623 0.00027432 0.00923992
C 11.49537541 7.51619250 1.43558330 -0.00479896 0.00525021 0.00549723
C 4.85683185 6.82277367 1.51908928 0.00423195 -0.00349506 -0.00151429
C -1.09475585 1.90651357 4.76454178 -0.00276992 -0.00064462 0.00109687
C 5.15657855 1.88790397 5.87759722 -0.00145048 -0.00164392 -0.00031995
C 11.68554564 6.79760316 0.24740451 -0.00171758 -0.00636384 0.00024129
C 4.96746878 7.69836317 0.42624946 0.00063412 0.00198256 -0.00981053
C -1.24764547 2.79181237 5.92961058 0.00293976 -0.00286097 0.00356295
C 7.01025040 2.14151727 0.61689957 -0.00178868 -0.00322825 0.00419306
C 9.64936198 6.96075331 5.61998311 0.00145066 0.00079966 -0.00184126
C 3.27514654 7.70129309 5.60231941 -0.00050167 -0.00271270 -0.01049074
C 0.20341209 2.89539588 0.32310761 -0.00429157 0.00200049 -0.00442980
C 6.04426121 2.93540089 0.11618518 0.00062159 0.00322454 -0.00087042
C -2.22602168 8.03766909 5.86888586 0.00313763 -0.00110632 0.00319322
C 4.29629645 6.92744237 6.04789935 0.00383399 0.00328034 -0.00566270
C 12.64276946 1.98822748 0.15012107 -0.00042266 -0.00436776 0.00720807
C 2.01064901 5.31505288 3.48647469 0.00006294 0.00146706 0.00308438
C 1.79093811 0.01163437 2.52535836 0.00391226 0.00042079 -0.00467109
C 8.19247936 4.52772623 2.81343245 0.00614077 0.00153743 0.00600506
C 8.40458255 9.39719802 3.78026555 -0.00347738 -0.00343038 -0.00104114
C 0.94999208 6.34012451 3.46556833 -0.00792732 -0.00695779 -0.00696800
C 2.92472046 0.99616647 2.62637759 -0.00295082 -0.00053038 -0.01090860
C 9.40412738 3.65046165 3.02528946 0.00188270 0.00424740 -0.00291584
C 7.15859012 8.56872186 3.72792874 0.00131062 -0.00309223 -0.00355080
C -0.11750269 3.65540482 11.12683158 0.00241042 -0.00267231 0.00577574
C -2.41867048 8.74363173 7.06335124 -0.00376239 -0.00211838 0.00466572
C 4.08994135 5.96291556 7.08567088 0.00138555 -0.00720475 0.00274399
C 6.81027317 1.23008151 11.12466909 0.00207667 -0.00229202 -0.00098949
C 1.13604423 3.58993849 10.48762813 -0.00369081 0.00160736 -0.00217044
C 9.24918838 8.70463787 7.75992504 0.00206405 0.00116769 -0.00366660
C 2.85904696 5.83104767 7.64063116 -0.00078250 -0.00198183 0.00414829
C 34.10310127 1.10677620 10.45662906 0.00741161 0.00296771 0.00297571
C 2.08257555 2.69412836 10.80650464 -0.00265023 0.00335515 -0.00267220
C 8.18693582 7.78026421 7.39414310 -0.00097811 0.00240721 -0.00014561
C 1.77006954 6.67096861 7.26894032 0.01038216 0.00414270 -0.00511347
C -4.35100825 1.86174283 11.01529074 -0.00315116 0.00505741 -0.00506796
C 1.93819145 1.84360269 11.87820895 0.00222856 0.00394089 0.00198842
C 8.42028581 6.86729031 6.33475507 -0.00038701 -0.00219009 0.00133363
C 2.03285166 7.65841165 6.28174576 -0.00548649 -0.00260912 -0.00312903
C -4.48102662 2.64659390 12.16682734 -0.00591295 0.00363168 -0.00275728
C 3.96701152 2.08749582 6.61597245 -0.00267073 -0.00028208 0.00208192
C 6.74896344 6.82166813 11.65274753 0.00442751 0.00135314 -0.01054374
C 0.06488874 7.50645557 11.55656924 -0.00481160 0.00196185 0.00252030
C -2.51122901 2.73378375 6.51679865 0.00044023 -0.00506452 0.00156650
C 3.07173708 3.04894596 6.22233175 -0.00838521 -0.00218892 -0.00022778
C -5.32151743 7.69892186 12.09674222 0.00633583 -0.00011368 -0.00347194
C 1.06414408 6.69578081 11.96771640 0.00312339 -0.00858225 0.00266039
C 9.61111777 2.00074722 6.04298635 -0.00139767 0.00697914 0.00032153
C -1.36330331 5.05213624 9.56078450 0.00804137 -0.00559976 0.00609360
C -1.39389719 0.16726886 8.56636807 -0.00300569 0.00482536 -0.00556053
C 5.09844493 4.52181726 8.60400872 0.00635141 -0.00640222 -0.00215996
C 5.48949180 9.37348829 9.69727500 0.00110636 0.01008980 -0.00424180
C -2.62829593 5.85885504 9.35263752 -0.00342987 0.00117267 -0.00321993
C -0.20403577 1.03152558 8.85775834 -0.00575301 -0.00311110 0.00153186
C 6.33485220 3.58496100 8.80120654 -0.00333367 0.00303030 0.00625559
C 4.27550892 8.55220891 9.76772867 0.00628296 -0.00586617 0.00747288
C -2.66118689 3.69518465 17.19683765 0.00039590 -0.01129082 0.00059578
C -5.58090183 8.51691134 13.23897366 -0.01356033 0.00211484 0.00297673
C 0.94011294 5.82375619 13.04627443 -0.00544371 -0.00662151 -0.00592802
C 3.80851963 1.12111791 17.35145171 0.00352704 0.00722484 0.00062956
C -1.41578945 3.58991526 16.50821562 -0.00499065 0.00061589 -0.00240749
C 6.33147146 8.43394425 13.82851939 -0.00273589 -0.00436263 0.00016917
C -0.12694228 6.05712122 13.90193433 -0.00005061 -0.00849890 -0.00166585
C 31.19147830 1.20479396 16.52679557 0.00133059 -0.00025689 -0.00135210
C -0.42086617 2.69308473 16.89797544 -0.00112740 0.00269876 -0.00395605
C 5.33006016 7.67292403 13.30801779 0.00095846 -0.00988706 0.00215516
C -1.11126384 6.95284910 13.60721719 -0.00112181 0.00386220 0.00369985
C -7.20246605 1.86958883 17.03788665 -0.00459365 -0.00774889 -0.00608223
C -0.65167339 1.91327744 18.01316699 -0.00076264 0.00379855 -0.00096963
C 5.50974323 6.73698513 12.25838823 0.00207189 0.00021454 0.00499049
C -1.07479941 7.59065865 12.37862653 -0.00258334 0.00027383 0.00298864
C -7.36528243 2.82667315 18.10061779 0.00506631 -0.00039693 -0.00555233
C 0.75045119 1.82194114 12.53092898 0.01149336 0.00412865 0.00165766
C 3.45987420 6.87861981 17.50506976 0.00796660 -0.00585335 0.00284860
C -2.92133727 7.64344033 17.56005488 0.00004006 0.01001030 0.00788105
C -5.71012617 2.56197263 12.84128866 0.00627850 0.00365086 -0.00431245
C -0.28004219 2.69979072 12.17161550 -0.00833561 -0.00049228 0.00587921
C -8.35996490 7.74197758 18.25574482 0.00351237 0.00646619 -0.00331480
C -1.92882080 6.79116422 17.95210277 0.00064995 -0.00755365 0.00479507
C 6.53795211 2.13102625 12.14042356 -0.00489672 0.00367176 -0.00132543
C -4.01346917 5.00055246 15.63586877 -0.00028654 -0.00390290 -0.00164438
C -4.24549992 0.16046399 14.70009316 0.00021269 0.00407056 0.00703374
C 2.26546956 4.50190909 14.72226923 0.00095089 -0.00125277 0.00060980
C 2.55715500 9.39367914 15.47401554 0.00236816 0.00640473 -0.00443782
C -5.28759378 5.71264300 15.41532864 -0.00010012 -0.00392600 -0.00116020
C -3.14180824 1.22015745 14.87210336 -0.00249002 0.00080945 -0.00612160
C 3.58478688 3.90387352 15.07506720 0.00775790 0.00466047 -0.00205858
C 1.46515271 8.36528901 15.26044974 0.00863656 -0.00021856 0.00171842
C -5.85096789 3.76304882 23.32809797 -0.00334315 -0.00213731 0.00527088
C -8.64518886 8.55286743 19.34870277 -0.00505245 -0.00237689 0.00390092
C -2.06187450 5.94813175 19.09947985 0.00881018 -0.00108859 -0.00698875
C 0.80748114 1.22025210 23.36818962 0.00377106 -0.00541690 0.00048428
C -4.65195616 3.58856292 22.55861143 -0.00390424 -0.00391642 -0.00339167
C 3.12320089 8.32372176 19.88392825 0.00095929 -0.00380611 0.00060948
C -3.29935419 6.02721262 19.80873065 -0.00239239 -0.00129405 -0.00030406
C 28.19675800 1.07862827 22.61671566 0.00430383 0.00166205 -0.00053754
C -3.67220802 2.76772725 23.06981700 -0.00507350 -0.00683744 0.00586765
C 2.17441530 7.39548451 19.45482071 0.00677924 -0.00062140 -0.00029404
C -4.35791169 6.71996624 19.28362055 -0.00822874 0.00167700 0.00028746
C -10.27539477 2.02592934 23.03626031 0.00192850 -0.00150006 0.00044797
C -3.78123663 2.04110688 24.28893103 0.00188535 -0.00119660 -0.00432951
C 2.39137185 6.56172180 18.37024977 -0.00290570 -0.00156252 -0.00512302
C -4.17666796 7.62250232 18.20391250 0.00041217 -0.00331101 0.00092683
C -10.56066848 3.01044111 24.00510420 -0.00094779 0.00904829 0.00013990
C -1.83290634 1.99308492 18.75339236 0.00476583 -0.00077779 0.00897873
C 0.84232298 7.06222967 23.91375284 0.00431141 -0.00032540 -0.00241695
C -5.80101778 7.63286282 24.13526521 -0.00412356 -0.00012473 0.00467979
C -8.59207055 2.86217506 18.76626386 -0.00150267 0.00232661 -0.00152941
C -2.81803228 2.87646652 18.33378870 0.00229859 -0.00037996 0.01066664
C -11.37062459 7.80458249 24.28268163 0.00412138 0.00480780 0.00442595
C 7.15228142 6.74467933 0.05663231 -0.00494912 -0.00891133 -0.00334896
C 3.63108565 2.01134471 18.46965524 0.00291875 0.00081559 -0.00049921
C -7.26289111 5.11612567 21.90704630 0.00189003 0.00397158 -0.01121731
C -7.35317555 0.26544618 20.86309189 0.00947500 0.00068340 0.00307486
C -0.94647250 4.53469428 20.73429720 -0.00032844 0.00287067 0.00270900
C -0.35723829 9.43724550 21.82393735 -0.00034334 0.00584204 -0.00272853
C -8.62752717 5.83897661 21.86441260 -0.00421927 0.00440597 0.00598538
C -6.29075500 1.27723228 21.24542636 -0.00395762 -0.00250278 -0.00569219
C 0.30180340 3.79368147 20.99024451 -0.00381518 0.00406483 -0.00596857
C -1.67374463 8.75336248 21.62107647 0.00554817 -0.00094896 0.00067011
C 3.06651286 13.50119619 4.93037166 -0.00398316 0.00374848 0.00018070
C 0.45779777 18.39329818 0.94085461 -0.00237331 -0.00312024 0.00394215
C 6.95538404 15.69800429 1.02479895 -0.00169833 0.00266501 -0.00500137
C 9.62608203 10.95227562 5.17566410 -0.00051330 -0.00130286 -0.00114204
C 4.32532816 13.51095059 4.37789882 -0.00546193 -0.00147636 -0.00244292
C 12.31321220 18.10691140 1.77309220 -0.00555494 0.00157983 -0.00143533
C 5.70097694 15.69562553 1.65287203 -0.00603525 0.00665029 0.00253139
C 37.03767092 10.82493082 4.42077173 0.00297456 0.00065428 -0.00483822
C 5.38891290 12.69251228 4.87680672 0.00150564 -0.00422969 -0.01042218
C 11.40793282 17.13520782 1.44231847 0.00040197 0.00601843 0.00045276
C 4.68573954 16.49189862 1.27948327 -0.00357589 0.00581446 0.01134555
C -1.47596373 11.78225942 4.70323414 0.00680627 0.00472240 -0.00356221
C 5.20933179 11.88996467 6.00782971 -0.00332026 -0.00547727 -0.00924604
C 11.70529225 16.24129648 0.43316943 -0.00155369 -0.00158395 0.00190602
C 4.91222117 17.30171741 0.09439255 0.00758360 0.00645255 0.00129480
C -1.47146321 12.48275934 5.94068681 -0.00151207 0.00368316 -0.00099488
C 6.87655756 11.66372175 0.56543752 -0.00664816 -0.00283844 -0.00184679
C 9.71438077 16.62341256 5.55611178 0.00572904 0.00095452 -0.00041317
C 2.99599758 17.18686607 5.46132679 0.00404831 0.01007786 -0.00254410
C 0.21848378 12.59750242 0.34906561 -0.01645265 -0.00037803 0.00583439
C 5.98969024 12.60104650 0.03422414 0.00356201 0.00011084 -0.00512285
C -2.47994593 17.39356620 5.83767652 -0.00081206 -0.00407620 0.00166117
C 3.98189066 16.33767847 5.89267762 0.00703037 0.00168239 0.00357640
C 12.74808684 11.52277199 0.26380970 0.00764542 -0.00520756 0.00492178
C 1.84404760 14.71731053 3.27809419 -0.00205536 0.00222150 -0.00542737
C 1.61115891 10.09902739 2.64053166 -0.00454034 -0.00940225 0.00013964
C 8.15018933 14.20433699 2.51965614 0.00199584 -0.00088523 0.00021451
C 8.45844773 19.10707271 3.54369118 -0.00197235 -0.00276116 0.00417870
C 0.70028676 15.69457223 3.22207710 -0.00599224 -0.00690560 0.00507200
C 2.85220191 10.99111402 2.68486673 0.00277494 -0.00714896 0.00414636
C 9.35631786 13.37501009 2.67117884 -0.00223364 0.00365801 -0.00760540
C 7.19319497 18.22082085 3.28940875 0.00232054 -0.00355167 0.00093914
C -0.00804418 13.56044994 11.18534010 -0.00210830 0.00315483 0.00342298
C -2.65553548 18.36516694 6.77521268 -0.00301878 -0.00243429 -0.00344872
C 3.83191738 15.55136856 7.05278770 0.00073721 -0.00045145 0.00337880
C 6.73873227 10.87277160 11.19358556 0.00202182 0.00796854 -0.00149680
C 1.23686869 13.46755618 10.52562568 0.00114698 0.00482010 -0.00398399
C 9.17671710 18.05926722 7.90010423 -0.00325839 -0.00064785 0.00217563
C 2.64215667 15.73873742 7.70794573 0.00171930 -0.00001568 0.00651699
C 34.23501231 10.96176142 10.44906557 0.00284999 -0.00349739 0.00227360
C 2.15593109 12.51058272 10.84545194 0.00291965 -0.00774783 0.00012687
C 8.32687315 17.05983801 7.43849846 0.00240619 0.00278861 -0.00113429
C 1.64320007 16.64110988 7.31565378 0.00356796 -0.00036451 -0.00568288
C -4.24233360 11.70173743 10.91022547 -0.00252863 -0.00244214 0.01274195
C 1.94214764 11.54376025 11.81579313 -0.00323009 -0.00051525 0.00179028
C 8.50058130 16.43667944 6.23381961 0.00173229 0.00033998 0.00064063
C 1.84721263 17.49598465 6.14490618 -0.00548011 -0.00035002 -0.00553013
C -4.50664142 12.53890151 12.02621401 -0.00313383 -0.00753911 0.00336792
C 3.93518379 11.83258965 6.58083682 -0.00323814 -0.00243170 0.00253377
C 6.64148279 16.53588331 11.66708838 0.00140758 0.00658926 -0.00124888
C 0.11715221 17.48932361 11.56163100 0.00567609 0.00503287 -0.00325320
C -2.65313407 12.47899719 6.68461266 0.00147655 -0.00371177 -0.00224550
C 2.93036854 12.58036951 5.99587690 0.00296222 -0.00327038 0.00576588
C -5.40187071 17.95017088 11.86524842 0.00116288 -0.00605018 0.00270963
C 1.10283146 16.67515805 12.10641390 0.00029526 -0.00091194 0.00364941
C 9.49162731 11.83112243 6.28433860 -0.00307733 -0.00536483 -0.00151871
C -1.19126852 15.00249939 9.64616586 0.00509750 0.00446319 0.00030453
C -1.13172241 10.04380222 8.63458188 0.00262627 -0.00417650 0.00269857
C 4.98529175 14.25424200 8.68768816 -0.00012296 0.00218727 -0.00533298
C 5.78483293 18.98727788 9.43369717 0.00287966 -0.00540915 0.00104558
C -2.16780863 16.10674812 9.62463347 0.00358378 -0.00212333 0.00047731
C 0.06023689 10.91221630 8.91466730 -0.00240925 0.00270444 0.00455903
C 6.18858128 13.34716687 8.91231168 0.00513481 0.00352966 0.00137935
C 4.70887162 17.92585317 9.20051269 -0.00384591 0.00385229 0.00170852
C -2.97434684 13.42134846 17.34600680 -0.00503130 0.00187597 0.00342191
C -5.67873146 18.70927957 13.05902466 -0.00169882 -0.00326922 -0.00125498
C 0.76975749 15.75852174 13.15216291 -0.00641376 -0.00813541 0.00272834
C 3.57497726 10.83557678 17.11225115 0.00022551 0.00079397 0.00905310
C -1.76478053 13.30841008 16.61572240 -0.00444482 -0.00062876 0.00280573
C 6.10352724 18.13857703 13.94215059 -0.00247241 -0.00252189 -0.00613445
C -0.36990428 15.94490048 13.86167337 -0.00120355 -0.00307662 0.00776295
C 31.13929258 10.82777835 16.65666523 -0.00227984 0.00263026 -0.00155992
C -0.83208408 12.31622754 16.97436446 -0.00365457 -0.00668850 0.01179715
C 5.03176745 17.44990831 13.32988879 0.00205765 0.00443178 0.01179918
C -1.35152321 16.85646427 13.37304022 0.00413822 0.00850272 0.00614383
C -7.38482669 11.71165309 17.19162525 -0.00414481 0.00487498 0.00336244
C -0.96632079 11.56598899 18.15520683 0.00541958 -0.00070381 0.00350410
C 5.29626812 16.60352166 12.22688052 0.00867231 0.00000945 -0.00248672
C -1.09782584 17.59423775 12.20725892 -0.00744961 0.00374785 -0.00011624
C -7.65632468 12.53460987 18.27482843 0.00417410 -0.00463317 -0.00758789
C 0.68835100 11.71097401 12.61106854 0.00240492 0.00006487 -0.01587068
C 3.69863961 16.68606262 17.66915062 -0.00371090 -0.00149212 -0.00163667
C -2.68781428 17.48646528 17.86060709 -0.00046669 -0.00503939 -0.00269493
C -5.65267916 12.40439922 12.73657583 -0.00414209 -0.00028159 0.00417387
C -0.24004685 12.69610956 12.25235002 -0.00809179 0.00302231 0.00506444
C -8.23449173 17.51341969 18.32945602 -0.00189635 0.00791797 -0.00536641
C -1.88620297 16.44053821 18.25312017 0.00498157 -0.00342283 0.00912963
C 6.47453531 11.57799098 12.34093021 0.00585184 0.00367100 -0.00421739
C -4.26370196 14.61726583 15.63524181 0.00578291 0.00557232 -0.00056085
C -4.47076693 10.10981343 14.70384254 0.00469789 -0.00213795 0.00262538
C 1.95896907 14.33677170 14.72759825 0.00291497 0.00155733 0.00674460
C 2.54273983 19.08447155 15.89158870 -0.00650316 0.00957164 -0.00621998
C -5.60996547 15.23039409 15.40638880 -0.00040660 0.00577236 0.00060899
C -3.23322197 10.88737186 14.82457974 0.00537050 0.00208394 0.00338488
C 3.19754018 13.34027711 14.74273335 -0.00492064 0.00058450 0.00503640
C 1.37370838 18.10141763 15.89529197 -0.00167217 0.00469102 0.00096546
C -5.73718285 13.40728880 23.26604023 -0.00022434 -0.00998910 0.00246447
C -8.44809639 18.34006519 19.45571458 0.00094333 0.00512304 0.00413870
C -2.20200700 15.57260347 19.28381997 -0.00342601 -0.00102942 -0.00198673
C 0.85609810 10.86832104 23.34863447 0.00408404 0.00401577 0.00915658
C -4.60034971 13.18255464 22.54751012 -0.00055310 -0.00700747 -0.00107916
C 3.28493467 18.23503793 19.94278347 -0.00053741 0.00486544 0.00748953
C -3.33741779 15.77440023 20.06641151 -0.00630482 -0.00005546 -0.00727047
C 28.12365125 10.69943891 22.64374379 0.00250369 0.00019199 0.00386377
C -3.76476653 12.14474551 22.99160364 -0.00382900 -0.00191901 0.00562944
C 2.26259780 17.45324413 19.45464097 0.00515986 0.00429665 0.00001041
C -4.16375215 16.81621375 19.64366880 0.00042665 -0.00211522 0.00148267
C -10.27664253 11.50711647 23.12856426 -0.00202696 -0.00032563 -0.00658492
C -3.95259284 11.46390577 24.20459563 0.00354313 -0.00022786 -0.00582159
C 2.50146518 16.59284713 18.33679580 -0.00053353 -0.00306975 -0.00166636
C -3.95214726 17.66500912 18.46375312 -0.00404087 -0.00176352 -0.00465512
C -10.52841500 12.50828211 24.08210415 -0.01154378 0.00308838 -0.00724571
C -2.21448824 11.70666899 18.87845611 0.00419833 -0.00010626 -0.00067474
C 0.84522413 16.46956008 24.01613347 -0.00168580 -0.00083562 -0.00002373
C -5.85002843 17.49772791 23.89027328 -0.00317424 0.00023156 0.00019863
C -8.87795853 12.35412773 18.96814211 0.00083443 -0.00249661 0.00454397
C -3.21291966 12.53311893 18.43471955 -0.00220248 0.01059959 -0.00395887
C -11.38270854 17.56401161 24.17220211 -0.00270427 -0.00414932 -0.00514169
C 7.15652910 16.68439572 0.00946472 -0.00099392 -0.00159266 -0.00951210
C 3.36768379 11.72790709 18.20874018 0.00358506 -0.00592570 -0.00100953
C -7.00885119 14.80858291 21.73121987 -0.00020252 -0.00720509 0.00026992
C -7.34266112 9.72197731 20.98943927 0.00495652 0.00340550 0.00367933
C -0.98099251 14.16003312 20.85275013 -0.00487456 -0.00179223 0.00596930
C -0.33583359 18.89506416 21.86761776 -0.00181030 0.00445166 -0.00050578
C -8.26875916 15.67310472 21.58319894 0.00500259 -0.00374842 0.00533160
C -6.15614780 10.46492908 20.97388412 0.00535435 0.00047665 -0.00321552
C 0.18416994 13.26747402 21.05742417 0.00798049 -0.00377483 0.00253882
C -1.42528318 17.85696297 21.74226869 0.00820545 -0.00276490 0.00168327
C 3.30112816 23.09239395 5.05495970 -0.00635720 0.00018501 0.00492813
C 0.38366121 27.95511161 0.86603839 0.00265863 -0.00567546 0.00457887
C 7.18125213 25.34361493 0.98943974 0.00239201 0.00104922 0.00377351
C 9.71142487 20.41349748 5.05300423 -0.00052781 0.00412758 0.00222637
C 4.54110725 23.00364283 4.38319079 0.00143593 0.00362255 -0.01378394
C 12.53643330 28.12034037 1.67038097 0.00316791 -0.00900470 -0.00477034
C 5.93285182 25.34200381 1.67069589 -0.00774065 -0.00858359 -0.00109783
C -2.10448185 20.46276478 4.30327170 -0.00488311 0.00144776 -0.00506758
C 5.50843154 22.12902487 4.80095953 0.00497071 -0.00038280 0.00045325
C 11.60820796 27.16663413 1.27983876 -0.00640453 0.00144284 0.00679944
C 4.86869392 26.15449755 1.32875950 -0.00054444 0.00027747 -0.00075650
C -1.13173751 21.39478109 4.58657285 -0.00257784 -0.00821065 0.00399152
C 5.34657427 21.32434278 5.96194637 -0.00253739 -0.00118944 -0.00430475
C 11.71126343 26.39120126 0.15961906 0.00214597 0.00349212 -0.00110073
C 4.97301043 27.03131703 0.20500652 0.00445785 -0.00103237 0.00306440
C -1.20821421 22.23769681 5.70323694 0.00342734 0.00746143 -0.00917654
C 7.05790453 21.58423250 0.82033183 0.00409233 0.00218693 0.00224234
C 9.79121295 26.06529585 5.50897302 -0.00145064 0.00245919 0.00086228
C 3.57546991 26.87250600 5.61788326 0.00031027 0.00112386 0.00740709
C 0.33489494 22.47741864 0.63356723 -0.00038044 0.00160420 0.00393418
C 6.10692739 22.43784945 0.42922849 0.00469561 0.00655921 0.00373273
C -2.32019760 26.95262200 5.89188115 -0.00053780 -0.00250604 0.00549176
C 4.38999887 25.86859466 5.97602091 0.00156058 0.00154641 -0.00516029
C 12.49950904 21.38751143 0.03907623 0.00165887 -0.00215879 0.00315052
C 2.12245247 24.53999077 3.69205460 0.00527414 0.00408564 -0.00211248
C 1.67210549 19.71824214 2.54464329 -0.00239050 -0.00830909 -0.00681901
C 8.38142267 23.92360767 2.65651581 0.00258033 -0.00338925 0.00501256
C 8.71427545 28.76850415 3.56273532 0.00114609 -0.00395420 0.00160315
C 0.75910847 25.27774994 3.47463620 -0.00101239 -0.01300598 -0.00073442
C 2.87808872 20.59106889 2.77094390 -0.00278311 -0.00345512 0.00286239
C 9.62307109 23.17311585 3.03307740 -0.00035637 -0.00500653 -0.00874559
C 7.61537136 27.82313039 3.30997834 0.00002165 0.00856530 -0.00750107
C 0.15070209 23.24090284 11.03415464 0.00972038 -0.00139027 0.00163291
C -2.44028489 27.80529162 6.97868625 -0.00287022 -0.00285789 -0.00340923
C 4.22814284 25.15407877 7.20697307 0.00196647 -0.00111304 0.00014222
C 6.83533719 20.46739181 11.13776761 -0.00724243 -0.00065660 0.00133241
C 1.28564742 22.93350528 10.27671763 0.00002731 0.00314362 -0.00576136
C 9.28259589 27.85211539 7.64538822 -0.00020120 0.00008756 -0.00550956
C 3.01809016 25.49274091 7.92573202 0.00402214 0.00297366 -0.00110570
C -5.11203030 20.95640743 10.50537615 -0.00901243 -0.00572923 0.00835623
C 2.07423854 21.88238086 10.72064698 0.00519741 0.00446467 -0.00497873
C 8.28811639 27.01362942 7.25422533 -0.00156563 0.00281556 0.00673372
C 2.14092630 26.41036683 7.39804957 0.00587338 -0.00526272 -0.00317825
C -4.04877818 21.65457468 11.00619092 -0.00002707 -0.00387870 -0.00188757
C 1.85476154 21.19826188 11.92867297 0.00206402 -0.00089093 0.00174191
C 8.52921979 26.04872945 6.17886164 -0.00373048 0.00112534 0.00483447
C 2.36920346 27.10902624 6.27934958 -0.00902187 -0.00058584 -0.00298715
C -4.28154895 22.48821862 12.10015186 0.00878913 -0.00542500 -0.00150561
C 4.03940884 21.27226187 6.52853874 -0.00055873 0.00090805 0.00364803
C 6.80039086 26.41323545 11.51535665 -0.00410375 -0.00178484 0.00112853
C 0.13363977 27.11229377 11.69316934 0.01099238 0.00539664 0.00267650
C -2.45750054 22.26050949 6.38887829 -0.00105987 -0.01020649 -0.00103326
C 3.14891306 22.21905329 6.13170343 -0.00646169 0.00940802 0.00063875
C -5.40752900 27.21164484 11.98304877 -0.01045338 0.00260561 0.00343877
C 1.15049628 26.27247053 12.14818349 -0.00493902 0.00501902 -0.00408725
C 9.55045139 21.25983730 6.19185798 0.00121296 -0.00228844 -0.00585038
C -1.00577579 24.55134492 9.38399287 -0.00561891 0.00952276 -0.00722384
C -1.32147883 19.58564655 8.41914635 -0.00570634 0.00200935 -0.00060778
C 5.25076649 23.74145783 8.88158095 -0.00764308 -0.00224736 -0.00423413
C 5.61195762 28.98330638 9.51482940 -0.00666123 0.00505995 -0.00185632
C -2.28322739 25.36092981 9.33420454 -0.00612305 -0.01194115 -0.00044852
C -0.07650864 20.42940587 8.67364032 0.00372792 0.00593818 0.00200840
C 6.47817668 22.96061437 9.10261845 -0.00837588 0.00035110 0.00139586
C 4.33962695 28.22587695 9.12934501 -0.00669448 0.00002967 0.00934575
C -2.85828635 23.13701283 17.28116144 0.00788602 0.00109494 -0.00164758
C -5.53141853 27.97744868 13.14249834 0.00589628 -0.00631248 0.00394792
C 0.92218294 25.42546290 13.21134714 -0.00848582 0.00441949 0.00776499
C 3.85152549 20.58530140 17.37507806 0.00359374 0.00371607 0.00944515
C -1.57709591 23.14465123 16.74064993 -0.00095643 0.00278496 -0.00413019
C 6.32515716 28.04548701 13.76017092 -0.00509697 0.00246906 -0.00661512
C -0.30275797 25.54238035 13.86881656 0.00238753 0.00251781 0.00246612
C -8.10590634 20.46746526 16.77452984 0.00743963 -0.00311237 0.00023501
C -0.53308889 22.31657623 17.16199620 -0.00435792 0.00365425 -0.00073183
C 5.36220905 27.18158319 13.33704960 -0.00089245 0.00039683 0.00030407
C -1.28494977 26.44960593 13.49311209 -0.00029168 0.00474373 0.00602106
C -7.14904899 21.44158454 17.09420510 -0.00902467 0.00117600 -0.00616675
C -0.77047686 21.47199008 18.24264604 -0.00197023 0.00038391 -0.00733606
C 5.59250368 26.23521157 12.23633586 -0.00194652 0.00406598 -0.00216133
C -1.10011612 27.20497104 12.30047576 -0.00038740 0.00030000 -0.00260729
C -7.31172354 22.24987373 18.23527442 -0.00356429 -0.00111666 -0.00310557
C 0.78622517 21.59386589 12.72133224 0.00493693 -0.00059378 -0.00029435
C 4.06533551 26.32480070 17.71964585 0.00491742 0.00172253 0.00471930
C -2.83444908 27.20083191 17.88446479 -0.00812570 0.00611605 0.00535243
C -5.49289307 22.46443407 12.71705823 0.00721624 -0.00216836 -0.00320014
C -0.09984094 22.55950728 12.25574093 -0.00103429 -0.00331437 0.00057188
C -8.28807319 27.37183024 17.95051793 0.00272379 0.00072551 0.00184990
C -1.82330557 26.27937426 18.22043249 0.00451410 -0.00240473 0.00004240
C 6.62786993 21.32404069 12.26323065 -0.00094280 -0.00152491 -0.00068611
C -3.94695935 24.68933452 15.81185255 -0.00351991 -0.00435230 0.00921071
C -4.25288786 19.84224949 14.72499114 0.00423142 -0.00302893 0.00468911
C 2.25618414 23.97185169 14.69630023 -0.00226098 -0.00241944 0.00036952
C 2.49135134 28.82228444 15.88748735 -0.01201480 0.00392228 -0.00388031
C -5.09723738 25.54389954 15.56968636 -0.00340064 -0.00098759 0.00102690
C -2.86738635 20.40300532 14.88861076 -0.00197119 0.00143337 0.00208467
C 3.37560903 22.90831096 14.67815416 -0.00501399 0.00003251 -0.00070078
C 1.43720643 27.82469023 15.79370903 0.00688459 0.00322675 0.00263450
C -5.74159094 23.22725650 23.54748708 -0.00725679 0.00079308 0.00516546
C -8.47613017 28.05824716 19.16849769 -0.00010088 0.00438077 -0.00051782
C -2.07305356 25.29907878 19.25115399 0.00176708 0.00191485 0.00242348
C 0.72938129 20.41373027 23.37681063 0.00263121 -0.00474105 0.00316611
C -4.55462278 23.14602127 22.92426129 0.00165648 0.00188531 0.00386325
C 3.59223119 28.01110049 19.91970188 0.00183467 -0.00297251 -0.00224592
C -3.33478841 25.32326329 19.83124870 -0.00634287 -0.00301561 -0.00093032
C 28.16570904 20.91967769 22.70611531 0.00517429 -0.00434960 -0.00264537
C -3.63679215 22.22041716 23.23371432 -0.00166782 -0.00018117 0.00414936
C 2.59249591 27.24464276 19.43331287 -0.00426214 -0.00220537 -0.00271949
C -4.34393857 26.11193458 19.36529309 0.00648754 0.00434054 -0.00276042
C -10.30323714 21.75307838 23.10033947 0.00457060 -0.00691299 -0.00161734
C 8.24429714 21.40832077 0.03934015 0.00175779 -0.00051261 -0.00170163
C 2.79892371 26.34671127 18.31623202 0.00107663 -0.00201865 -0.00546164
C -4.07745824 27.14197530 18.44192966 -0.00081203 -0.00365898 -0.00610446
C -10.44091688 22.53742301 24.27831275 0.00502966 0.01282096 0.00453647
C -2.09152789 21.30927521 18.68875988 0.00024597 -0.00236869 0.00111731
C 0.84040826 26.59900573 23.74900195 -0.00051031 0.00489632 -0.00258944
C -5.80161586 26.90123153 23.77534518 -0.00213412 0.00721399 0.00081223
C -8.52599958 22.15721692 18.94597329 -0.00112425 -0.00380618 -0.00257015
C -3.02072140 22.23377176 18.42834850 0.00244855 -0.00481736 0.00188470
C -11.47289000 27.12924004 24.07519384 -0.00864651 -0.00717754 0.00050085
C -4.72609039 26.20361107 24.22601173 -0.00420331 -0.00527774 0.00754791
C 3.73476189 21.48760846 18.40891772 -0.00207683 -0.00823162 0.00409777
C -7.10424533 24.50863883 21.92145456 0.00026081 0.00134219 -0.00253497
C -7.25177326 19.93698542 20.99116159 -0.00279481 -0.00328660 -0.00501106
C -0.64210497 24.17773306 20.83713714 -0.00242866 -0.00963247 -0.00419120
C -0.28955963 28.81074505 21.82947489 -0.00110703 0.00366287 -0.00358411
C -8.36533403 25.36777793 21.78540431 -0.00118681 -0.00078230 -0.00290960
C -6.06139109 20.87230819 20.99424763 0.00259616 0.00470862 -0.00507914
C 0.64843317 23.48326582 21.02907017 0.00145846 -0.00352359 0.00028998
C -1.45270977 27.76964500 21.81158696 -0.00438486 0.00019386 0.00035689
C 16.46596951 3.70399455 5.31176290 -0.00539069 -0.00061652 0.00429285
C 13.59918634 8.66531183 1.22366201 0.00273322 -0.00392159 -0.00614299
C 20.17400806 6.17388551 0.92143967 -0.00238336 -0.00194344 0.01106859
C 23.01600169 1.24680965 5.07373835 0.00809893 -0.00104354 -0.00048529
C 17.68870561 3.72576109 4.62990129 0.00275778 0.00065176 -0.00345429
C 25.70245806 8.33261780 1.84708051 -0.00517102 0.00364034 0.00402569
C 18.94073102 6.28319010 1.54647730 0.00726005 0.00087595 -0.00348614
C 11.10044336 0.96924210 4.50183159 -0.00069246 0.00257469 0.00005904
C 18.75852306 2.99813668 5.01313553 0.00507937 -0.00524632 0.00738755
C 24.75620937 7.50150595 1.42860321 0.00313186 -0.00087438 -0.00478745
C 17.96444177 7.22672457 1.22162464 0.00535269 0.00653940 -0.00295765
C 12.08470680 1.86395775 4.82007585 0.00047177 -0.00075414 0.00077168
C 18.66109788 2.02648643 6.03811224 -0.00342484 -0.00039194 0.00716650
C 24.87239552 6.76239123 0.21734250 0.00367141 0.00379443 0.00597008
C 18.12255450 7.95555415 0.05163534 0.00287196 0.00479425 -0.00389402
C 11.86338751 2.81241612 5.81690573 0.00330954 -0.00222730 -0.01349480
C 20.10043203 2.31068018 0.59598035 0.00192239 -0.00074208 -0.00468450
C 22.91426019 7.00869744 5.54925389 -0.00721597 0.00047515 0.00079776
C 16.16596929 7.62748114 5.53284561 -0.00237349 -0.00882891 -0.00477894
C 13.63850480 2.89005032 0.57262319 0.00045715 -0.00240661 0.00168642
C 19.10607312 3.21761842 0.27172919 -0.00261561 0.00091342 0.00033672
C 10.62744657 7.83258524 6.00701967 0.00504957 0.00675475 -0.00185947
C 17.23186608 6.81114848 5.99659108 -0.00306171 -0.00798675 -0.00525161
C 25.51399777 1.78515078 0.00468099 0.00964074 -0.01200075 0.00231081
C 15.12752356 5.22820370 3.83840371 -0.00771154 -0.00109848 -0.00129192
C 14.96919759 0.48498157 2.48222482 -0.00037948 -0.00366574 -0.00040575
C 21.21943882 4.77972503 2.51726826 -0.00714587 -0.00566405 -0.00005671
C 21.98400547 9.35271863 3.44317847 0.00345146 0.00751591 0.00422089
C 13.86113087 5.99896715 3.73002023 -0.00559472 0.00039311 -0.00134044
C 16.11459101 1.51300728 2.47187733 0.00177124 -0.00763957 -0.00179001