2880
Time=11000.00000000 pbc="T T T" Lattice="39.74375045 0.00000000 0.00000000 0.00000000 29.01154883 0.00000000 -12.01223374 0.00000000 24.33777957" energy=-18395.32462209 virial="-7.45011240 -11.13869439 -46.21834025 -11.13869439 9.75908951 5.25602608 -46.21834025 5.25602608 35.15850975" stress="0.00221828 -0.00042908 -0.00171014 -0.00042908 0.00273475 0.00022374 -0.00171014 0.00022374 0.00381007" Properties=species:S:1:pos:R:3:vel:R:3
C 3.01068411 3.76461541 5.23564843 -0.00835105 -0.00323891 0.00402359
C 0.29216744 8.49241272 0.94761587 0.00452928 0.00512851 0.00166907
C 7.02829996 5.83181227 1.16154605 0.00150541 0.00178528 -0.00225300
C 9.69055439 1.08625766 5.17449257 -0.00285099 -0.00155931 0.00280470
C 4.21610954 3.74933128 4.56253373 0.00854648 0.00318264 -0.00115852
C 12.61308107 8.53678917 1.76717596 -0.00473511 0.00279077 -0.00333588
C 5.76888769 5.78528218 1.80062998 -0.00710712 -0.00895116 -0.00021961
C 37.43976123 1.14239954 4.40827990 -0.00003701 0.00036190 -0.00652736
C 5.20807669 2.84486375 4.88756845 0.00141514 -0.00381978 0.00277245
C 11.66914643 7.63124310 1.39137631 0.00273600 -0.00781951 -0.00387445
C 4.78477225 6.70341971 1.44777388 0.00265892 -0.00860077 -0.00029215
C -1.36060229 2.05682397 4.86904254 -0.00516681 -0.00232826 -0.00092685
C 4.98103306 1.86667186 5.82446437 0.00526857 0.00902818 -0.00226747
C 11.85590072 6.87613496 0.20310278 -0.00318743 0.00210637 0.00386576
C 4.94432353 7.57914751 0.37984014 0.00157175 -0.00319467 0.00174997
C -1.42773458 2.65237759 6.10064872 0.00613670 0.00258845 0.00473290
C 6.73607560 1.78346346 0.38408539 0.00120482 0.00616963 -0.00487263
C 9.88899990 6.81807506 5.63147198 0.00731483 -0.00215865 -0.00127177
C 3.20745996 7.55907735 5.65743904 -0.00491780 -0.00249493 -0.00068171
C 0.04606679 2.94055331 0.73489379 -0.00295011 -0.00231560 -0.00069130
C 5.81391167 2.71772333 0.06386664 -0.00176955 -0.00178087 -0.00561250
C -2.31802173 8.00969078 5.97220868 -0.00618328 -0.00512120 -0.00443829
C 4.17754538 6.67731961 6.13030953 0.00181992 -0.00702046 -0.00492069
C 0.58888221 1.87160080 24.33060598 -0.00245745 -0.00279438 0.00341756
C 1.81333108 5.08367871 3.56208019 -0.00147779 -0.00422952 0.00326282
C 1.38014711 0.35660030 2.63844723 0.00109592 0.00313681 0.00496171
C 8.24777559 4.41386144 2.65829891 -0.00243896 -0.00611402 -0.00586581
C 8.65063452 9.34606209 3.59046672 -0.00306890 0.00825591 0.00571833
C 0.55877155 5.84152405 3.31181298 0.00083584 -0.00383941 -0.00130836
C 2.55279700 1.17259653 2.86959833 0.01020935 0.00042257 0.00543957
C 9.20821766 3.28653098 2.78169874 -0.01009519 -0.00078132 0.00068704
C 7.46437778 8.39552567 3.55035716 0.00332862 -0.00184676 -0.00476046
C 0.12175790 3.61304830 11.32935160 0.00882869 0.00002604 -0.00200826
C -2.59489531 8.69279974 7.14229421 -0.00121037 0.00400679 -0.00238220
C 3.90184351 5.79687938 7.21672279 -0.00072104 0.00447124 -0.00279173
C 6.78395536 1.14556558 11.20705717 -0.00119685 -0.00324277 -0.00828227
C 1.37550480 3.53924493 10.65714974 -0.00258143 0.00290326 -0.00461894
C 9.55247806 8.54245426 7.83397820 0.00341570 0.00183390 0.00611070
C 2.71400899 6.00887624 7.90850611 -0.00519115 0.00813202 0.00261083
C -5.16223011 1.12486309 10.76549377 -0.00378661 -0.00425398 0.00099797
C 2.29906972 2.63365620 11.06555890 0.00265519 0.00144092 -0.00059013
C 8.54046806 7.59020452 7.61312392 -0.00181811 0.00403178 0.00334368
C 1.69123440 6.86628294 7.41531481 -0.00776320 -0.00338839 0.00232086
C -4.14909131 1.91954886 11.23922287 0.00327723 0.00456134 -0.00649330
C 2.15623153 1.84206692 12.18364404 0.00398479 -0.00012654 0.00178503
C 8.65326987 6.77667752 6.42657033 0.00402835 -0.00030383 0.00119377
C 1.91048938 7.68918245 6.28106795 0.00731911 0.00520072 -0.00330909
C -4.40150858 2.82331626 12.26152239 0.00548518 -0.00199099 0.00511468
C 3.77360909 1.86781303 6.51484112 -0.00575148 -0.00488487 0.00508551
C 7.01540948 6.81622146 11.76665475 -0.00419722 0.00272292 0.00405332
C 0.25903889 7.58041195 11.75364594 0.00017129 -0.00528256 0.00034954
C -2.67109058 2.50529393 6.75216395 0.00032947 0.00039191 0.00008025
C 2.82967410 2.84258669 6.23119831 -0.00604589 -0.00398673 -0.00615489
C -5.43559853 7.84013763 12.11204082 -0.00571079 -0.00623781 -0.00117663
C 1.23639897 6.71185634 12.20624022 0.00102747 -0.00438950 0.00015992
C 9.55070710 1.93208477 6.26422517 -0.00097455 0.00027999 0.01027796
C -0.94551327 5.08652673 9.71435101 0.00483697 0.00006775 0.00014343
C -1.13756799 28.99871545 8.51585595 -0.00464802 -0.00572721 0.00141434
C 5.07226883 4.39320838 8.80300087 -0.00750099 0.00352584 -0.00022659
C 5.70069169 9.26978807 9.55427026 0.00040322 -0.00029420 -0.00090663
C -2.04018035 6.09542973 9.55507652 0.00049954 0.00463002 -0.00460449
C 0.21891903 0.65464149 8.74111515 0.00067162 -0.00201557 0.00514473
C 6.35805920 3.62867777 9.02261238 -0.00723932 -0.00359741 0.00153089
C 4.53050208 8.28943037 9.54096365 -0.00983969 0.00400620 -0.00685326
C -2.92163615 3.80909538 17.36171275 -0.00661083 -0.00380876 0.00942454
C -5.67590791 8.75677098 13.14236111 0.00192930 0.00470047 -0.00092998
C 0.89936555 5.88983462 13.29277820 0.00236942 -0.00205585 -0.00337020
C 3.80062909 1.27336496 17.32325064 0.00193734 0.00542726 0.00294346
C -1.69952594 3.74929932 16.68572189 -0.00593523 -0.00550499 0.00273732
C 6.46661990 8.57890510 13.82773695 0.00457812 -0.00130170 0.00503670
C -0.35528395 5.95656255 13.89865389 0.00552480 0.00543516 -0.01066353
C 31.47373009 1.31760904 16.61974126 0.00204134 -0.00341166 0.00233879
C -0.74003951 2.82961766 17.11333300 0.00557368 0.00530649 -0.00293773
C 5.53635313 7.60280745 13.45187300 -0.00376360 0.00124903 0.00310647
C -1.25721481 6.85309661 13.49294452 -0.00223661 0.00300186 -0.00022694
C -7.27522790 2.09727799 17.18431875 0.00190406 -0.00036915 -0.00332200
C -0.86649500 2.00841476 18.24700376 0.00478516 -0.00854886 0.00341361
C 5.78811470 6.76816043 12.42302124 0.00632217 -0.00484624 -0.00344278
C -1.02942102 7.68050865 12.35789441 -0.00095874 -0.00669765 -0.00342221
C -7.52367568 2.95611892 18.30214284 -0.00290812 -0.00050367 -0.00631753
C 0.94388861 1.93874120 12.85553469 0.00407331 -0.00277193 0.00022975
C 3.79973097 6.87739241 17.90919552 0.00443178 0.00074376 -0.00584900
C -2.77009469 7.71568186 17.77688273 -0.00452914 -0.00863085 -0.00096102
C -5.59333896 2.76791355 12.99432617 0.00078374 -0.00089262 0.00422206
C -0.12037476 2.78805106 12.42873115 0.00036631 -0.00173952 0.00965017
C -8.46143971 7.75766325 18.18081495 -0.00057610 -0.00233527 -0.00284818
C -1.79927955 6.94757345 18.35814995 0.00513038 -0.00212107 -0.00154501
C 6.61206908 1.98886086 12.34818763 0.00891125 -0.00181553 -0.00539415
C -4.29818961 5.38803885 15.84194791 -0.00184474 0.00515773 0.00363435
C -4.46820533 0.38572611 14.64204932 -0.00138592 0.00185925 -0.00795421
C 2.10433831 4.58929598 14.88268227 0.00651056 -0.00622468 0.00371772
C 2.70425324 9.28969689 15.77988613 -0.00864895 -0.00170846 0.00160805
C -5.55441172 6.19091096 15.84410688 -0.00472196 0.00333606 -0.01267732
C -3.31415572 1.34047932 14.97371777 0.00437371 -0.00415269 -0.00504558
C 3.20029568 3.59369761 15.06568414 0.00225032 0.00200900 -0.00565349
C 1.44342040 8.56070450 15.53031318 0.00708901 0.00188974 0.00333277
C -5.94189535 3.67959892 23.41645203 -0.00360788 0.00447960 0.00283983
C -8.58731109 8.61172849 19.25402440 0.00282851 -0.00037080 -0.00652871
C -2.13076606 6.08151608 19.40285035 -0.00512312 -0.00403421 0.00467631
C 0.69890553 1.03518793 23.24822798 -0.00539101 -0.00220002 0.00214841
C -4.66538587 3.78504522 22.81179491 0.00344610 0.00465960 0.00233572
C 3.37017039 8.68572920 20.02914357 -0.00062024 0.00344645 0.00468500
C -3.30047189 6.27084794 20.16493303 -0.00494290 0.00559348 -0.00195767
C 28.20729935 1.39679550 22.75039492 0.00164093 -0.00515946 -0.00689649
C -3.67174724 2.89258161 23.18454587 -0.00195269 0.00456008 -0.00308464
C 2.36235314 7.79669862 19.71790955 -0.00018819 0.00835281 0.00032061
C -4.27583917 7.14814349 19.65490408 0.00192552 0.00149861 -0.00632832
C -10.61168559 2.28498698 23.18387925 -0.00291486 0.00359776 0.00115482
C -3.94895255 1.91628828 24.17212438 0.00381829 -0.00787468 0.00532590
C 2.53965219 6.92507736 18.60854076 0.00462574 -0.00863023 0.00727665
C -4.00860772 7.80099736 18.43760219 0.00061956 -0.00436461 0.00483723
C -10.78915961 3.07597728 24.33566780 0.01302493 -0.00197743 0.00231673
C -2.15967772 2.08052648 18.86205105 -0.00111743 0.00247999 0.00668207
C 1.05074642 7.02153366 23.87486001 0.00050259 0.00032415 0.00812257
C -5.78777076 7.65892086 24.04200634 -0.00450579 -0.00752292 0.00030779
C -8.78091247 2.85595047 18.84421141 -0.00582995 0.00319508 0.00496091
C -3.12032992 2.90247818 18.40950364 0.00191130 -0.00030282 -0.00188916
C -11.58410579 7.64941197 24.16741184 0.00102680 0.00229910 -0.00402905
C 7.24636384 6.79747134 0.11298485 -0.00168836 0.00145884 0.00303907
C 3.61168235 2.23837818 18.30513932 -0.00639032 0.00338216 0.00251916
C -7.06465924 5.21706607 22.02150797 -0.00201566 -0.00338430 -0.00814669
C -7.43181479 0.22145277 20.65168426 0.00279052 0.00229288 -0.00361997
C -0.91259868 4.56228406 20.91671067 0.00501845 0.00412228 -0.00120883
C -0.41234069 9.47561946 22.08525844 0.00130678 -0.00134505 0.00726314
C -8.25433731 6.10194190 21.82077571 0.00158971 0.00227715 0.00728317
C -6.25916560 1.14552113 20.87672785 0.00112404 0.00180756 0.01336466
C 0.34374759 3.70398294 20.95747573 0.00458497 0.00062117 0.00330054
C -1.69451412 8.58690409 22.01160918 -0.00256317 -0.00324485 -0.00988095
C 3.21707542 13.56296118 5.00265294 0.00474543 0.00026614 0.00002038
C 0.44187233 18.10210017 0.87312552 0.00120171 0.00071278 -0.00111563
C 7.02955852 15.53653737 0.96488665 -0.00268290 0.00625617 0.00028555
C 9.95431300 10.71549062 5.06280657 -0.00230627 0.01002690 -0.00481183
C 4.33179284 13.33841642 4.22944651 0.00248503 0.00607283 0.00109943
C 12.26928377 18.24902599 1.69475175 -0.00294532 0.00259366 -0.00138096
C 5.86663094 15.69730350 1.70851678 -0.00631827 -0.00361824 0.00505652
C 37.56720050 10.88038963 4.34934122 -0.00303331 -0.00201598 -0.00037210
C 5.30162043 12.38891760 4.61113551 -0.00240589 -0.00230762 -0.00586158
C 11.40063218 17.22739337 1.30462914 -0.00143303 0.00153642 -0.00099623
C 4.84769854 16.51888546 1.30403684 -0.00765750 -0.00491450 0.00004754
C -1.25978505 11.85681209 4.78106231 0.00145957 -0.00264353 -0.00452030
C 5.19387070 11.72818703 5.85089781 0.00542766 0.00630264 -0.00727587
C 11.62243669 16.48215348 0.17622676 0.00048808 0.00005660 -0.00586640
C 4.95035302 17.23341445 0.11761726 -0.00176240 0.00588672 0.00477095
C -1.51626904 12.66897624 5.90575960 -0.00199373 0.00664302 -0.00669123
C 7.13363194 11.75377794 0.54747462 0.00032115 0.00159649 -0.00068985
C 10.05639728 16.49477614 5.50164177 -0.00068217 -0.00738024 0.00065164
C 3.33733744 17.21658576 5.68557614 0.00361205 -0.00143234 -0.00141856
C 0.60890482 12.54327573 0.53842256 -0.00465695 -0.00021256 0.00120628
C 6.14516003 12.51574745 0.06991713 0.00730191 0.00253449 -0.00535493
C -2.32145488 17.27395420 6.02387179 -0.00067147 0.00330056 -0.00383014
C 4.40935847 16.48015421 6.16010146 -0.00710882 0.00271384 0.00115806
C 12.78352336 11.75321356 0.27084079 -0.00126958 0.00198556 0.00062629
C 1.95987746 14.86583693 3.42742985 0.00921890 -0.00564518 0.00126375
C 1.50923327 9.92941268 2.56606990 0.00368580 0.00244497 0.00196148
C 8.24202247 14.23475571 2.63590427 -0.00208926 -0.00452352 0.00288629
C 8.71361061 18.98022164 3.40859828 0.00081198 0.00462408 0.00011187
C 0.63350938 15.57961531 3.28797828 0.00378845 0.00115459 -0.00052154
C 2.68769520 10.82409373 2.74321669 0.00325355 0.00134924 0.01165493
C 9.52627280 13.48960888 2.83281849 0.00451716 -0.00818388 0.00185155
C 7.42868372 18.18546718 3.25564502 0.00484172 0.00451168 -0.00127958
C 0.25217686 13.33068613 11.33902529 0.00010465 -0.00346585 -0.00304953
C -2.62515195 18.15833489 7.07027347 0.00425926 0.00196085 -0.00200193
C 4.23909206 15.66109875 7.29025672 -0.00091458 0.00230833 0.00262710
C 6.94245423 10.67137494 11.18869797 -0.00705363 0.00819000 -0.00385250
C 1.48662340 13.17606409 10.73832698 -0.00018230 0.00718934 0.00848558
C 9.59635466 17.86724446 7.94114474 0.00131732 0.00059334 -0.00166746
C 3.05480824 15.71840955 8.03878187 -0.00407431 0.00070538 0.00044454
C 34.41936046 10.68415450 10.37408431 0.00062027 -0.00403819 0.00065220
C 2.49125781 12.32327887 11.12050578 0.00030185 -0.00725951 -0.00106060
C 8.59860246 17.08763106 7.47387874 -0.00242539 -0.00683363 -0.00342544
C 2.08251184 16.61735358 7.70848885 -0.00516552 0.00614658 -0.00689253
C -4.43642223 11.64292706 10.71129148 -0.00171927 -0.00275183 -0.00455542
C 2.34556322 11.60727531 12.32665691 -0.00221442 -0.00547626 -0.00464412
C 8.80395596 16.34764440 6.23244312 0.00219817 0.00269638 0.00496351
C 2.19129278 17.36409210 6.47337447 0.00219812 -0.00091304 -0.00505550
C -4.66943819 12.50952831 11.80064782 -0.00208159 -0.00295851 -0.00881841
C 3.95538066 11.83552973 6.48974322 -0.00177382 0.00704446 -0.00213761
C 7.06542491 16.55386210 11.51498363 0.00280311 -0.00086450 0.00416454
C 0.41840745 17.08323424 11.63423326 -0.00139482 -0.00006300 0.00263383
C -2.78458592 12.58829346 6.57972108 -0.00419881 -0.00171994 0.00286608
C 3.08218626 12.81459733 6.20675984 -0.00173084 0.00308824 -0.00119555
C -5.44288924 17.34204816 11.85207442 0.00174275 -0.00341213 0.00375943
C 1.42159646 16.28515797 12.08698168 -0.00301912 0.00072921 0.00502828
C 9.88542326 11.59209220 6.12349981 0.00871736 0.00455372 0.00232269
C -0.96238228 14.73310632 9.83952135 -0.00016188 -0.00714611 0.00503871
C -1.45428047 10.07691163 8.75153683 -0.00407892 -0.00201171 0.00003786
C 5.52223105 14.14391968 8.65532593 -0.00148070 -0.00096506 0.00162445
C 5.82678218 18.91415816 9.46628464 -0.00222087 -0.00187356 0.00789188
C -2.22882267 15.50447971 9.71554418 -0.00110819 -0.00108848 0.00316729
C -0.25317911 11.05115433 8.96921186 -0.00516488 -0.00159853 0.00316521
C 6.75193613 13.27802949 8.65216300 -0.00173860 0.00325873 0.00396364
C 4.72788980 17.92377284 9.44506248 0.01101600 0.00446361 0.00479186
C -2.76294821 13.37009394 17.11000395 -0.00799008 0.00205683 0.00448724
C -5.59034677 18.07706761 13.04606365 0.00204491 -0.00130977 -0.00678458
C 1.30622994 15.46369376 13.21607607 0.00674917 -0.00148832 -0.00396152
C 3.94243330 10.68810640 17.32941349 -0.00579487 0.00451635 0.00892849
C -1.53082165 13.28345450 16.52352599 0.00436996 -0.00637308 -0.00027452
C 6.60529357 18.16096041 13.68425552 0.00364201 -0.00304262 0.00322376
C 0.06406887 15.58768959 13.92336343 -0.00402896 0.00362095 0.00042456
C 31.55547082 10.86135451 16.58543181 0.00444272 0.00460667 0.00302102
C -0.53301380 12.46260269 17.00060708 -0.00181447 0.00531942 -0.00946199
C 5.61332371 17.20925863 13.27425733 0.00212815 0.00085333 -0.00415252
C -0.89397923 16.58487683 13.59524497 -0.00408685 0.00508862 -0.00028017
C -7.18997920 11.72875852 17.04115052 0.00084644 0.00256851 0.00155229
C -0.71739766 11.73787625 18.21219981 -0.00435245 -0.00197622 0.01157251
C 5.82770950 16.44614939 12.15321437 0.00396791 -0.00363274 -0.01076915
C -0.75748177 17.28863789 12.41697577 -0.00244054 -0.00153869 -0.00165941
C -7.42816407 12.45326892 18.13537409 -0.00439990 -0.00593018 -0.00726486
C 1.04184163 11.72101190 12.91513956 0.00239830 0.00224947 0.00212298
C 4.01743329 16.50880326 17.97552348 0.00575238 0.00335825 0.00112753
C -2.74505335 17.35564504 17.81420700 -0.00651952 0.00412588 -0.00238517
C -5.91028703 12.39130473 12.45870185 0.00329412 0.00054595 0.00663754
C 0.11147244 12.55892793 12.47587394 0.00153420 0.00303989 -0.00126529
C -8.20639011 17.18108287 18.14122857 0.00439270 -0.00273874 -0.00132259
C -1.80841672 16.45017851 18.15463533 0.00543055 -0.00412191 -0.00028907
C 6.61823052 11.47061935 12.32654984 0.00440073 -0.00286792 0.00082844
C -3.86354708 14.81621967 15.63648644 0.00379846 -0.00451152 0.01092629
C -4.33240062 10.15202150 14.52544240 0.00248183 -0.00197617 -0.00058971
C 2.47735160 14.12855685 14.83513590 0.00453065 0.00337757 -0.00172695
C 2.86033710 19.14078532 15.70639893 0.00419828 0.00294088 0.00495806
C -5.02331661 15.73205411 15.39378896 0.00580143 0.00372023 -0.00408176
C -3.18504800 11.06194851 14.63219172 0.00516856 -0.00388547 -0.00144755
C 3.71935068 13.40966790 15.21813581 0.00046008 -0.00758901 0.00089631
C 1.84469590 18.04119526 15.60595402 0.00019281 -0.00295263 -0.00085040
C -5.71848576 13.39704379 23.28108635 -0.00543983 -0.00219423 0.00178370
C -8.46027179 18.13740870 19.12832286 -0.00437493 -0.00345459 0.00509824
C -1.96828496 15.57619782 19.31100553 0.00205967 0.00518227 -0.00125355
C 0.84657867 10.94635381 23.49275898 -0.00308316 -0.00193893 -0.00582820
C -4.52630563 13.23600553 22.55470250 0.00218567 -0.00115457 0.00361767
C 3.58979435 18.16684072 20.09036809 0.00252356 0.00238263 0.00436830
C -3.15475287 15.65579758 19.96140091 -0.00227650 -0.00487989 0.00253465
C -11.16014993 11.00382795 22.61876725 -0.00163543 -0.00432850 -0.00253246
C -3.48683184 12.47984450 23.08754734 0.00475838 -0.00117646 0.00510222
C 2.63984346 17.18929505 19.81308980 -0.00535244 0.00226773 0.00496206
C -4.08895613 16.59673492 19.65894282 0.00549252 -0.00395385 0.00278968
C -10.00245450 11.68623139 23.06752259 0.00268935 -0.00504099 -0.00496338
C -3.58832050 11.74105828 24.25350520 0.00046630 -0.00106149 -0.00310500
C 2.72855500 16.36422477 18.65980582 -0.00098567 -0.00459674 -0.00401267
C -3.95211516 17.45315993 18.50013563 0.00030153 0.00651211 0.00463708
C -10.11640298 12.45725062 24.23974043 -0.00606788 0.00031506 0.00392621
C -2.01931780 11.71348630 18.69254895 0.00211000 0.00596847 -0.00569401
C 0.88585296 16.58704046 23.93210507 0.00613196 -0.00290473 -0.00268828
C -5.81393040 17.15209044 23.77750910 -0.00295955 -0.00009151 -0.00094135
C -8.72348707 12.47436468 18.71802350 -0.00508977 -0.00548234 0.00070983
C -3.02206687 12.51403517 18.16706193 0.00606748 0.00483834 -0.00542991
C -11.35036998 17.38188120 24.01803681 0.00550164 -0.00611639 0.00495900
C -4.82159617 16.27660553 24.12014599 0.00438648 0.00338669 -0.00736700
C 3.67634989 11.52278896 18.48255666 -0.00155389 0.00214438 0.00096054
C -6.89869565 14.86407455 21.78572690 -0.00532090 -0.00537267 0.00084789
C -7.21322245 9.78806449 20.78607493 0.00876488 -0.00511656 -0.00064949
C -0.63306479 14.23838188 20.76413395 -0.00195130 0.00708337 0.00228222
C -0.20527039 19.14966446 21.87713965 -0.00362226 0.00248160 -0.00178403
C -8.13198736 15.64298999 21.57905189 -0.00198993 0.00101652 0.00139482
C -6.00679144 10.60235760 20.97565474 -0.00726327 0.00008846 0.00083032
C 0.73852453 13.45650683 20.86590035 0.00510910 0.00067473 0.00173925
C -1.04797470 17.97322125 21.81443587 -0.00745177 0.00081292 0.00172566
C 3.36116850 22.95008205 5.16219257 -0.00405266 0.00042564 -0.00293096
C 0.37733228 27.89850152 0.97709808 0.00443421 0.00386190 0.00333344
C 6.91259893 25.19681275 0.94008409 -0.00669220 -0.00046389 0.00611782
C 9.85295124 20.35558725 5.00986744 0.00663413 -0.00077572 -0.00141200
C 4.55154372 22.88349193 4.47356351 -0.00220274 -0.00243113 -0.00179951
C 12.43456548 27.86689259 1.79287099 0.00106906 -0.00407928 -0.00755865
C 5.67177279 25.21362594 1.66922424 0.00039439 -0.00756889 -0.00049688
C 37.64838838 20.23625765 4.23731624 0.00735235 -0.00222849 -0.00502572
C 5.55154443 22.00576478 4.84703139 0.00331960 0.00494850 0.00022145
C 11.49116603 26.96366423 1.36381270 0.00142986 -0.00105456 -0.00343728
C 4.65947260 26.05470418 1.21925696 0.00981900 0.00341443 -0.00590276
C -1.09398431 21.11961596 4.66818954 0.00481822 0.00289689 -0.00138869
C 5.36461007 21.11527505 5.89458507 0.00290204 0.00747181 0.00195117
C 11.64535030 26.15087467 0.23133597 -0.00681150 -0.00101048 -0.00094679
C 4.83102622 26.84294148 0.03999143 0.00270904 -0.00218616 0.00227725
C -1.32295306 22.02923000 5.66880791 0.00371624 0.00696798 0.00226197
C 6.94354617 21.26833700 0.43933210 0.00088993 -0.00547148 0.00227715
C 9.90632310 26.06368224 5.63025985 -0.00578096 0.00555274 0.00415984
C 3.26685994 26.88868527 5.41383968 0.00026438 -0.00346528 -0.00605786
C 0.52506070 21.94336274 0.45847510 -0.00318298 0.00389935 0.00090973
C -6.07736376 22.06218022 24.21667439 0.00249791 0.00531576 -0.00722875
C -2.34192783 26.95991999 5.83049139 0.00954192 0.00037287 0.00099142
C 4.20332438 26.05003857 5.95146711 0.00589560 0.00206584 -0.00351608
C 12.69524623 21.64087283 0.09879770 -0.00435291 0.00397571 0.00866013
C 2.02762633 24.20499622 3.57651720 0.00372040 -0.00788892 0.00496177
C 1.75521464 19.37757434 2.49866418 -0.00175967 -0.00698997 0.00106555
C 8.10891752 23.74691357 2.57362987 -0.00093185 0.00664912 0.00555765
C 8.42954641 28.74412978 3.63639146 -0.00057480 0.00036661 0.00193498
C 0.70572756 24.91954948 3.59164216 0.00221012 0.00289777 -0.00400867
C 2.85178567 20.37129247 2.52902838 0.00393682 -0.00337838 -0.00094898
C 9.09614863 22.64828135 2.58516227 0.00399162 -0.00446157 -0.00278741
C 7.24525423 27.82712090 3.51058335 -0.00790964 -0.00449723 0.00273174
C 0.32746408 23.06409615 11.07929051 -0.00529848 0.00440822 0.00000107
C -2.51822774 27.80793971 6.91387157 -0.00827501 -0.00216556 -0.00343799
C 4.03363542 25.21959367 7.02908593 -0.00187338 -0.00524279 -0.00223075
C 6.99702210 20.32143463 11.06954889 0.00171244 0.00441995 0.00582677
C 1.45682838 22.79510211 10.26783800 -0.00003537 0.00435896 0.00253876
C 9.53589207 27.87588532 7.58311091 0.00162086 -0.00367022 -0.00088226
C 2.83133088 25.41269928 7.67543575 -0.00075166 -0.00090469 0.00491696
C -5.01992700 20.47119949 10.51314374 0.00046128 0.00295634 0.00418337
C 2.40519678 21.92870434 10.67810568 0.00369209 0.00174378 -0.01184537
C 8.39901343 27.08175625 7.18483191 -0.00021653 0.00326823 0.00511382
C 1.79625487 26.20497186 7.19438255 0.00371591 0.00076539 0.00100101
C -4.00939971 21.33204311 10.96884642 -0.00065944 0.00547086 -0.00277291
C 2.18608587 21.13496348 11.84209877 0.00500719 -0.00568077 0.00063340
C 8.63455754 26.23419561 6.12690766 -0.00509561 -0.00067326 0.00383932
C 2.03441460 26.99803174 6.02522118 0.00250133 -0.00848969 0.00352698
C -4.24740496 22.14865173 12.03468845 -0.00192925 0.00972664 -0.00197383
C 4.12434724 21.12693760 6.54162997 0.00162826 0.00069871 0.00229550
C 6.58084736 26.29484269 11.39488880 -0.00643867 -0.00055723 -0.00026690
C 0.29522965 26.85607937 11.47417342 -0.00353226 0.00268238 -0.00092815
C -2.57952730 22.07011370 6.26940915 0.00106944 -0.00093340 0.00023659
C 3.13142602 22.02381373 6.20591853 -0.00142797 0.00204609 -0.00216029
C -5.38814186 26.98767706 12.04527724 -0.00221193 -0.00062936 0.00142046
C 1.25592657 26.04600463 11.98995982 -0.00678222 0.00305480 0.00300173
C 9.54095687 21.09585811 6.16366569 -0.00391159 0.00653046 0.00051749
C -0.91285758 24.35805836 9.43205083 0.00449744 -0.00253170 0.00319099
C -1.36544005 19.39009984 8.65818891 0.00724584 0.00500882 0.00417479
C 5.26915241 23.89418632 8.64802908 -0.00631859 0.00478684 0.00465726
C 5.55867984 28.86386125 9.52165781 -0.00824014 -0.00140554 -0.00029276
C -2.20712981 25.02711076 9.29603283 0.00170715 0.00209392 0.00089447
C -0.16256953 20.23716185 8.72438377 -0.00763767 -0.00052908 -0.00269714
C 6.69748010 23.25662705 8.75701143 0.00063720 0.00154162 -0.00036543
C 4.52567327 27.83133739 9.43018721 -0.00071904 -0.00115706 -0.00307610
C -2.59247017 22.98419507 17.08353340 0.00083608 0.00418715 -0.00026538
C -5.56879810 27.81068370 13.14864129 -0.00181044 0.00339306 0.00689802
C 1.05843660 25.31292120 13.20060199 -0.00464527 0.00013059 0.00312479
C 3.98996981 20.52629243 17.30824759 -0.00024989 0.00141848 -0.00410597
C -1.40584867 22.85263134 16.37915486 0.00078870 0.00332000 -0.00335781
C 6.26669383 27.74483746 13.74199473 -0.00372202 -0.00002675 0.00150534
C -0.15937432 25.54825048 13.85924942 0.00537640 -0.00009921 -0.00714196
C -8.10995621 20.46322996 16.57647547 -0.00633100 -0.00541120 -0.00391099
C -0.48660096 22.01743483 16.85572910 0.00101168 -0.00559822 0.00000921
C 5.29065985 26.91485264 13.28270780 -0.00477342 -0.00450259 0.00263463
C -1.06392591 26.44192229 13.37708519 0.00095316 0.00255678 0.00181835
C -7.09815428 21.28586192 16.96281636 -0.00038353 0.00492880 0.00480667
C -0.63788905 21.25323728 18.02347183 -0.00117051 0.00375749 -0.00947905
C 5.42103724 26.12977306 12.08729468 0.00208757 0.00143837 -0.00089564
C -0.90200595 27.08625450 12.12443042 -0.00112920 0.00336481 -0.00456449
C -7.20078539 22.15966598 18.07867724 0.00227432 -0.00907661 0.00028779
C 1.02000104 21.30709045 12.54385598 -0.00143518 0.00457499 -0.00115162
C 3.98029310 26.35358614 17.71721965 -0.00703592 -0.00170002 -0.00746401
C -2.89718742 26.89082839 17.67741156 0.00531993 -0.00147178 0.00075981
C -5.53589633 22.18372265 12.66598414 0.00647067 0.00116317 0.00412732
C 0.10780824 22.25817247 12.20029036 -0.00296609 0.00168947 -0.00845770
C -8.40387133 26.91561303 18.08651658 -0.00764964 -0.01072317 -0.00046518
C -1.83495939 26.07238532 18.08601943 -0.00139984 -0.00235178 -0.00387823
C 6.70821385 21.12357443 12.15805935 0.00234990 0.00005153 0.00179111
C -3.88719553 24.36114311 15.55832478 0.00055420 -0.00210156 0.00412644
C -4.27765038 19.31737941 14.64361727 0.00755953 0.00051886 -0.00786305
C 2.15123222 23.77520169 14.82105855 -0.00340869 0.00233790 0.00099777
C 2.53151464 28.74775933 15.95153105 0.00440790 -0.00246306 -0.00362015
C -5.14504230 25.20335745 15.37022419 -0.00388507 -0.00153080 -0.00200185
C -3.17623353 20.28730535 14.79128047 -0.00419658 0.00746261 0.00075208
C 3.38323831 22.92046738 15.04069491 -0.00204540 -0.00608343 0.00001147
C 1.40712773 27.80762537 15.89345863 0.00450934 0.00638837 0.00341164
C -5.74776147 22.98855032 23.21335884 0.00268220 -0.00068924 0.00351438
C -8.59379594 27.79227994 19.16563857 -0.00115909 0.00002319 0.00167104
C -2.01379018 25.27409357 19.22776897 0.00257601 -0.00192124 0.00571149
C 0.85653210 20.64605412 23.47385136 -0.00182473 0.00023372 -0.00135773
C -4.46997363 22.94902315 22.65118809 -0.00683319 0.00270690 -0.00225677
C 3.50929451 28.03593937 19.95450131 0.00180694 -0.00140320 0.00483814
C -3.16322762 25.44588194 20.05326486 0.00186972 0.00041169 -0.00401112
C 28.44557847 20.59619546 22.37638426 0.00444331 -0.00380417 -0.00387949
C -3.53055745 22.07376263 23.10232180 0.00021194 -0.00241861 -0.00257776
C 2.52918038 27.18514762 19.44118398 -0.00396571 0.00285388 0.00618718
C -4.17076458 26.25438004 19.60539785 0.00342899 0.00438890 -0.00318169
C -10.35983379 21.54821826 22.68081280 0.00474562 0.00249921 0.00565051
C -3.82052114 21.21913144 24.18730895 0.00365144 0.00138378 -0.00731715
C 2.68940948 26.32620427 18.36817807 0.01115045 0.00318573 0.00223446
C -4.04723923 27.03092056 18.46374457 0.00301831 -0.00361773 0.00119796
C -10.45455002 22.19181153 23.95391682 0.00634713 0.00727863 0.00351975
C -1.86444101 21.36790400 18.70568965 -0.00388336 0.00138137 -0.00056202
C 0.79717979 26.34593978 23.81563136 -0.00514528 0.00121801 -0.00114227
C -5.90333367 26.86675548 23.72960180 -0.00009577 -0.00110678 -0.00552706
C -8.44166710 22.17469193 18.72473847 0.00127140 0.00090119 -0.00214358
C -2.86712115 22.23111472 18.30759802 0.00236068 -0.00140068 -0.00528097
C -11.39327155 27.25473420 24.17573405 -0.00099821 -0.00116180 0.00617617
C -4.88903350 26.05134846 24.20381015 0.00300757 -0.00391845 0.01027117
C 3.75504391 21.29200470 18.41693620 0.00234526 0.00083100 0.00399212
C -6.90777547 24.43259947 21.69342272 0.01147535 -0.01030136 0.00803172
C -7.23632141 19.56158878 20.73652908 0.01143308 0.00666800 0.00434723
C -0.81868737 23.92534239 20.87864739 0.00410939 -0.00269565 -0.00543020
C -0.55388666 28.77703118 21.59504339 0.00369106 0.00111927 -0.00095779
C -8.15979546 25.26740438 21.50106759 0.00753759 -0.01025839 -0.00400162
C -6.02575351 20.46068445 20.85906813 -0.00357689 -0.01034689 -0.00087705
C 0.28253919 22.93822517 21.08525062 -0.00263071 0.00538044 -0.00810266
C -1.85584513 28.02687098 21.44281872 -0.00124873 0.00555751 0.00128628
C 16.41257707 3.80332715 5.05936481 0.00426778 -0.00665191 -0.00597276
C 13.86100034 8.64496064 1.07915333 -0.00599042 0.00148049 -0.00482093
C 20.42261591 5.96259660 0.99649441 -0.00639978 0.00406658 -0.00377147
C 23.01068301 1.09654754 4.95493739 0.00349024 0.00188108 0.00412486
C 17.60810105 3.66539671 4.29478338 -0.00274910 -0.00503017 -0.00188570
C 25.77957304 8.79990054 1.60161501 0.00180072 -0.00284506 -0.00133657
C 19.16474599 6.05041911 1.65002539 0.00085085 0.00262745 0.00013587
C 10.91254875 1.05174068 4.52582854 0.00256682 -0.00238776 0.00285796
C 18.58273075 2.76162447 4.58090629 -0.00427585 -0.00386518 -0.00070736
C 24.81745929 7.88169898 1.15358357 -0.00397819 0.00172844 -0.00102994
C 18.24698201 7.04378074 1.22037657 0.00261578 0.00937991 0.00187062
C 11.93919243 1.91131581 4.86973747 0.00152256 -0.00126276 -0.00131381
C 18.46630197 1.86322798 5.62787249 0.00491557 -0.00566449 -0.00213596
C 25.13142994 7.02567987 0.07268599 0.00429663 0.00440508 0.00304073
C 18.47801512 7.72914879 0.01658503 -0.00186181 0.00008711 0.00210029
C 11.84455357 2.64972152 6.00443177 0.00789410 0.00273153 -0.00434394
C 20.00644655 2.16932233 0.48397167 0.00476642 -0.00041575 0.00154856
C 23.10500902 6.73071757 5.49363898 -0.00380392 0.00099715 0.00218333
C 16.61504715 7.57886614 5.72920580 -0.00277024 0.00374979 -0.00200594
C 13.54323594 2.79133025 0.41400660 -0.00132908 0.00192394 0.00356834
C 19.10833706 3.13718657 0.09987175 0.00238483 -0.00297009 0.00254804
C 10.93578818 7.65161996 6.06405543 -0.00540829 0.00626661 0.00204230
C 17.56866570 6.65054246 6.01442054 0.00188739 0.00121640 -0.00297518
C 13.92193980 1.96893357 24.22519693 -0.00364201 -0.00622019 -0.00287141
C 15.13737587 5.17932178 3.51380131 0.00621799 -0.00274192 0.00410671
C 14.89166275 0.54200932 2.44567364 0.00544512 0.00494634 0.00006956
C 21.50989187 4.49471485 2.49307708 -0.00508026 -0.00054283 0.00139997
C 21.76708899 9.39440484 3.83633012 -0.00132957 0.00567281 0.00594661
C 14.10833711 6.21231318 3.24300337 -0.00171310 0.00065253 -0.00080378
C 15.90608393 1.66671917 2.46525612 -0.00376776 -0.00208440 0.00334317
C 22.86049917 3.80579396 2.70816427 0.00965655 -0.00112807 0.00059875