2880
Time=72000.00000007 pbc="T T T" Lattice="39.49977576 0.00000000 0.00000000 0.00000000 29.03723410 0.00000000 -12.02929022 0.00000000 24.40694433" energy=-18397.33637619 virial="-34.70840156 12.78148301 -4.59126655 12.78148301 -16.30829453 14.34111045 -4.59126655 14.34111045 -32.37395695" stress="0.00133908 0.00048031 -0.00020263 0.00048031 0.00193124 0.00048271 -0.00020263 0.00048271 0.00138091" Properties=species:S:1:pos:R:3:vel:R:3
C 3.08695770 3.86162256 5.02865476 0.00786953 -0.00372562 -0.00031897
C 0.47928092 8.43256582 0.98832038 -0.00328201 -0.00008318 -0.00279329
C 7.04846036 5.90640452 0.87524454 -0.00700385 0.00199855 0.00176187
C 9.92987506 1.08125736 5.00658120 0.00519986 0.00089646 0.00534325
C 4.28019995 3.69688340 4.28380218 -0.00504032 -0.00307149 -0.00038357
C 12.30229534 8.47278241 1.72730198 0.00460588 0.00143285 -0.00411081
C 5.85157663 6.03193522 1.49816734 -0.00328909 -0.00364494 -0.00452889
C -1.86494157 1.18532548 4.40503161 -0.00216272 -0.00228805 0.00491684
C 5.32460076 2.90427843 4.67598488 0.00014272 -0.00051865 0.00209729
C 11.28205898 7.70279717 1.18675064 0.00241797 -0.00032520 0.00042002
C 4.86846959 6.96566514 1.05237725 -0.00304213 0.00479441 0.00036049
C -0.87621652 1.93702843 5.00386240 -0.00102242 0.00480937 -0.00059549
C 5.25020912 2.13500724 5.79174955 -0.00153286 -0.00058187 0.00549636
C 11.59442080 6.78647385 0.17791081 -0.00045674 -0.00062606 0.00852901
C -6.85789673 7.77890707 24.37732304 0.00174973 -0.00096849 -0.00733127
C -1.11383946 2.71764081 6.16239302 0.00194473 -0.00673839 -0.00110838
C 6.86591499 1.98478125 0.17171844 0.00347546 -0.00529397 0.00204464
C 9.97170275 6.82089162 5.59708561 0.00269938 0.00031043 -0.00177409
C 3.33085486 7.78175582 5.38831416 0.00489768 0.00551134 0.00110135
C 0.42366847 2.75622666 0.50751970 -0.00163850 -0.00313802 -0.00364829
C -6.12855380 2.87229450 24.29780471 -0.00315580 0.00160409 -0.00498722
C -2.44360229 7.79923605 5.90574733 -0.00454116 0.00271890 -0.00142847
C 4.23528598 6.89830106 5.87674169 0.00121398 -0.00324538 -0.00662052
C 12.56063035 1.83262564 0.18950284 -0.00173756 0.00078022 -0.00201559
C 1.88120844 5.15728017 3.45209284 -0.00084777 -0.00339249 0.00090615
C 1.82350973 0.21754003 2.47356408 -0.00283840 0.00138725 -0.00450003
C 8.13407864 4.49431416 2.56268758 -0.00836952 -0.00074313 -0.00167282
C 8.32171220 9.53555274 3.54139762 -0.00420522 -0.00118335 -0.00629416
C 0.82895783 6.26476688 3.42437779 0.00277640 -0.00359560 -0.00417645
C 3.01327429 1.21002574 2.57491576 0.01035384 -0.00443077 0.01266111
C 9.17029811 3.45194369 2.84981202 0.00847395 -0.00046792 -0.00298248
C 7.19563274 8.58341208 3.52015653 -0.00993936 -0.00027700 -0.00028467
C 0.12547315 3.67041728 11.20384830 -0.00342254 -0.00242578 -0.00669092
C -2.61377573 8.66363580 7.01364537 -0.00498726 0.00226941 0.00134655
C 4.03267662 6.16772423 7.04749186 -0.00057661 -0.00224254 -0.00639594
C 6.69079413 1.16275769 11.09738407 0.00266694 -0.00169831 -0.00033288
C 1.32209132 3.62179316 10.41169106 -0.00027416 0.00003796 0.00630243
C 9.41747998 8.48844990 7.82738410 0.00512290 -0.00248734 -0.00109443
C 2.80108546 6.17470545 7.67848966 -0.00425572 0.00023284 0.00236294
C 34.14850375 1.13262133 10.47734921 -0.00937756 -0.00045283 0.00220270
C 2.28971787 2.72637327 10.75339693 0.00430981 -0.00045725 -0.00842705
C 8.47272133 7.60086974 7.34235863 -0.01115115 0.00094249 0.00182001
C 1.86913642 7.04130453 7.22867432 -0.00274671 0.00367103 0.00032121
C -4.36142024 1.91487154 10.98395156 -0.00074661 0.00182075 -0.00151551
C 2.12312390 1.92856848 11.91872591 -0.00242874 -0.00126990 0.00391295
C 8.70850734 6.80849973 6.20665182 -0.00150266 -0.00749184 0.00195033
C 2.09205935 7.87531948 6.12302789 -0.00252637 0.00585795 0.00568820
C -4.51701089 2.83837090 12.03262025 0.00588986 -0.00156196 0.00554895
C 4.03026721 2.25818382 6.61580599 -0.00222952 0.00290002 -0.00125285
C 6.82431760 6.77571468 11.80390975 0.00972987 -0.00207385 0.00353379
C 0.11064295 7.83975555 11.68470677 0.00095989 0.00301472 -0.00397789
C -2.42980393 2.71903227 6.69729204 -0.01071922 0.00688426 -0.00685283
C 3.03775383 3.11276191 6.19180321 -0.00154090 -0.00178168 -0.00195258
C -5.42437288 7.90461634 11.93892189 0.00125942 0.00978733 -0.00165161
C 0.98195439 6.87367846 12.06778198 0.00307581 0.00110833 -0.00611086
C 9.63631382 2.05084585 5.99804548 0.00057059 0.00187889 -0.00095302
C -1.05197813 5.26273808 9.68508955 0.00119221 0.00573163 -0.00979556
C -1.34141647 0.25719233 8.60857284 -0.00575370 -0.01070372 0.00078930
C 5.36394348 4.85770870 8.59412385 0.00582956 -0.00233350 -0.00678771
C 5.50321385 9.52763342 9.56794739 0.00637678 -0.00185693 -0.00671493
C -2.25802184 6.14941826 9.52234847 -0.00128609 0.00351308 -0.01086567
C -0.14259361 1.19452918 8.86566904 0.00641027 -0.00552910 0.00162123
C 6.76110409 4.26887202 8.83737030 -0.00384617 0.00115440 0.00295244
C 4.30099685 8.69161752 9.29255249 -0.00165206 0.00108647 -0.00012071
C -2.71395629 3.68414639 17.09436421 -0.00059993 0.00139343 -0.00266269
C -5.69476012 8.73995678 13.08810635 0.00308832 -0.00017927 0.00169373
C 0.72705268 5.98881260 13.15946541 0.00190368 -0.00231222 0.00231502
C 3.72468248 1.28450496 17.26985142 -0.00099843 -0.00084295 0.00803533
C -1.54324249 3.42942766 16.39818113 0.00263235 -0.00060219 0.00897411
C 6.18488391 8.63932633 13.74358785 -0.00655592 0.00121172 -0.00536886
C -0.48770974 5.93953196 13.79612946 0.00274366 -0.00647436 -0.00033766
C 31.27630192 1.10538746 16.64871538 0.00007213 -0.00051911 0.00087061
C -0.65947967 2.44209620 16.77222594 -0.00441742 0.00059188 0.00186949
C 5.25050187 7.67992187 13.34292889 -0.00656456 0.00806425 0.00576450
C -1.46967706 6.89280121 13.39581308 0.00221189 -0.00339842 -0.00208115
C -7.15035046 1.90531317 17.02668320 -0.00445202 -0.00045501 0.00086122
C -0.86047077 1.67004134 17.90309107 0.00139635 -0.00239987 0.00019004
C 5.50805851 6.79372464 12.28741035 0.00314712 0.00431566 -0.00374988
C -1.12951248 7.84075484 12.37734123 -0.00499528 -0.00812160 -0.00166372
C -7.31777603 2.85778882 18.05146198 -0.00810975 0.00060111 0.00642440
C 0.92165956 1.91333007 12.63412514 -0.00738004 0.00097347 -0.00322417
C 3.71369408 6.81535281 17.84259506 -0.00189636 -0.00324580 -0.00110142
C -2.76042328 7.74810819 17.66132164 0.00652569 0.00135357 -0.00434026
C -5.76587615 2.80971917 12.72061335 -0.00452651 -0.00402008 -0.00067617
C -0.04706685 2.84415478 12.25638055 -0.00024800 -0.00911834 -0.00490796
C -8.47637029 7.72317982 18.07708825 -0.00473440 0.00287098 -0.00852372
C -1.80391361 6.84955637 17.99484065 -0.00185068 -0.00135626 0.00832115
C 6.39526405 2.00270422 12.19825380 -0.00582189 -0.00200021 0.00878079
C -3.84007210 5.16534383 15.57713643 -0.00375871 0.00211836 0.00367901
C -4.39201259 0.18320380 14.94840289 -0.00191054 -0.00282308 -0.00052416
C 1.95212520 4.66072699 14.69493824 -0.00897768 0.00226104 -0.00021546
C 2.56722270 9.46992419 15.80962598 -0.00270555 -0.00492579 -0.00031344
C -5.09949703 5.97311005 15.39841788 0.00524245 -0.00233667 0.00200807
C -3.28369051 1.15747561 15.26337529 -0.00404809 -0.00236037 -0.00259171
C 2.95476067 3.58880884 14.86812611 -0.00296392 -0.00510014 0.00499537
C 1.31274429 8.69269829 15.68526228 -0.00500279 -0.00198219 -0.00060428
C -5.95796846 3.85137447 23.27454168 0.00836225 -0.00508849 0.00181555
C -8.61455858 8.52962541 19.23214860 -0.00414891 0.00258115 -0.00720785
C -1.97053880 6.01026122 19.06426191 0.00155898 -0.00917217 -0.00123247
C 0.65840491 1.09382936 23.42221167 -0.00370364 0.00253512 0.00361015
C -4.77609449 3.79910742 22.53892555 0.00261224 -0.00110432 -0.00336159
C 3.31904097 8.35429950 20.05935042 0.00534101 -0.00111740 0.00383243
C -3.13820747 6.01334218 19.79649645 0.00777724 -0.00466259 0.00072020
C 28.25250605 1.26363209 22.63630974 -0.00083255 -0.00128312 0.00205194
C -3.72899074 2.97046281 22.91538847 -0.00031310 -0.00312778 -0.00607417
C 2.25236918 7.60820862 19.56091517 -0.00169755 0.00327037 -0.00367704
C -4.13032219 6.99795357 19.48301591 0.00187517 0.00712060 -0.00097399
C -10.31841474 2.28425404 22.95433628 0.00080801 0.00126076 -0.00384224
C -3.89516540 2.02828653 23.93631737 -0.00040741 -0.00491411 0.00009538
C 2.43303346 6.80320619 18.45060248 0.00001257 0.00210098 0.01201625
C -4.02235505 7.79435630 18.31438545 -0.00030312 -0.00544064 -0.00489136
C -10.44090609 2.98298859 24.15413782 -0.00007245 0.00020136 0.00650547
C -2.07410509 1.91353592 18.61447870 0.00310212 -0.01313230 -0.00654389
C 0.84025370 6.85221969 23.94292291 -0.00676963 0.00420091 0.00177358
C -5.55210286 7.70328536 23.78179643 -0.00069340 -0.00828154 -0.00428868
C -8.61963729 3.11851150 18.52518798 -0.00371868 -0.00366577 -0.00403794
C -3.00748881 2.81444553 18.19798933 -0.00749782 0.00382868 0.01022962
C -11.34901585 7.59221299 24.33401941 0.00523147 -0.00614900 -0.00233906
C -4.60728481 6.75273491 24.19762437 0.00029511 0.00528867 -0.00736593
C 3.44967360 2.17786441 18.35591608 -0.00199839 0.00199606 0.00185893
C -7.10045399 5.18581089 21.78129590 0.00125844 -0.00192619 -0.00073324
C -7.58197489 0.38236352 20.98515008 0.00680821 0.00759240 -0.00257148
C -0.84397083 4.69794070 20.79037525 -0.00140851 0.00402931 0.00915183
C -0.61299512 9.34287184 21.86769588 -0.00150294 0.00616831 0.00815440
C -8.23911875 6.11125443 21.59441880 -0.00013284 0.00039597 -0.00439900
C -6.21067524 1.07663774 20.99040794 0.00841943 0.00449033 -0.00185221
C 0.29258186 3.70539831 21.05859072 -0.00000984 -0.00294173 0.00431460
C -1.82893536 8.52949335 21.63182047 -0.00217521 0.00013152 0.00025734
C 3.13862934 13.36932017 4.93395612 -0.00155178 0.00282974 -0.00941050
C 0.23203241 18.07807337 0.88741972 -0.00057954 0.00855949 0.00184898
C 7.02481378 15.54029784 1.05650092 0.00202621 0.00629072 -0.00001180
C 9.69100812 10.79733348 5.15396801 -0.00268748 0.00154403 -0.00614474
C 4.39489334 13.23596472 4.29278339 -0.00248577 -0.00051910 0.00154653
C 12.11126297 18.02184390 1.62150184 -0.00630489 -0.00138580 -0.00409802
C 5.76796022 15.60879525 1.75053512 -0.00169016 -0.00317533 -0.00381588
C -2.13847779 10.90175602 4.36297543 0.00158548 0.00403180 -0.00399084
C 5.28074704 12.30434026 4.76696721 0.01013716 -0.00192249 0.00076790
C 11.18402146 17.20527781 1.12041429 0.00115613 -0.00837104 -0.00096718
C 4.82749398 16.46170378 1.31138622 -0.00075782 0.00811186 0.00599814
C -1.12614883 11.66932543 4.80343611 0.00282110 0.00120679 -0.00221345
C 5.06387838 11.56698533 5.95374479 -0.00618660 0.00420631 -0.00616411
C 11.38560700 16.37552683 0.01454088 -0.00146852 0.00701992 -0.00382323
C 5.08738194 17.36336802 0.28583282 -0.00459504 0.00059852 -0.00158805
C -1.30311182 12.61487719 5.90818370 -0.00439157 -0.00221603 0.00534332
C 6.78224315 11.78335878 0.48561301 -0.00345781 0.00541095 -0.00111278
C 9.70727887 16.75175198 5.45552285 0.00657858 -0.00741088 0.00065772
C 3.17423186 17.34533501 5.54082468 0.00615347 -0.00593142 0.00781647
C 0.45546939 12.49790965 0.63119499 -0.00115741 -0.00289941 -0.00053526
C 5.87064413 12.72212626 0.11333912 -0.00479191 -0.00421012 -0.00130968
C -2.31637840 17.47730574 6.12471289 0.00353527 0.00400636 0.00235193
C 4.18788928 16.50067621 6.02849105 0.00391120 -0.00598474 -0.00468502
C 0.33343306 11.73523240 24.36068740 0.00302258 0.00663229 0.00199479
C 2.04896415 14.88653016 3.33275570 -0.00417751 -0.00720228 0.00277266
C 1.61185251 9.93918202 2.47721649 0.00618730 -0.00273566 -0.00208239
C 8.34423498 14.24852822 2.69677304 0.00574779 0.00014215 0.00395570
C 8.69945619 19.19202796 3.56153820 -0.00734089 -0.00356715 0.00704579
C 1.05316506 16.00675851 3.12495877 -0.00007296 0.00544031 -0.00437586
C 2.85926121 10.84937755 2.56692342 -0.00399565 -0.00108164 -0.00711454
C 9.51454979 13.38984959 2.82536268 -0.00579720 0.00027277 -0.00068711
C 7.50326256 18.31652357 3.21245272 -0.00442498 -0.00106700 0.00102429
C 0.21130251 13.55493161 11.25793728 -0.00116178 -0.00337021 0.00044794
C -2.57404190 18.32983477 7.22879511 -0.00099598 -0.00231509 -0.00007651
C 3.91506672 15.57347492 7.09056103 0.00146087 0.00050572 -0.00069957
C 6.61344992 10.86640292 11.25057008 -0.00323269 -0.00359006 0.00857113
C 1.36721898 13.57262602 10.51437765 -0.00750107 -0.00620072 -0.00723693
C 9.29055267 18.08600275 7.78611723 0.00232064 -0.00504851 -0.00311692
C 2.68928359 15.68909934 7.71363480 0.00279902 0.00335859 0.00316270
C 34.12353317 10.99483056 10.42664090 0.00462086 0.00211593 -0.00494561
C 2.47639746 12.82243750 10.88697587 0.00028406 -0.00275912 -0.00371289
C 8.33176552 17.30174846 7.35701549 0.00150825 0.00513759 -0.00041280
C 1.74050939 16.68854877 7.36729604 -0.00863614 0.00098403 0.00090238
C -4.46198095 11.99653825 10.80460388 0.00517977 0.00581056 -0.00773773
C 2.42309298 11.97407375 12.03920887 -0.00425706 -0.00011529 -0.00380181
C 8.48153952 16.62827519 6.12491108 0.00863065 0.00149372 0.00411789
C 1.98121546 17.49928980 6.24337589 -0.00157042 0.00416962 -0.00114796
C -4.61087593 12.74698469 11.99028025 -0.00099769 -0.00332137 0.00387383
C 3.86086681 11.86761942 6.61696981 0.00132591 0.00306496 -0.00362604
C 6.83804554 16.72992951 11.71067046 -0.00051459 -0.00163778 -0.00088244
C 0.19041616 17.48806699 11.76153723 0.00158591 -0.00284046 0.00692079
C -2.52530169 12.58393270 6.62249977 0.00537547 -0.00296458 0.00218079
C 2.87987798 12.59419997 6.07197616 -0.00027508 -0.00350439 0.00086920
C -5.43948309 17.38729890 12.21662286 0.00363927 -0.00430477 0.00339674
C 1.19656850 16.69735037 12.18298626 0.00178403 -0.00272056 -0.00161694
C 9.48228666 11.61655257 6.26879987 0.00209453 0.00446094 0.00243224
C -1.10582109 14.87361972 9.73892293 0.00723617 0.00048848 0.00138083
C -1.47321564 10.15231236 8.52890835 -0.00228062 -0.00901556 -0.00511419
C 5.50078562 14.46223163 8.54494908 -0.00330181 0.00350253 -0.00179222
C 5.34956140 19.11920124 9.68672952 -0.00420303 0.00182139 -0.00311467
C -2.17448699 15.85607894 9.58112615 -0.00009234 -0.00729598 -0.00050746
C -0.14868439 10.81227092 8.82794991 0.00192234 -0.00320641 0.00201748
C 6.70489995 13.61016097 8.48054742 0.00686024 -0.00484403 0.00176538
C 4.20776500 18.21149417 9.41756107 -0.00333807 0.00340936 0.00180520
C -2.83773831 13.39955498 17.27488862 -0.00307184 0.00032007 -0.00534478
C -5.67893762 18.30766980 13.21215846 -0.00062251 -0.00731810 -0.01004627
C 1.06815483 15.75864067 13.23480253 -0.00550548 0.00274076 0.00033689
C 3.73466721 10.71283656 17.42988541 0.00316492 0.00082158 0.00206908
C -1.58593467 13.39253905 16.61151394 0.00300435 0.00722534 -0.00417072
C 6.47247334 18.34731358 13.91198934 -0.00043719 0.00276835 0.00552314
C -0.19087180 15.71577724 13.91377301 0.00886747 -0.00354000 0.00327082
C -8.11200377 10.80843397 16.64236958 -0.00172565 0.00191518 -0.00218123
C -0.58715869 12.57014255 16.97683070 -0.00812158 0.00094015 -0.00116005
C 5.38454126 17.54219592 13.50620219 -0.00076701 0.00600548 -0.00284417
C -1.20683449 16.50691137 13.48126711 0.00029991 0.00088815 -0.00323560
C -7.16773390 11.68670315 17.04502235 -0.00558940 -0.00554208 0.00148386
C -0.76486028 11.80161835 18.14845347 -0.00137843 0.00582726 0.00088950
C 5.65675332 16.74192659 12.45673644 0.00031129 -0.00447252 0.00581276
C -1.07150797 17.47921103 12.42507278 -0.00661040 -0.00567281 0.00178696
C -7.32773582 12.39209702 18.28413185 -0.00738287 -0.00080288 -0.00720717
C 1.10879975 11.84368084 12.66974476 -0.00027346 -0.00001362 -0.00074694
C 3.91224453 16.42168940 17.70261506 -0.00584653 -0.00329965 -0.00204393
C -2.86939389 17.49599398 17.72763207 0.00205505 -0.00315031 -0.00347058
C -5.85734976 12.61714881 12.57551111 -0.00377784 0.00533317 0.00627809
C 0.07761223 12.65582573 12.33447511 -0.00347111 0.00535120 0.00733288
C -8.52229519 17.59618087 18.10345928 0.00086748 -0.00152220 -0.00387304
C -1.91823878 16.58932019 18.12094689 0.00490550 0.00245331 -0.00332279
C 6.41296673 11.70451573 12.39938862 -0.00208521 0.00593066 -0.00186538
C -4.20521341 14.75748324 15.79698988 -0.00754001 -0.00389451 -0.00427378
C -4.49379359 10.18197824 14.59851533 -0.00276494 0.00139452 -0.01026636
C 2.23590410 14.19027631 14.68447446 0.00003415 0.00591016 0.00535537
C 2.38761071 19.03013321 15.78807777 -0.00000094 -0.00038504 0.00005894
C -5.42346806 15.52276030 15.83716502 -0.00238361 -0.00780515 -0.00471831
C -3.26973081 11.10849679 14.67491928 -0.00457890 0.00131677 0.00182308
C 3.48180168 13.35206916 14.75863798 -0.00300649 -0.00917196 -0.00685228
C 1.22413086 18.13032324 15.70053722 -0.00694975 0.00684694 0.00184039
C -5.91752833 13.53807399 23.42054227 0.00334262 0.00195126 0.00138941
C -8.60221487 18.41417670 19.27735867 0.00796428 0.00298091 0.00228478
C -2.02209829 15.65482470 19.16328026 0.00253467 0.00463758 -0.00241714
C 0.58327201 10.76613189 23.40700427 -0.00031024 0.00439999 0.00302770
C -4.67627245 13.47593506 22.75380436 0.00520715 0.00586387 0.00562995
C 3.42559191 17.88918372 20.07287875 -0.00107379 -0.00247059 -0.00219287
C -3.28280419 15.65677277 19.85047815 -0.00346248 -0.00182580 0.00091054
C 28.18030533 10.89554378 22.70279027 0.00672955 0.00029076 -0.00793297
C -3.73638399 12.54354047 23.12835224 0.00078378 -0.00114062 -0.00129988
C 2.43817495 16.99447603 19.53298561 0.00743037 0.00354407 -0.00246095
C -4.27644840 16.55352963 19.48635749 -0.00287160 -0.00300521 -0.00743717
C -10.37603777 11.84790069 23.01456249 0.00525858 -0.00161447 0.00097858
C -3.99677893 11.64392725 24.16398248 0.00323094 -0.00152669 0.00406396
C 2.66758726 16.25588193 18.39181620 0.01132487 -0.00240837 -0.00151842
C -4.07440199 17.53103942 18.41595758 -0.00070853 0.00412203 0.00235771
C -10.52453288 12.69474113 24.15431389 0.00651895 0.00004846 -0.00583376
C -2.00989541 11.71960196 18.82964505 0.00147233 -0.00313563 0.00468840
C 0.61745550 16.44238815 23.81385402 0.00154173 0.00064468 0.00371594
C -5.73532666 17.34546052 24.02734637 -0.00884214 0.00085253 -0.00729968
C -8.57776532 12.30341890 18.96196309 -0.00439582 0.00110980 0.00221891
C -2.97439696 12.59032263 18.40583670 -0.00298902 -0.00459025 -0.00133608
C -11.63210663 17.25128519 24.20085541 -0.00166467 0.00143563 0.00455774
C -4.76562777 16.38880406 24.34371058 -0.00293500 -0.00774054 0.00142279
C 3.55916060 11.46031172 18.63567773 -0.00111531 -0.00121534 -0.00580907
C -7.20492456 14.86991470 21.83485245 0.00459594 -0.00404091 0.00398477
C -7.39204340 9.95581597 20.71989257 0.00702839 -0.00054256 -0.00256371
C -0.92225905 14.12205251 20.67740194 -0.00111227 0.00417018 -0.00625830
C -0.54996941 18.98788795 21.89305148 -0.00811761 -0.00357867 -0.00254826
C -8.52405091 15.61976621 21.69727514 -0.00861164 -0.00401963 -0.00599445
C -6.26998483 10.92238181 20.78849583 -0.00049660 -0.00253921 -0.00228394
C 0.33047312 13.30489050 20.81552229 0.00069632 0.00172331 -0.00444182
C -1.67500148 18.03564633 21.74010190 0.00277739 0.00005531 -0.00108023
C 3.16237374 23.16535181 5.04571414 -0.00886315 0.00044659 0.00202991
C 0.49758788 27.94892122 0.98242907 0.00471426 0.00102496 -0.00683909
C 7.04835026 25.26532612 0.82905500 -0.00588203 -0.00375334 -0.00071064
C 9.75351334 20.65588743 5.11987144 -0.00031863 0.00061309 0.00008594
C 4.35921697 23.01099724 4.36083084 0.00874937 0.00530089 0.00652180
C 12.35883143 27.85507568 1.63300663 0.00207061 0.00254468 0.00349297
C 5.82855303 25.32391215 1.53829979 0.00072404 -0.00032928 0.00263551
C -2.12399084 20.47857203 4.52654238 0.00398256 0.00418560 0.00387618
C 5.22205156 21.99444592 4.71875825 -0.00317278 0.00720238 -0.00606988
C 11.33869058 27.04591507 1.24560762 0.00175178 -0.00434617 0.00053403
C 4.85193640 26.16272656 1.08256167 0.00079144 0.00368509 0.00012934
C -1.24035081 21.50484343 4.83242733 0.00070799 0.01256786 -0.00380715
C 5.03357634 21.29374906 5.87265121 0.00579558 0.00191923 0.00474003
C 11.54989674 26.12747049 0.13951866 0.00224658 -0.00844379 0.00868167
C -7.02390200 27.01414075 24.37775246 0.00047850 -0.00379814 0.00776845
C -1.51344460 22.33036258 5.92130315 0.00564360 0.00034300 -0.00598508
C 6.76532405 21.36456199 0.43313248 -0.00350704 -0.00042224 0.00656877
C 9.96885042 26.09540884 5.56538872 0.00054686 -0.00482346 0.00828095
C 3.18778592 27.11521654 5.42143084 -0.00536042 -0.00278356 0.00689374
C 0.21649669 22.05907134 0.36906968 -0.00217127 0.00146544 -0.00390724
C 5.79119552 22.24213554 0.12004073 -0.00353595 0.00240371 -0.00330495
C -2.32250821 27.18386063 5.83907028 0.00173874 -0.00126261 -0.00307237
C 4.15474648 26.16693617 5.85848730 0.00256834 -0.00443425 0.00127188
C 12.44587189 21.26083449 0.11417097 0.00705282 -0.00843717 0.00113846
C 1.97401271 24.44917389 3.23698767 -0.00468535 -0.00280592 0.01091023
C 1.52078775 19.45183879 2.44069565 -0.00136905 0.00114236 0.00334335
C 8.50000559 24.17814950 2.43721733 0.00410045 -0.00750932 0.00347190
C 8.82860553 28.78829408 3.39900377 -0.00260967 -0.00893520 0.00260294
C 0.83971751 25.47273510 2.98353742 -0.00588453 -0.00037403 0.00761292
C 2.74001747 20.36239020 2.53333295 -0.00576096 0.00099930 0.00478558
C 9.89132668 23.57598515 2.58632622 -0.00632489 0.00157835 -0.00147672
C 7.83547615 27.67417546 3.20078630 -0.00454231 0.00088949 0.00219969
C 0.03533246 23.25174706 11.16273999 0.00189689 0.00184363 -0.00058404
C -2.39578781 27.96143790 6.97114849 0.00423744 -0.00150594 -0.00281395
C 3.99692196 25.33980596 6.95090260 -0.00120975 0.00244468 -0.00635509
C 6.58250033 20.45337630 11.32230240 -0.00057404 0.00088744 0.00232335
C 1.26372042 23.16354707 10.55388475 0.00181613 -0.00363968 -0.00304152
C 9.42862381 27.71940009 7.77431995 0.00555588 -0.00628362 -0.00352920
C 2.75947325 25.49879066 7.66061232 -0.00438822 0.00166729 0.00272371
C -4.94374759 20.55823839 10.67878905 0.00267938 0.00058369 -0.00671323
C 2.16121881 22.18961887 10.93810111 -0.00017105 -0.00203214 -0.00944372
C 8.51483991 26.80405404 7.38534142 -0.00029584 0.00300233 0.00074707
C 1.81016047 26.35799619 7.17862703 -0.00515574 0.00362528 0.00390007
C -4.02454677 21.43893744 11.18193108 0.00650512 0.00202447 0.00336785
C 1.94211969 21.38778933 12.04402501 -0.00117601 0.00370627 0.00468690
C 8.75368247 25.99115109 6.24677953 -0.00324866 -0.00108016 0.00348941
C 1.92120017 27.15346540 6.08511692 0.00241009 0.00156105 0.00565547
C -4.39057316 22.21289711 12.33598058 -0.00139190 0.00335958 0.00365961
C 3.89787320 21.62638081 6.69146317 -0.00086510 0.00305991 0.00033924
C 6.45550248 26.42692225 11.60787886 0.00578204 0.00189267 0.00402560
C 0.28892565 27.09853119 11.56774520 -0.00039897 0.00351805 0.00018861
C -2.72911711 22.18289217 6.59449993 -0.00164348 0.00001635 0.00042910
C 2.92028489 22.46589950 6.25353603 0.00338429 -0.00013995 -0.00332043
C -5.30747255 27.15431907 12.06315805 -0.00036915 0.00156745 -0.00294957
C 1.22889206 26.16157620 12.06017407 0.00759535 0.00497310 0.00398590
C 9.54097030 21.46760201 6.27365807 -0.01081728 -0.00074165 -0.00783978
C -1.17897141 24.57097121 9.46405932 -0.00958053 -0.00584116 -0.00032181
C -1.21156108 19.63326810 8.65906246 0.00533355 0.00810854 0.00082595
C 5.18014556 23.95266077 8.60428106 -0.00639375 0.00536811 -0.00415292
C 5.53708479 28.82311909 9.41870658 -0.00381033 0.00275768 -0.00234893
C -2.44939178 25.18759133 9.12347991 0.00011894 -0.00554342 0.00223509
C 0.05325526 20.48817025 8.84171959 0.00018675 -0.00575886 -0.00614360
C 6.30681174 22.97238089 8.94917644 -0.00364022 0.00394345 0.00223418
C 4.27990791 28.09050610 9.21518774 -0.00139822 0.00464238 -0.00021761
C -2.93788934 23.14649537 17.24541392 0.00699132 0.00562478 0.00598708
C -5.52540457 28.07206360 13.21496045 0.00479739 -0.00760711 -0.00291241
C 0.96327855 25.46499947 13.25232386 0.00294611 -0.00212511 0.00592670
C 3.57771950 20.45400519 17.35835093 -0.00103005 0.00153504 -0.00363523
C -1.71174596 23.04005875 16.60818890 0.00300350 0.00400751 -0.00152021
C 6.17415780 27.79791224 13.96434472 0.00186016 0.00377496 -0.00253469
C -0.24969689 25.59712832 13.95482046 0.00153029 0.00356022 -0.00275899
C 31.16152022 20.55753716 16.63769850 0.00869347 0.00639300 -0.00451283
C -0.70477522 22.15133188 17.06211180 -0.00098516 0.00322887 0.00311767
C 5.11741520 26.96746647 13.51079269 -0.00039803 0.00337165 -0.00122358
C -1.14627580 26.53274878 13.52820169 0.00168428 0.00031908 0.00550163
C -7.42788838 21.52664700 16.94491238 -0.00529687 -0.00004599 0.00319315
C -0.98287620 21.31225244 18.11782824 -0.00325665 0.00055724 0.00508030
C 5.21233304 26.24912791 12.30536456 -0.00057980 -0.00406256 0.00591217
C -0.92131580 27.27194084 12.30557500 -0.00004676 -0.00889974 -0.00113830
C -7.49883559 22.18167861 18.14648927 -0.00063877 0.00255497 -0.00370178
C 0.61196441 21.37065749 12.58144171 0.00303011 0.00158055 0.00580617
C 3.60371378 26.25653516 17.77239737 0.00669960 -0.00160817 -0.00295280
C -3.02810898 27.04621454 17.83022804 -0.00584986 -0.00300364 0.00368339
C -5.63981697 22.15703116 12.90087998 -0.00235797 -0.00493802 0.00647151
C -0.28006180 22.27038493 12.19513000 0.00191836 0.00265600 0.00223705
C -8.48222989 27.22029536 18.23322906 0.00329663 -0.00708578 0.00788738
C -2.03221340 26.22829732 18.26366039 0.00087160 -0.00691324 0.00973212
C 6.45645438 21.33928166 12.45897712 -0.00145688 0.00488165 0.00110171
C -4.10478525 24.70394064 15.75480495 0.00093052 -0.00055045 0.00291228
C -4.57517868 19.73827847 14.81997996 -0.00139481 -0.00210929 0.00119594
C 1.97625619 23.94317431 14.86625202 0.00348158 0.00582400 -0.00174548
C 2.49352906 28.95847757 15.80440668 -0.00147214 -0.00008331 -0.00531224
C -5.37581829 25.44929589 15.65500857 0.00548610 -0.00221754 -0.00249454
C -3.39270646 20.61860663 15.04355165 0.00113787 -0.00201530 -0.00552696
C 3.19498423 23.04592269 15.14645443 0.00480107 -0.00793024 -0.00000282
C 1.37302883 27.97705433 15.70175267 -0.01056185 0.00182445 -0.00392135
C -6.10054915 23.15599077 23.42939015 0.00386474 -0.00009074 -0.00145510
C -8.74929302 27.99129359 19.36188170 -0.00206351 -0.00134362 0.00353593
C -2.19268954 25.32251428 19.37781955 0.00057605 0.00568747 0.00105069
C 0.69419128 20.41739971 23.45914986 0.00542015 -0.00455023 0.00140417
C -4.91787053 23.09116109 22.71353129 0.00817310 -0.00478445 -0.00132499
C 3.22019650 27.88277110 19.99374354 0.00236815 -0.00203639 0.00760776
C -3.36914432 25.41664063 20.09138490 -0.01109988 0.00843638 -0.00507413
C 28.07343134 20.41943649 22.60555702 0.00295554 0.00647836 0.00144699
C -3.84977084 22.20913621 23.09363659 0.00577773 0.00385264 -0.00681151
C 2.17628386 27.08722174 19.55324565 0.00538812 0.00381863 -0.00073957
C -4.32249263 26.30734075 19.72836685 -0.00059175 0.00140499 -0.00327635
C -10.38025025 21.30652169 22.99912298 -0.00351131 0.00075731 0.00475092
C -3.99887709 21.36227159 24.20137547 0.01127356 0.00642422 0.00062307
C 2.35576229 26.23605175 18.45175140 -0.00507127 -0.01606091 0.00026033
C -4.14469753 27.19576669 18.63065181 -0.00247931 0.00968031 -0.00408150
C -10.52461212 22.00889014 24.21951295 -0.00363800 -0.00636509 0.00077911
C -2.24368999 21.46755246 18.79634027 0.00110634 0.00236883 0.00559693
C 0.67088474 26.19646799 23.80912729 -0.00196283 0.00958381 -0.00308820
C -5.75767862 27.03375611 23.79450289 0.00230215 -0.00463764 -0.00244895
C -8.68386037 22.11943352 18.86585179 0.00012995 0.00015187 0.00973300
C -3.21116925 22.30669944 18.28904429 0.00223144 -0.00167886 0.00663206
C -11.35244333 27.07114487 24.33321778 0.00515493 -0.00006024 -0.00871201
C -4.82291694 26.05763073 24.09139948 0.00652217 0.00313422 -0.00392635
C 3.45574690 21.16104642 18.58883119 -0.00150136 0.00224714 0.00854735
C -7.40964008 24.51566180 21.90942740 -0.00027968 -0.00266540 -0.00220261
C -7.29144444 19.67543287 20.85888937 -0.00086897 -0.00584264 -0.00630034
C -0.85683466 23.81462932 20.76943375 -0.00564655 -0.00049091 -0.00486793
C -0.59606022 28.78610935 21.83590163 0.00630903 -0.00917972 0.00479891
C -8.34990934 25.56314441 21.86184642 0.00143080 0.00048411 0.00300334
C -6.18677470 20.70504606 21.05841710 -0.00536040 -0.00366409 -0.00176018
C 0.38285820 22.89692921 20.66709518 -0.00375733 -0.00407195 0.00290421
C -1.76535366 27.93483261 21.65526245 -0.00032123 -0.00507998 -0.00487127
C 16.37485188 3.74249934 5.26515297 0.00179189 0.00255940 -0.00247507
C 13.52682045 8.53216101 1.08573811 0.00374669 0.00085763 0.00087279
C 20.40695980 5.70184779 0.98752162 -0.00480623 0.00310852 0.00009018
C 22.92209562 1.09506545 5.27607826 -0.00015926 0.00594399 -0.00686007
C 17.61599501 3.74045440 4.55901762 -0.00049101 -0.00140935 -0.00443810
C 25.61926962 8.36927716 1.91202632 0.00096925 0.00422295 0.00083042
C 19.18221157 5.79999211 1.62175738 -0.00170912 0.00098101 0.00424780
C 11.15739779 1.23751964 4.39834953 0.00438073 -0.00257230 0.00271043
C 18.52903584 2.78164833 4.84873326 0.00212856 -0.00180829 -0.00184117
C 24.69827910 7.42131468 1.52389160 -0.00558196 0.00240420 0.00151937
C 18.26062016 6.74314039 1.23592260 0.00126939 0.00297531 -0.00088117
C 12.07692210 2.15283979 4.82029107 -0.00941843 -0.00827986 -0.00354726
C 18.36742786 2.03193189 6.01673302 0.00221525 0.00904312 0.00098089
C 24.90416059 6.70376483 0.36425859 0.00411781 -0.00422932 0.00003288
C 18.51530062 7.62667371 0.16834185 0.00138534 0.00386613 0.00487621
C 11.81965665 3.13152133 5.76761458 0.00303652 0.00841982 -0.00080840
C 20.25433885 1.92119354 0.58882959 0.00489088 0.00818123 0.00142303
C 23.04301305 6.74315458 5.65765087 0.01036154 0.00168823 -0.00054371
C 16.41444634 7.48190989 5.61835834 0.00819323 0.00151143 -0.00085228
C 13.65727784 2.58166184 0.66950303 -0.00370646 0.00113186 -0.00560942
C 19.21294990 2.68683833 0.16189751 0.00204999 0.00230007 0.00361452
C 10.96298041 7.62358280 6.09199650 0.00406492 -0.00243462 0.00118139
C 17.37943997 6.62777704 5.98668667 -0.00705831 0.00686416 -0.00138362
C 25.90327682 1.87197988 0.27799642 -0.00365476 0.00434113 -0.00712214
C 15.23813329 5.13768754 3.65156393 -0.00523055 -0.00171109 -0.00050458
C 14.93461968 0.09961362 2.54693667 -0.00082314 0.00167827 0.00712682
C 21.56487365 4.35008089 2.57717669 -0.00005714 -0.00308099 -0.00206125
C 21.81958359 9.42612812 3.56663040 -0.00144854 -0.00120379 -0.00364555
C 14.02984943 6.00701039 3.42268511 0.00201526 -0.00605548 0.00644206
C 16.06655110 1.02961922 2.78140998 0.00011819 0.00671353 -0.00493690