2880
Time=70000.00000007 pbc="T T T" Lattice="39.52232834 0.00000000 0.00000000 0.00000000 29.10384361 0.00000000 -12.01865098 0.00000000 24.36379025" energy=-18399.50286490 virial="-82.89544654 -12.13410910 -18.69672902 -12.13410910 -1.56594616 1.85278940 -18.69672902 1.85278940 -4.17746610" stress="-0.00043327 -0.00041687 -0.00070823 -0.00041687 0.00242589 0.00000092 -0.00070823 0.00000092 0.00244191" Properties=species:S:1:pos:R:3:vel:R:3
C 3.05131944 3.79582474 5.03829217 0.00263003 0.00106699 -0.01310104
C 0.30040266 8.41566414 1.02255665 -0.00386774 -0.00275606 -0.00053796
C 6.95492104 6.02512180 0.90970311 0.00475949 0.00530805 -0.00029022
C 9.56112571 1.28682483 5.18788189 0.00008078 0.00031880 -0.00271992
C 4.29669485 3.71032252 4.37844806 0.00495685 0.00297371 0.00030530
C 12.43913346 8.46712028 1.61434094 0.00145539 0.00202643 -0.00240439
C 5.70559284 5.98834203 1.63921276 0.00536681 0.00444175 -0.00412600
C 36.93870312 1.32747713 4.24511170 -0.00391715 0.00048816 0.00580721
C 5.23609090 2.84308427 4.83503089 -0.00388790 -0.00417849 -0.00321995
C 11.51815250 7.49784273 1.14920602 -0.00454297 0.00031343 0.00585484
C 4.67105068 6.87273802 1.40967928 0.00081655 0.00421848 0.00186509
C -1.59456918 2.20280039 4.61992002 0.00271442 0.00017723 -0.00124142
C 5.14699712 2.08528920 6.04184064 0.00093895 -0.00195621 -0.00277406
C 11.73455623 6.67238401 0.02428448 0.00406526 0.00486801 0.00521618
C 4.82825404 7.79037955 0.27045445 0.00076569 -0.00985555 -0.00892579
C -1.78689047 2.99102288 5.74472073 -0.00712368 0.00436131 -0.00248655
C 7.10104756 1.94327495 0.50152224 -0.00527357 0.00130377 -0.00585883
C 9.95757822 6.97659181 5.47166523 -0.00012472 0.00015999 0.00450112
C 2.97190839 7.78813188 5.51903019 0.00416323 -0.00464399 -0.00184583
C 0.74605010 2.69764806 0.71556429 -0.00066202 -0.00390854 -0.00340830
C 6.18770571 2.87322893 0.15942321 0.00304716 0.00063569 -0.00304886
C -2.45687913 7.52669924 6.05957259 -0.00065510 0.00033602 -0.00034660
C 4.00744997 7.01875177 5.94891956 0.00252102 0.00095649 -0.00019291
C 12.60739887 1.66541320 0.01428877 -0.00062651 -0.00512155 -0.00097629
C 1.90343516 5.24844750 3.52819243 0.00373832 0.00123076 0.00798036
C 1.87829708 0.36869699 2.52368246 0.00424919 -0.00110220 -0.00492361
C 8.21268243 4.64033147 2.41784356 0.00272364 0.00458682 0.00040682
C 8.57357813 9.44413891 3.45374978 -0.00836892 0.00698920 0.00175237
C 0.70245888 6.05696499 3.27518936 -0.00464634 -0.00564211 -0.00124199
C 3.13947946 1.10742563 2.75228541 0.00127649 -0.00079706 -0.00698256
C 9.35584942 3.60587245 2.47851116 -0.00156074 -0.00230523 0.00037112
C 7.22347903 8.93397699 3.27627273 0.00077208 -0.00214724 0.00709054
C 0.18208156 3.75350015 11.12805382 0.00055233 0.00308221 -0.00264976
C -2.65315215 8.50483869 7.02940617 -0.00640600 -0.00004000 -0.00453515
C 3.87477381 6.04103038 6.99371091 0.00143977 0.00161199 -0.00654640
C 6.76715257 0.97739320 11.22008759 -0.00326275 0.00313798 -0.00322493
C 1.39368046 3.84609980 10.46915987 -0.00188863 0.00525810 -0.00863884
C 9.32485140 8.51359848 7.75320401 0.00472828 0.00021524 -0.00557092
C 2.74963254 6.12032072 7.78712346 -0.00462789 -0.00691719 0.00138928
C -5.12818855 1.15644957 10.66019592 0.00730932 0.00177631 -0.00283073
C 2.50375094 3.13203471 10.85451892 0.00235728 0.00021800 -0.00605538
C 8.43786992 7.67483687 7.19718489 0.00340189 -0.00220251 -0.00539114
C 1.73387661 7.01048509 7.53213357 0.00094288 -0.00195100 -0.00202183
C -4.24677140 2.02331090 11.16471865 -0.00442482 -0.00102910 -0.00414507
C 2.42981827 2.25015843 11.96330866 0.00070542 -0.00984891 0.00302595
C 8.71738492 6.84426926 6.10402329 -0.00352349 -0.00345921 0.00373013
C 1.82983242 7.84011614 6.34470431 -0.00513136 0.00043821 -0.00212401
C -4.44696865 2.81165400 12.29713395 0.00541334 -0.00585354 0.00586348
C 3.88807622 2.16807298 6.62798266 0.00351180 -0.00536578 0.00273970
C 6.81265579 6.86868508 11.69935338 0.00412774 0.00345111 -0.00765366
C 0.29079660 7.72900314 11.77296987 -0.00379372 -0.00307235 -0.00452610
C -3.00701929 2.91154432 6.47394386 -0.00467458 0.00269805 -0.00060656
C 2.88714628 3.02060660 6.21987563 -0.00003733 0.00366446 0.00201648
C -5.22451960 7.76605865 12.31558553 0.00060182 0.00112636 0.00102811
C 1.23359588 6.84352117 12.21545432 -0.00252355 0.00781984 0.00228084
C 9.47491800 2.06508204 6.39587758 0.00270399 0.00107983 0.00361425
C -1.13311527 5.18957788 9.67448513 0.00316278 -0.00127079 -0.00501246
C -1.58712156 0.26701661 8.58003365 -0.00113358 0.00271398 -0.00431336
C 5.20483895 4.92106917 8.64762979 0.00401473 0.00985185 -0.00475088
C 5.67503142 9.53215296 9.73359387 0.00990852 0.00225651 0.00650177
C -2.31617514 6.12747412 9.55035639 -0.00043451 0.00582656 -0.00076626
C -0.30389053 1.06335616 8.73107970 -0.00505746 -0.00342141 0.00336783
C 6.43102428 3.98916452 8.91050444 -0.00090404 0.00432515 -0.00086175
C 4.59911074 8.51472781 9.53955418 -0.00432260 0.00597694 0.00075548
C -2.95252834 3.70110990 17.17573706 0.00667282 0.00054398 0.00016810
C -5.45450877 8.65148816 13.37321888 0.00200984 -0.00068991 0.00092302
C 1.09767750 5.97451974 13.25450420 0.00302383 0.00520964 0.00115062
C 3.83111844 0.99047544 17.19006506 0.00096046 0.00334318 -0.00634228
C -1.73709367 3.57978442 16.46689028 0.00011305 -0.00583660 0.00018279
C 6.44285000 8.48251369 13.95321529 -0.00042907 0.00355496 0.00173992
C -0.09989521 6.12692423 14.00830863 0.00313320 -0.00086484 -0.00128566
C 31.12201056 1.11491118 16.62686001 0.00642566 0.00194275 -0.00755303
C -0.73425785 2.65257439 16.79396111 0.00816942 -0.00131384 -0.00150629
C 5.41499172 7.62399953 13.60089523 0.00206512 -0.00588265 -0.00585614
C -1.02877528 7.07106917 13.69904144 -0.00426344 0.00465594 -0.00487322
C -7.31281121 1.89787678 17.09246523 0.00364164 -0.00342533 -0.00036497
C -0.95368365 1.87552286 18.00513705 -0.00109241 0.00031560 -0.00104764
C 5.62528256 6.74707881 12.46040390 -0.01016007 0.00444104 0.00063507
C -0.91897553 7.91209978 12.50395147 -0.00162011 0.00620189 -0.00561995
C -7.45804933 2.77671667 18.17487535 -0.00284967 -0.00191644 0.00599128
C 1.18919986 2.11799941 12.62441454 -0.00408207 0.00124139 -0.01228518
C 3.94467148 6.72536242 17.86463419 -0.00381009 0.00080298 -0.00849667
C -2.61569282 7.46513392 17.40553705 -0.00846467 0.00065902 0.00408920
C -5.77119086 2.86309331 12.80131446 0.00986136 -0.00269870 -0.00595543
C 0.05705371 2.73739111 12.12365858 -0.00150149 -0.00039694 0.00489133
C -8.22293492 7.84290259 18.12468541 0.00053476 -0.00372693 -0.00160013
C -1.70925557 6.56200680 17.83455224 -0.00148562 -0.00630434 0.00020240
C 6.61201786 1.82287775 12.41118987 0.00053242 0.00643463 0.00470140
C -4.11887243 5.22705355 15.64834447 -0.00088110 -0.00284614 -0.00442563
C -4.37760613 0.07403731 14.73273028 0.01084607 0.00401629 0.00078277
C 2.41937768 4.47060104 14.62181609 0.00083189 0.00477688 0.00004698
C 2.46759098 9.48345827 15.81280903 -0.00201371 0.01025344 0.00510836
C -5.10658137 6.31472257 15.51731899 -0.00326545 0.00083081 0.00213380
C -3.03050473 0.64492379 15.08588537 0.00301428 -0.00329680 0.00275311
C 3.90160127 4.04977618 14.70596512 0.00970250 0.00156450 -0.00752123
C 1.23128218 8.62684879 15.85479315 -0.00506227 -0.00005443 -0.00137678
C -5.65848218 3.71807640 23.38789487 -0.00425731 0.00750725 -0.00494099
C -8.35600945 8.65716953 19.22299737 -0.00341693 0.00289245 -0.00446248
C -1.93583434 5.78455830 18.99276301 -0.00093214 -0.00073981 0.00613212
C 0.90182958 0.85979652 23.24999370 -0.00210844 -0.00733180 -0.00176278
C -4.45729266 3.62183760 22.75010868 0.00131568 -0.00080342 -0.00036186
C 3.39409755 8.31590405 19.99563767 0.00259063 -0.00182918 0.00109130
C -3.11329453 6.02432068 19.74505135 -0.00756368 0.00149725 0.00278285
C -10.95313187 1.21651994 22.73875618 0.00156161 0.00236820 -0.00438512
C -3.52851562 2.61284542 23.00962113 -0.00030261 -0.00562066 -0.00128702
C 2.43244153 7.44533161 19.54812761 -0.00205928 0.00394271 0.00382202
C -4.00989872 6.99746586 19.39519347 0.00044191 0.00622757 0.00663678
C -10.07084256 2.15409140 23.16601295 -0.00190113 0.00767479 -0.00055527
C -3.71746874 1.80859600 24.15308433 -0.00545658 -0.00029456 -0.00193220
C 2.62707148 6.64224198 18.40363584 0.00109319 0.00510535 -0.00301369
C -3.72336020 7.77604222 18.24600583 0.00573324 -0.00013000 -0.00311415
C -10.08530354 2.86273024 24.33286712 0.00235106 0.00817054 0.00116191
C -2.13864714 2.00859743 18.72876907 0.00282027 0.00128670 0.00382599
C 1.02026669 6.80564392 23.78616725 -0.00420792 -0.00616816 0.00157154
C -5.99698378 7.74684995 23.83490938 -0.00110789 0.00057725 0.00676289
C -8.69946513 2.75729006 18.84314434 0.00009522 0.00406684 -0.00311993
C -3.11299493 2.89688118 18.26901004 -0.00296641 -0.00045183 -0.00292546
C 0.44204085 7.44900222 0.02407073 0.00772596 -0.00157108 -0.00512291
C -4.93916362 6.92865561 24.24062417 0.00513710 0.00225785 -0.00259896
C 3.59720057 1.79285471 18.33332789 0.00309762 -0.00401226 0.00159002
C -6.95693922 4.93567881 21.73417291 -0.00125245 -0.00035819 0.00070849
C -7.38037574 0.21261172 20.80146569 -0.00241500 -0.00007636 0.00257191
C -0.71617091 4.55790141 20.65332800 -0.00587052 0.00064763 -0.00174558
C -0.24999646 9.15557331 21.64231650 -0.00481123 -0.00501153 -0.00368608
C -8.13874282 5.80681808 21.52284991 -0.01105299 -0.00414334 -0.00725612
C -6.22883149 1.14261673 20.93462104 -0.00122776 -0.00055673 0.00092983
C 0.47604294 3.66439961 20.76793695 0.00200600 0.00569157 -0.00009474
C -1.50060688 8.24484016 21.51491472 0.00403750 0.00745079 0.00093311
C 3.05447691 13.39878390 5.08214695 -0.00115225 0.00444094 -0.00189007
C 0.54957661 18.31749516 1.08297161 -0.00010753 -0.00311520 0.00111818
C 7.16100937 15.73479983 0.94851514 0.00211711 -0.00809297 -0.00437899
C 9.77550500 10.84739306 5.04917200 -0.00113570 -0.00681227 0.00787292
C 4.22629651 13.27188356 4.34185367 0.00458455 0.00322227 -0.00174545
C 12.25913443 18.11968142 1.81231064 -0.00173210 -0.00116528 0.00103770
C 5.97414218 15.79650402 1.70761814 0.00819920 -0.00161769 -0.00506402
C 37.10751430 10.91966276 4.39432221 0.00374222 -0.00266636 -0.00522381
C 5.26644199 12.53218702 4.78932921 -0.00139626 0.00000302 -0.00440783
C 11.33574435 17.17807426 1.32937064 -0.00808370 0.00167159 -0.00268736
C 5.00524582 16.74292063 1.38585014 -0.00056168 0.00432473 -0.00248646
C -1.47958143 11.78369196 4.85085155 -0.00389779 -0.00086794 0.00146166
C 5.17628068 11.80548148 6.02788793 0.00499571 -0.00148023 -0.00081040
C 11.53259900 16.49678338 0.10804376 -0.00141670 0.00227412 0.00381858
C 5.21669334 17.49501601 0.19414638 0.00843400 0.00065033 0.00370825
C -1.65774925 12.55100079 5.98021751 -0.00020158 0.00142965 -0.00052760
C 7.02911687 11.70611822 0.62596247 -0.00359874 0.00595280 0.00213780
C 9.88796249 16.69350572 5.49370195 -0.00049611 0.00012334 -0.00416021
C 2.93778700 17.19955719 5.29393570 0.00074543 0.00680812 0.00245196
C 0.20163553 12.22394221 0.75920531 -0.00266940 -0.00068879 -0.00133723
C 5.98123727 12.52304968 0.32770477 -0.00051293 -0.00392789 0.00201263
C -2.48801760 17.49939150 5.95831851 -0.00086291 -0.00063723 0.00260956
C 3.94451793 16.36455579 5.63402677 0.00330940 -0.00425353 -0.00072021
C 0.43470736 11.60706206 24.23404995 0.00017806 0.00391816 -0.00690446
C 1.87418423 14.74825046 3.49905714 -0.00459881 -0.00646451 0.00620857
C 1.38767830 9.85586273 2.61023008 -0.00459623 0.00388907 0.00233781
C 8.24835044 14.28689631 2.56128934 -0.00417630 0.00335281 0.00602629
C 8.56954903 19.26597419 3.43881337 -0.00000868 0.00235348 0.00415365
C 0.60381212 15.57005825 3.34034258 0.00143495 -0.00436136 0.01216893
C 2.58147492 10.82311809 2.81657801 0.00121200 -0.00631361 -0.00857963
C 9.29133196 13.26507759 2.89649363 0.00161882 -0.00239912 0.00387959
C 7.41465428 18.29821143 3.26161806 0.00175759 -0.00215171 0.00788806
C 0.21409712 13.37943521 11.05510161 -0.00230208 -0.00669163 0.00769952
C -2.72387274 18.14098946 7.14377374 -0.00536164 -0.00276057 -0.00739327
C 3.87976816 15.65049556 6.85498184 -0.00067904 0.00057392 0.00464280
C 6.80617618 11.02643843 11.17599851 0.00109421 -0.00295271 -0.00236106
C 1.47516069 13.28476647 10.36819704 0.00550450 0.00469789 0.01020775
C 9.38487498 18.26553757 7.70783282 0.00213229 -0.00639179 -0.00006460
C 2.73695777 15.62848719 7.63401666 0.00690680 0.00410634 -0.00045011
C -5.07036116 10.92487216 10.57555545 -0.00344122 0.00603333 -0.00145402
C 2.46402266 12.41550147 10.72358892 -0.00525136 -0.00563989 0.00569070
C 8.43806436 17.44072988 7.25304659 0.00016375 0.00211665 0.00381789
C 1.72183165 16.50430837 7.27516831 -0.00286451 0.00026341 0.00167642
C -4.07411191 11.79424234 11.11392789 -0.00831602 -0.00120304 0.00172790
C 2.23659084 11.60405272 11.83185442 -0.00519390 -0.00371525 -0.00413061
C 8.63324280 16.59469835 6.16822768 -0.00487945 0.00082218 0.00596959
C 1.75938062 17.36813453 6.14208925 0.00250320 0.00627315 0.00671059
C -4.26039247 12.62989203 12.26445865 0.00461364 0.00194109 -0.00337384
C 3.99155964 11.90024149 6.80017239 -0.00279052 -0.00306885 -0.00474598
C 7.10812522 16.68860536 11.73482094 -0.00161714 0.00419288 0.00207036
C 0.25291108 17.49290721 11.94870719 -0.00599082 -0.00012677 0.00792362
C -2.96225176 12.48957073 6.60696011 0.00452647 -0.00272478 -0.00403966
C 2.94634801 12.67778383 6.31219134 0.00378636 0.00422129 0.00048362
C -5.49522013 17.30183087 12.15857683 -0.00751869 0.00408883 -0.00404107
C 1.15753100 16.53151862 12.27646731 -0.00366291 -0.01084134 -0.00690251
C 9.61324298 11.56404263 6.23188789 0.00076345 -0.00691594 -0.00610223
C -1.07497606 14.69216496 9.57917251 -0.00275547 -0.00133866 -0.00065366
C -1.41746762 9.89567628 8.69879116 0.00584859 -0.00204336 -0.00218922
C 5.31579918 14.45267244 8.39881182 -0.00425558 0.00689065 0.00057972
C 5.52016953 19.13469796 9.67093550 0.00515034 -0.00328652 -0.00094600
C -2.40602127 15.37799829 9.44869572 0.00061913 -0.00129112 -0.00111734
C -0.33019056 10.85608966 8.79755490 0.00548996 -0.00213377 -0.00024493
C 6.62243493 13.76876781 8.48932787 0.00856242 -0.00252324 -0.00739303
C 4.24471755 18.45546607 9.32632669 0.00667130 0.00208451 -0.00370218
C -2.66274483 13.51973971 17.47160681 0.00564022 -0.00906173 -0.00516337
C -5.67395137 18.14104439 13.21344441 -0.00058329 -0.00176488 -0.00374920
C 0.90800767 15.55996617 13.18381576 0.00479244 -0.00198130 0.00036255
C 3.81146669 10.71161951 17.31043240 -0.00449030 -0.00166420 0.00282176
C -1.46331049 13.39569904 16.80688843 0.00037618 -0.00017695 0.00511312
C 6.48205273 18.29136157 13.92712360 -0.00308932 -0.00448585 0.00360624
C -0.29661848 15.63818886 13.88870561 -0.00450445 -0.00104416 0.00120289
C -8.27311255 11.13799406 16.84824123 0.00030113 0.00923597 -0.00056918
C -0.51275054 12.44407791 17.17997694 0.01223752 -0.00383524 -0.00368707
C 5.61208645 17.31798634 13.48333141 0.00265324 0.00069560 -0.00705514
C -1.20738837 16.71400403 13.68062967 -0.00502989 0.00000671 0.00406308
C -7.25406300 12.01826023 17.17313355 0.00278872 -0.00210402 0.00264879
C -0.70303352 11.65821978 18.27368787 0.01325056 -0.00078411 -0.00511696
C 5.90698443 16.47517870 12.37992759 0.00544406 -0.00571906 -0.00330293
C -0.97241926 17.56694546 12.57401219 -0.00081857 -0.00341694 -0.00227894
C -7.37662060 12.72212687 18.35522135 0.00422508 -0.00137457 0.01133870
C 0.91257327 11.51317280 12.43820962 0.00610138 0.00266952 0.00310703
C 3.85197097 16.75437916 17.64481388 0.00194148 0.00195734 -0.00068942
C -2.78036427 17.23750630 17.84658967 0.00045671 0.00328206 0.00453457
C -5.61010845 12.56138416 12.86428297 -0.00271586 -0.00339621 0.00339239
C -0.04996600 12.40640318 12.01398227 -0.00134944 -0.00031677 -0.00266474
C -8.39955002 17.52620665 18.37305265 -0.00409300 0.00129211 0.00384280
C -1.73488895 16.39696757 18.29612827 -0.00734850 -0.00519216 0.00550776
C 6.60957421 11.76472796 12.34818601 -0.00283581 -0.00813071 -0.01015534
C -3.88796500 14.84935227 15.82072903 -0.00315977 -0.00156468 0.00315560
C -4.27928552 10.06777998 14.86257581 -0.00007465 -0.00432593 -0.00340180
C 2.25230752 14.18935507 14.63686377 0.00436092 0.00230474 0.00053345
C 2.47731070 19.26819942 15.78133867 0.00392779 0.00069687 -0.00728116
C -5.04212889 15.80435918 15.61694690 -0.00018937 0.00420162 0.00462519
C -3.03386156 10.73174338 15.20254743 0.00297570 -0.00239598 -0.00321067
C 3.31773763 13.18260516 14.72530234 -0.00088387 0.00308090 0.00134881
C 1.29444723 18.35188131 15.69531541 -0.00031116 -0.00183060 -0.00978955
C -5.84410722 13.43231609 23.63127860 -0.00054100 -0.00311062 0.00082491
C -8.56993016 18.36354262 19.45305532 -0.00247280 0.01011034 0.00753551
C -1.86403542 15.54603700 19.41383696 -0.00012522 0.00055669 -0.00030443
C 0.74264976 10.74779822 23.18224790 -0.00714478 0.00267158 0.00125202
C -4.69038079 13.35615592 22.88408900 0.00070471 -0.00563479 0.00031721
C 3.33558717 18.40622838 19.78353021 -0.00358092 0.00423564 -0.00030589
C -3.03592879 15.63476398 20.16861734 0.00012491 0.00532386 -0.00295471
C 28.11997002 10.72576306 22.83500997 0.00216705 -0.00388137 -0.00665761
C -3.70157977 12.48249491 23.17440351 0.00151202 -0.00877336 0.00587234
C 2.35902095 17.48905381 19.40245937 -0.00476058 -0.00139351 0.00046489
C -4.11838716 16.50854372 19.72345334 -0.00774303 0.00115867 0.00503570
C -10.40213577 11.53182595 23.36178067 0.00244140 -0.00896284 -0.00061096
C -3.76246629 11.70262322 24.31293496 0.00080962 -0.00250348 -0.00589495
C 2.57996270 16.64395048 18.29575453 0.00002754 0.00102635 0.00388571
C -3.94791093 17.32609230 18.56329941 -0.00252219 0.00513907 0.00187463
C 1.49306772 12.28387199 0.11814328 -0.00149037 0.00194787 -0.00801574
C -1.91222002 11.74089687 18.99084607 -0.00066256 0.00277181 -0.00145665
C 0.73056177 16.65326142 23.75832247 -0.00117223 0.00150791 -0.00560452
C -5.60281288 17.33756260 23.79147718 -0.00431263 0.00176848 -0.00015056
C -8.56922849 12.65244912 19.05808033 0.00164950 -0.00405531 0.00564591
C -2.82289886 12.69445074 18.62640480 -0.00710207 0.00176130 0.00399505
C -11.17991894 17.51919117 24.30241386 0.00056265 0.00395912 -0.00124746
C -4.61451395 16.56975881 24.25932353 -0.00467494 -0.00109707 0.00445113
C 3.62843069 11.57481179 18.36314206 0.00113376 -0.00192548 -0.00823671
C -7.17659428 14.92584613 22.12286819 -0.00236943 0.00381818 0.00430021
C -7.22374950 10.10313878 20.84126969 0.00232490 -0.00361193 -0.00113946
C -0.74219416 14.24825063 20.94383734 -0.00392571 0.00496396 -0.00493428
C -0.32674789 19.28504078 21.55843657 -0.00397174 -0.00263345 -0.00089902
C -8.38707955 15.76955595 22.10949135 0.00055716 0.00908715 0.00103529
C -6.13799042 11.05693441 20.93876981 0.00173090 0.00383337 0.00324688
C 0.41208500 13.29654604 21.05809108 -0.00693305 0.00405649 -0.00461760
C -1.50942405 18.36303019 21.48620290 -0.00435927 -0.00769023 0.00697845
C 3.21685886 23.08911209 5.05506037 -0.00783406 -0.00027874 -0.00138519
C 0.62033678 27.92459033 1.08671621 -0.00180063 -0.00283826 0.00302776
C 7.17238613 25.50179482 1.05266999 0.00045058 0.00188069 0.00654046
C 9.75497207 20.53817101 5.08326677 0.00194802 0.00045524 0.00195766
C 4.41546428 23.07856074 4.37545462 0.00112710 -0.00012621 -0.00703287
C 12.40104762 27.75346368 1.55919302 -0.00599062 -0.00084092 -0.00014306
C 5.95513771 25.55527024 1.67375114 -0.00348309 0.00458117 -0.00110396
C 37.29800030 20.58855276 4.50762324 0.00170616 0.00152542 -0.00065944
C 5.37378752 22.12784795 4.75382777 -0.00240959 -0.00046588 0.00188397
C 11.37354729 26.94980711 1.09868383 0.00001495 -0.00803595 -0.00562350
C 4.92167119 26.34105090 1.19179756 0.00402692 -0.00302759 0.00117594
C -1.23129681 21.48256850 4.80085065 0.00275005 0.00476211 -0.00141143
C 5.19761098 21.27454665 5.83626262 0.00336779 0.00355149 0.00183383
C -0.42438616 26.11060512 24.35123652 -0.00845541 0.00161758 0.00107624
C 5.15563120 27.24433412 0.19728444 0.00120993 0.00312761 0.00344854
C -1.34081735 22.22943931 6.05229276 0.00722348 -0.00666981 0.00284642
C 6.88637047 21.46321392 0.53340468 -0.00203613 -0.00009660 0.00152565
C 9.82306468 26.50056703 5.52834489 0.00374130 0.00035450 0.00454331
C 3.26054685 27.16187037 5.49615345 0.00162272 -0.00447862 -0.00572620
C 0.54349986 22.01079734 0.85397654 0.00159231 -0.00241738 0.00716576
C 5.99844338 22.42125113 0.24553747 0.00087443 0.00478799 0.00507636
C -2.70830243 27.17917928 5.92708215 -0.00156166 -0.00340039 -0.00485035
C 4.20870815 26.18628078 5.85577340 0.00034388 0.00380097 -0.00005707
C 12.60094141 21.40402375 0.07118979 0.00158742 -0.00102256 -0.00359579
C 1.91090081 24.50034170 3.50705046 -0.00573055 -0.00778878 -0.00443894
C 1.45230258 19.78461240 2.76238188 -0.00166374 -0.00106171 0.00150204
C 8.26140005 24.01131223 2.56676632 -0.00875364 -0.00293045 0.00028297
C 8.54698176 28.91097804 3.52277116 -0.00698386 0.00385594 0.00971027
C 0.60164419 25.23673862 3.32268216 -0.00665475 0.00006912 0.00651543
C 2.58012462 20.68715602 3.07301309 0.00262328 0.00031666 0.00510468
C 9.40738323 23.00707633 2.78499978 -0.00315945 -0.00229295 0.00285959
C 7.54528287 27.81560512 3.39440750 0.00241797 -0.00436296 -0.00080625
C -0.13729909 23.17443964 11.05169828 0.00158671 0.00008005 0.00213801
C -2.89615411 28.04160732 7.02278403 0.00261650 0.00186641 0.00355747
C 4.00736607 25.41765282 6.96653468 -0.00281409 0.00434485 0.00283046
C 6.78484436 20.43995618 11.28806167 0.00451558 -0.00298289 0.00039662
C 1.03665555 23.05236388 10.33029161 0.00351636 0.00752823 -0.00122112
C 9.41282356 28.05465534 7.76803456 -0.00257819 -0.00322706 -0.00194052
C 2.74040082 25.60713092 7.60960739 -0.00577878 -0.01122768 0.00449224
C 34.31968365 20.37244878 10.51949687 -0.00249491 -0.00723124 0.00099860
C 2.05224881 22.14010130 10.67765683 0.00115317 0.00525002 -0.00634017
C 8.50802266 27.07304844 7.36218683 -0.00006952 -0.00297967 -0.00063916
C 1.85701172 26.54532364 7.27551705 0.00329866 -0.00439961 -0.00775678
C -4.22720820 21.21191316 11.03104979 -0.00098839 -0.00152214 -0.00490169
C 1.97452990 21.36984366 11.85405570 -0.00510536 0.00206275 0.00089472
C 8.63334883 26.34085372 6.22742487 -0.00626517 0.00010945 0.00054698
C 2.01830165 27.29125065 6.08854466 -0.00292729 0.00234338 -0.00651557
C -4.56446780 22.12367516 12.03211087 -0.00657335 -0.00032718 0.00153018
C 3.94415225 21.20280777 6.38208781 -0.00781309 -0.00642837 0.00803802
C 6.79907886 26.15413063 11.68375413 0.00168765 -0.00553631 -0.00021715
C 0.19002746 26.99422393 11.61075284 -0.00602992 0.00032839 -0.00285125
C -2.50795195 22.19193606 6.79062492 0.00052831 0.00056529 -0.00952810
C 2.94241055 22.11293664 6.01989533 -0.00254297 0.00292413 -0.00170467
C -5.42709872 27.04497312 12.10722147 -0.00395954 -0.00047046 -0.00217376
C 1.19672818 26.25720580 12.07961036 0.00816899 0.00442605 -0.00327052
C 9.57886346 21.33915690 6.23490307 0.00199776 -0.00556986 0.00011588
C -1.29444904 24.63612685 9.50783347 0.00189403 0.00931502 -0.00270443
C -1.57195431 19.25620538 8.86075983 0.00381601 0.00898641 0.00034240
C 5.08110972 23.88911316 8.53609831 0.00058195 -0.00386835 -0.00080842
C 5.69531620 28.58860891 9.65200427 0.00489554 -0.00304027 -0.00339915
C -2.39558612 25.69333751 9.34603566 0.00063203 0.00049069 0.00700432
C -0.34115844 20.03403876 9.26914544 0.00193539 0.00521731 0.00950234
C 6.28252749 23.06190471 8.71961357 -0.00044470 0.00390477 0.00305362
C 4.59481384 27.55025118 9.34264137 -0.00052199 0.00249585 -0.00460512
C -2.89012300 22.91019638 17.17344700 0.00083963 0.00324052 -0.00787773
C -5.65566370 27.90589466 13.16911373 0.00736493 0.00328497 -0.00126671
C 0.95894532 25.26376467 13.07664050 0.00379652 0.00892007 -0.00406994
C 3.71599167 20.90364870 17.21444200 0.00375176 0.00281959 -0.00351776
C -1.69986018 22.87124852 16.48695098 -0.00298289 -0.00405012 -0.00310643
C 6.49303951 27.72967223 13.95629478 0.00617439 -0.00562928 -0.00474805
C -0.27607867 25.24098780 13.67425690 -0.00801322 -0.00134274 -0.00004171
C -8.24860677 20.52940794 16.77743953 0.00335443 -0.00803346 -0.00323072
C -0.68236981 21.99330266 16.77609264 0.00269332 -0.00529210 -0.00186673
C 5.43062139 26.96391176 13.51005224 0.00082474 0.00669295 0.00534730
C -1.33032971 26.06494272 13.25564592 -0.00519100 -0.00071333 0.00086794
C -7.31098673 21.46936416 17.19825442 0.00031723 -0.00414113 0.00478156
C -0.70974769 21.36858645 18.01926714 0.00515222 -0.00451001 -0.00007519
C 5.56407036 26.19327235 12.34916963 0.00417456 0.00175647 -0.00571567
C -1.10024282 26.97307327 12.19119806 0.00068946 0.00478781 -0.01212675
C -7.50030926 22.34350018 18.24279020 0.00789624 -0.00034260 0.00217400
C 0.83572579 21.61034985 12.64877806 -0.00792535 -0.00072283 0.00067176
C 3.67303642 26.29534693 17.55364281 -0.00772189 -0.00058100 0.00012582
C -2.83205188 26.96427842 17.65028405 -0.00695683 0.00274233 -0.00644751
C -5.87011125 22.08302303 12.61418230 0.00110761 0.00039007 -0.00827775
C -0.19997451 22.35129000 12.13686820 -0.00227068 0.00640007 0.00079729
C -8.55039123 27.15197296 18.24672756 -0.00179732 0.00914172 0.00578686
C -1.89114187 26.00951464 17.99433638 0.00767770 0.00611602 0.00051803
C 6.48975650 21.38079598 12.21871900 -0.00119493 0.00240118 -0.00012416
C -4.19974055 24.35033776 15.67510389 0.00591558 0.00178881 -0.00197498
C -4.45785776 19.54265350 14.84914172 -0.00171017 0.00055475 -0.00462827
C 2.27951694 23.92329433 14.56760209 0.00134118 0.00379117 -0.00329582
C 2.55516028 28.77044580 15.62419564 0.00354235 0.00293497 0.00097299
C -5.48080958 25.09417386 15.66645183 -0.00016905 0.00273002 -0.00577069
C -3.37715407 20.58920607 15.07278914 0.00416399 -0.00405887 0.00253886
C 3.50823175 23.07936411 14.70832845 -0.00093063 0.00272258 -0.00375201
C 1.44937768 27.73884493 15.41547412 0.00220201 0.00169252 0.00264968
C -5.83050421 23.30495937 23.55300091 0.00217647 -0.00117272 -0.00575975
C -8.68765609 27.92938849 19.33553273 0.00982584 -0.00064198 -0.00457741
C -2.02603324 25.12262329 19.05513356 -0.00441888 -0.00310035 -0.00201641
C 0.77390620 20.58976041 23.33867831 0.00028071 -0.00812270 0.00337626
C -4.60143188 23.26013600 22.82778126 -0.00633956 -0.00228255 -0.00422635
C 3.36940892 27.84544920 19.86556091 0.00132329 -0.00216970 -0.00547115
C -3.17354470 25.15810429 19.85631320 0.00267782 0.00226590 0.00104829
C -11.12553922 20.51684393 22.81995535 0.00403598 0.00300707 0.00804622
C -3.60516493 22.36756226 23.25547771 0.00036985 -0.00472853 -0.00506968
C 2.31011961 27.05835898 19.47143176 -0.00057379 0.00161530 -0.00237345
C -4.19065377 26.09947698 19.53597692 0.00288778 -0.00051526 0.00021800
C -10.24338299 21.46318417 23.21002405 -0.00788395 -0.00004771 0.00007855
C -3.91116869 21.36392316 24.18468361 -0.00090878 -0.00055743 0.00020761
C 2.44213254 26.27772692 18.26447840 -0.00028642 -0.00229546 -0.00201835
C -4.07727598 26.98525374 18.37300986 -0.00155380 -0.00157329 0.00172267
C 1.70240329 22.16630831 0.08775779 -0.00233788 -0.00071491 -0.00306797
C -2.01288877 21.27466493 18.73423404 0.00365424 -0.00861857 0.00163230
C 0.78913462 26.20006275 23.68186239 -0.00764810 0.00905813 -0.00665969
C -5.62455458 27.10889044 23.88159843 0.00125011 -0.00774412 0.00342329
C -8.75994614 22.23964711 18.86592287 -0.00622013 0.00214402 -0.00036417
C -3.02669233 22.09588957 18.32228516 0.00605117 -0.00054048 0.00804999
C 0.79472808 26.97482770 0.05680674 -0.00752251 0.00185679 -0.00429974
C -4.64376491 26.27741174 24.29801503 0.00378581 -0.00484463 -0.00078408
C 3.68443175 21.79127838 18.27774923 -0.00071987 -0.00117253 -0.00499712
C -7.11769350 24.74991107 22.02208443 0.00278293 0.00525413 -0.00012323
C -7.38583354 19.97960804 20.82140164 -0.00057575 0.00335630 0.00320999
C -0.52918506 23.78378439 20.47992438 -0.00381530 0.00190500 0.00570760
C -0.45452930 28.74342913 21.68860218 -0.00010049 0.00675177 0.00918680
C -8.28948125 25.65835178 21.89032862 0.00531087 0.00329043 -0.00473572
C -6.14643065 20.79038307 20.92413746 -0.00214894 0.00144713 -0.00239451
C 0.83607759 23.19718360 20.45823689 -0.00069222 0.00662258 -0.00769355
C -1.67333263 27.92391157 21.35716354 -0.00379181 0.00080832 0.00360019
C 16.20814823 3.81263910 4.93899582 -0.00360946 -0.00796654 -0.00437479
C 13.66692856 8.59530065 0.96879278 0.00395994 0.00121905 0.00626457
C 20.30368223 6.18602102 0.91058346 0.00201161 -0.00004535 0.00290306
C 22.85370562 0.86743782 4.99450903 -0.00237674 -0.00653842 -0.00251935
C 17.43891596 3.74045741 4.22434056 0.00067841 0.00332731 -0.00190547
C 25.30434155 8.66990290 1.55024129 0.00139829 0.00433101 -0.00775828
C 19.01294988 6.22338626 1.57815734 -0.00755106 -0.00431328 0.00351287
C 10.82079105 1.40751646 4.48628205 -0.00111103 0.00461910 -0.00090371
C 18.40974076 2.85893704 4.60771800 -0.00479781 -0.00724828 -0.00100110
C 24.33344397 7.83830473 1.01355457 -0.00177861 -0.00710389 -0.00093975
C 18.02340025 7.06258972 1.13378098 0.00561979 0.00298218 -0.00230649
C 11.81270091 2.31326152 4.91873117 0.00125860 0.00887482 -0.00337064
C 18.16280563 2.02190971 5.70515063 0.00216546 -0.01322390 -0.00585805
C 12.58837033 6.95203916 24.30146062 0.00077288 -0.00100435 -0.00614400
C 6.20303303 7.84654678 24.33010614 0.00116793 -0.00199731 0.00576271
C 11.69329814 3.12184673 6.10060622 0.00515485 -0.00034308 -0.00360579
C 20.07354810 2.07658347 0.39721814 0.00755474 0.00209038 0.00123681
C 22.69592221 7.06224224 5.37289932 0.00167703 0.00142921 0.00530907
C 16.29669330 7.69922893 5.44312906 0.01004293 0.00647498 -0.01053199
C 13.55309154 2.54921047 0.48855128 -0.00260083 -0.00077720 0.00462194
C 7.09153357 2.97525417 24.29745616 -0.00992453 0.00749845 0.00153472
C 10.89031631 7.82750551 6.07097508 0.00236504 -0.00418875 -0.00353060
C 17.26889954 6.85129903 5.92250216 0.00740593 -0.00753230 -0.00535042
C 25.46101716 1.89753602 0.05465890 0.00026232 0.00003984 0.00392083
C 14.92138938 5.17760208 3.44953581 0.00506026 0.00409759 0.01282396
C 14.74070645 0.14301774 2.44616532 -0.00037945 0.00501194 0.00127516
C 21.23204979 4.61549972 2.46054916 0.00214531 -0.00095682 0.00834139
C 21.52665061 9.61309947 3.41624958 0.00190236 0.00735713 0.00167558
C 13.60754179 5.92464975 3.35583150 -0.00207184 -0.00139829 -0.00163435
C 15.88876252 1.04536786 2.52399271 -0.00246700 0.00200816 0.00358798
C 22.21239163 3.49966415 2.54085214 -0.00176658 -0.00024002 -0.00432020