2880
Time=26000.00000000 pbc="T T T" Lattice="39.46698139 0.00000000 0.00000000 0.00000000 29.25745594 0.00000000 -12.02960929 0.00000000 24.40823912" energy=-18400.88176394 virial="-4.79129052 -35.07987714 -32.02490724 -35.07987714 -22.53870391 24.47575652 -32.02490724 24.47575652 -45.51402157" stress="0.00238995 -0.00124371 -0.00115845 -0.00124371 0.00169057 0.00084453 -0.00115845 0.00084453 0.00081896" Properties=species:S:1:pos:R:3:vel:R:3
C 3.02798901 3.77168606 5.08590634 -0.00266205 -0.00491101 -0.00032546
C 0.43822940 8.56984165 0.94396575 0.00058711 -0.00215639 0.00347279
C 7.19681893 6.02945861 1.17560453 -0.00151979 -0.00263246 0.00256629
C 9.63694148 1.18827481 5.33484946 0.00566803 -0.00027188 0.00242326
C 4.28717187 3.62614143 4.46451161 -0.00110302 -0.00104221 0.00296664
C 12.29828842 8.54591766 1.50720306 0.00532045 -0.00105874 -0.00202471
C 6.02693439 6.06038010 1.89307011 -0.00299815 -0.00201119 0.00174303
C 37.18375385 1.29157245 4.28994174 -0.00696206 0.00580004 0.00066028
C 5.21040080 2.69230609 4.88404670 0.00448431 -0.00730295 -0.00366008
C 11.34990775 7.64564471 1.06712297 -0.00174562 0.00288834 -0.00093565
C 5.06221634 7.05463397 1.51631210 0.00642438 0.00582222 -0.00172799
C -1.40993213 2.22691141 4.75692727 0.00142004 0.00544014 0.00194617
C 4.89487520 1.84046533 5.99380195 0.00608630 0.00844178 -0.01083586
C -0.39440937 6.80050516 24.38814443 -0.00458792 -0.00204973 0.00553640
C 5.22418786 7.89294585 0.37397117 0.00106882 -0.00100746 -0.00017863
C -1.73473043 3.16375187 5.76638447 -0.00094422 0.00034898 -0.00612222
C 7.03809929 2.27163231 0.82135001 -0.00485568 -0.00276134 -0.00235870
C 9.87135371 6.78205238 5.47334482 -0.00076953 0.00589331 -0.00217699
C 3.24209493 7.69194744 5.39873190 -0.00567283 -0.00233191 0.00200427
C 0.39071339 2.81197441 0.59193028 0.00081824 0.00236656 -0.00377649
C 6.09340328 3.15935460 0.36666304 -0.00133588 -0.00255729 0.00147202
C -2.45812397 7.94870316 6.03383828 -0.00429850 0.00048210 -0.00645331
C 4.25802205 6.87095268 5.88733579 0.00061186 0.00191565 -0.00281695
C 12.81996772 1.91560209 0.26310347 -0.00397231 0.00311573 0.00025362
C 2.02336992 5.41764719 3.57669256 0.01198515 -0.00332168 0.00555793
C 1.53762751 0.11477051 2.44265091 -0.00066239 -0.00380045 -0.00259817
C 8.24383652 4.43482373 2.69022216 0.00574525 -0.00198194 0.00323792
C 8.52403702 9.53137588 3.47509259 0.00241369 -0.00344899 0.00294684
C 0.97004143 6.50378574 3.31734468 -0.00367529 -0.00134099 0.00177065
C 2.84844636 0.87716210 2.67661138 -0.00262366 0.00390185 -0.01202241
C 9.45272881 3.57512851 2.98916850 0.00101441 -0.00166130 0.00340361
C 7.32115648 8.65787013 3.18674840 -0.00168873 -0.00034978 -0.00544430
C 0.18345144 3.61916092 11.31404149 0.00240341 -0.00066847 0.00282081
C -2.63432779 8.71823677 7.19254501 -0.00396431 -0.00240345 0.00135406
C 3.97252050 6.00496327 6.92996517 -0.00103791 0.00176694 0.00435714
C 6.85456856 1.04122354 11.40397010 -0.01067487 0.00049277 0.00054191
C 1.35299889 3.48160890 10.62652458 0.00694637 -0.00273873 0.00122722
C 9.30652229 8.40990938 7.63661048 0.00148897 0.00052779 -0.00549027
C 2.74982414 6.10268276 7.61923986 -0.00180743 0.00604106 -0.00832382
C -4.92738544 1.06918419 10.58808403 0.00074155 0.00999857 0.00002074
C 2.34044131 2.50297237 10.94596756 0.00057646 -0.00046350 -0.00937787
C 8.36850066 7.56852686 7.17744747 0.00277873 0.00964445 0.00209713
C 1.82761619 6.99849809 7.25325944 0.00634402 -0.00524843 -0.00297527
C -3.98865299 1.94666686 11.05363488 0.00128466 0.00086131 -0.00105509
C 2.21526658 1.74774526 12.17097202 -0.00376827 0.00125845 0.00007166
C 8.57083198 6.77746782 5.94769782 -0.00366128 0.00340614 -0.00040831
C 2.06511447 7.79795529 6.11830101 0.00337366 0.00145459 -0.00837511
C -4.19553189 2.82602185 12.13697610 0.00265315 0.00060211 -0.00385783
C 3.63875658 1.96620258 6.53316590 0.00308444 -0.00283151 -0.00198667
C 7.04095517 6.86700963 11.59275685 -0.00316735 0.00483253 0.00283487
C 0.32216784 7.53711969 11.59277675 0.00800891 -0.00410636 -0.00167897
C -2.98776216 3.10114945 6.34691657 0.00120210 -0.00166294 0.00349649
C 2.64697016 2.83153963 6.09321831 0.00106270 0.00464715 -0.00288297
C -5.28973423 7.74200628 12.10474340 -0.00158004 0.00648904 -0.00242956
C 1.34131190 6.75496381 12.11145093 0.00474912 -0.00586826 0.00090972
C 9.53125683 1.83092409 6.52882387 -0.00278182 0.00141923 0.00412362
C -1.23654482 4.96705433 9.87981890 -0.00343073 -0.00180958 0.00267452
C -1.41013308 0.02220869 8.51308678 0.00895485 0.00184016 -0.00131678
C 5.17908784 4.61059845 8.51944976 -0.00398812 -0.00829963 0.00319261
C 5.68637927 9.33805344 9.66370112 -0.00482959 0.00214294 -0.00481656
C -2.61209800 5.52277127 9.85051725 0.00370492 0.00641918 -0.00837185
C -0.24609230 0.87276365 8.94605013 -0.01010213 0.00423503 0.00170519
C 6.51487316 3.97014673 8.62869788 0.00476772 -0.00640834 -0.00195257
C 4.63608314 8.20911807 9.59251493 0.00081241 -0.00356016 -0.00024243
C -2.81573834 3.78518940 17.58150161 -0.00412815 0.00063114 -0.00609964
C -5.55772506 8.71626018 13.04472169 -0.00106181 -0.00325838 0.00119397
C 1.09762537 6.02106896 13.23276380 -0.00414892 0.00207211 0.00284951
C 3.81082628 1.03698401 17.35132270 -0.00471269 -0.00645124 -0.00532747
C -1.62274093 3.76605915 16.79509274 0.00209286 0.00209315 0.00108546
C 6.49024084 8.68553516 13.64547123 0.00424876 -0.00363964 -0.00071084
C -0.04539621 6.23726617 14.01735518 -0.00251344 -0.00149311 -0.00723335
C -7.99733271 1.52498298 16.68687544 0.00281039 -0.00414812 0.00234430
C -0.56768280 3.02009878 17.30573433 0.00298147 0.00219324 -0.00365962
C 5.53674563 7.80029829 13.27840943 0.00105253 -0.00185723 0.00258253
C -1.02012131 7.08067136 13.57123996 0.00436042 0.00682720 0.00114000
C -6.97471790 2.35514613 17.08290468 -0.00860231 -0.00428037 -0.00024645
C -0.69266777 2.20058558 18.44102926 -0.00433871 -0.00120044 -0.00271564
C 5.78745396 6.90709793 12.22313236 0.00380228 -0.00217914 0.00213347
C -0.91122573 7.69610873 12.31001866 -0.00381966 0.00574515 0.00088930
C -7.19607270 3.10726653 18.22908710 0.00382237 0.00076104 0.00366271
C 1.06422342 2.01688920 12.91191288 -0.00115415 0.00473166 -0.00129599
C 3.69176742 7.07117466 17.65259574 0.00853382 -0.01069196 -0.00739238
C -3.00036897 7.77103158 17.70064434 0.00387977 -0.00024903 -0.00222509
C -5.44196416 2.71414959 12.82557669 0.00024723 0.00438718 -0.00023503
C -0.01160618 2.83534660 12.46012252 -0.00028991 -0.00506856 0.00746371
C -8.54042675 7.94777459 18.11334472 0.00032827 -0.00808601 0.00619059
C -1.98840704 6.96031923 18.13667139 0.00254885 -0.00012151 -0.00048604
C 6.60899634 2.02879945 12.38634326 -0.00643214 -0.00573880 0.00133715
C -3.98390733 5.17330664 15.95613069 -0.00070866 0.00213603 0.00223268
C -4.45604119 0.18068394 14.80413236 0.00444431 -0.00532969 -0.00209935
C 2.27957325 4.59603167 14.90463767 0.00186368 0.00233060 -0.00842448
C 2.46393114 9.42813405 15.56399136 0.00181706 0.00118858 0.00357597
C -5.40926944 5.60669090 15.67644040 -0.00137100 0.00136956 -0.00392764
C -3.31341029 1.29007887 14.78712077 -0.00625997 -0.00484330 0.00191081
C 3.48823061 3.62040328 15.04037867 -0.00609070 0.00025577 0.00370096
C 1.12576084 8.84048976 15.31962603 0.00212001 -0.00207622 0.00235902
C -5.64554522 3.94320655 23.59847458 0.00250540 0.01195293 -0.00149807
C -8.76656061 8.64660628 19.26686128 0.00083439 0.00362711 0.00333679
C -2.14114447 6.12970349 19.27592252 -0.00468977 -0.00004667 0.00271257
C 0.97732718 1.19617041 23.49338053 -0.00333726 -0.00411164 0.00411656
C -4.42256525 3.79437470 22.92350016 0.00310686 -0.01070236 0.00686695
C 3.42656691 8.55315453 20.01105585 0.00121082 -0.00042107 0.00352931
C -3.38545071 6.25187325 20.00662195 0.00479960 0.00005661 0.00430314
C -11.17130479 1.22803033 22.74137092 0.00324909 -0.00133161 -0.00500310
C -3.46490942 2.89432564 23.40771262 -0.00656077 0.00077507 -0.00219592
C 2.48179928 7.60192622 19.69044239 -0.00532986 0.00352509 0.00127553
C -4.42880338 7.03414082 19.50526239 -0.00115620 -0.00508565 -0.00437333
C -10.16965279 2.01728764 23.29425888 -0.00121292 -0.00197900 -0.00772467
C 8.28303525 2.13354444 0.15510683 0.00184225 -0.01113607 0.00229436
C 2.55222788 6.83516951 18.51610121 0.00247915 0.00086852 -0.00001877
C -4.23289299 7.89117654 18.35403872 -0.00200057 -0.00480513 0.01117936
C -10.33763179 2.84863829 24.40070045 -0.00277692 0.00592821 -0.00317702
C -1.88991752 2.22122157 19.18489328 0.01031316 -0.00392623 0.00122788
C 0.76527893 7.05218052 23.69089504 -0.00153064 -0.00335896 0.00120237
C -5.61702315 7.79503183 24.06127881 -0.00372544 0.00297935 0.00689992
C -8.48178390 3.08434163 18.89070973 0.00159231 -0.00327230 -0.00420333
C -2.93262364 2.98886383 18.73967239 0.00088432 -0.00484016 -0.00406496
C -11.36970111 7.70306313 24.28888989 0.00396332 0.00133060 -0.00057131
C 7.44319703 6.91504830 0.07872810 0.00301883 0.00038950 0.01019703
C 3.62715901 1.78392615 18.51072030 0.00530216 0.00315501 -0.00583030
C -6.78735888 5.30768433 22.07116551 0.00402975 0.00293591 -0.00452282
C -7.51170892 0.44890613 21.08861705 0.00153808 -0.00194461 0.00442501
C -0.85434568 4.77487708 20.83226192 0.00441179 0.00405878 -0.00666189
C -0.61497424 9.62780011 21.70803145 0.00240461 -0.00078507 0.00365009
C -8.02909165 6.03287756 21.74856561 0.00439720 -0.00108174 -0.00399927
C -6.35922938 1.35614477 21.32065785 0.00054745 -0.00322746 0.00345693
C 0.34953729 3.91864454 21.02390134 0.00375004 0.00334210 0.00066685
C -1.74252828 8.76302698 21.44984656 0.00039951 0.00255461 0.00138744
C 3.07829746 13.55865628 5.25564681 -0.00097433 0.00898829 0.00789070
C 0.25798232 18.33668920 1.21767830 0.00466162 -0.00094109 -0.00213720
C 6.87819477 15.70480964 0.85670460 -0.00806267 -0.00282228 -0.00095739
C 9.78329812 10.81162352 5.05584726 0.00253876 0.00745032 0.00254222
C 4.19760682 13.33787783 4.40271274 -0.00310362 -0.00330391 0.00440756
C 12.11757646 18.30891571 1.58125683 0.00386475 0.00075053 0.00347563
C 5.68693190 15.68763286 1.59796054 -0.00076746 -0.00693379 -0.00045191
C -2.18448095 11.02487375 4.50320935 0.00760242 -0.01237766 0.00598188
C 5.30005482 12.60476930 4.85857675 -0.00261987 0.00433722 0.00854439
C 11.17883597 17.39986700 1.18323367 0.00418679 0.01320815 -0.00686913
C 4.71547232 16.60467476 1.26758529 0.00170325 0.00146991 -0.00591386
C -1.20431647 11.87038346 4.97953717 -0.00879952 0.00304966 -0.00095579
C 5.25836269 11.85772128 5.99768850 -0.00549281 -0.00485802 0.00066678
C 11.29566598 16.56932470 0.04068574 -0.00308672 -0.00000324 -0.00822733
C 4.80874130 17.38898795 0.10347614 0.00143865 -0.00300432 -0.00396567
C -1.33512339 12.72418900 6.09495809 -0.00138085 -0.01032059 -0.00698820
C 6.89239420 11.96201346 0.45885326 -0.00710238 -0.00210705 0.00622881
C 9.73684553 16.54567916 5.48437627 -0.00634266 0.00235629 0.00467198
C 2.93765365 17.79640799 5.43151971 0.00687262 0.00195008 0.00257871
C 0.21206475 12.47459988 0.47957066 0.00887423 -0.00039010 -0.00044182
C -6.19642891 12.64044706 24.35252383 0.00352165 0.00558737 -0.00047537
C -2.57984970 17.68931475 6.21041838 -0.00007529 0.00005344 -0.00140764
C 3.96220162 16.92557531 5.78034855 -0.00552966 0.00265478 -0.00346244
C 12.47475876 11.68680317 0.04637997 0.00037719 -0.00379433 -0.00202647
C 1.67561292 14.66956104 3.59666510 -0.00685195 0.00329529 0.00374284
C 1.41332463 10.06407992 2.51917689 0.00091190 0.00379535 0.00676867
C 8.14696633 14.47727968 2.44468913 -0.01235071 -0.01002283 0.00188983
C 8.16238430 18.97140052 3.42934524 -0.00276478 0.00367852 -0.00516404
C 0.35951619 15.42837771 3.60176510 0.00008208 0.00372676 -0.00214867
C 2.59283929 10.89012294 2.72851163 0.00593493 0.00340546 0.00564511
C 9.28928215 13.54478392 2.79094706 -0.00882664 -0.00055550 0.00031574
C 6.81524248 18.36985517 3.20583791 0.01440279 -0.00640609 0.00312733
C 0.28806742 13.56168848 11.15889041 -0.00171946 -0.00482251 -0.00717411
C -2.73716368 18.61800967 7.22325982 -0.00427999 -0.00265804 0.00402608
C 3.85608175 16.11099547 6.90637358 -0.00062848 0.00084889 0.00132062
C 6.89038758 10.88187671 11.16109436 -0.00016768 0.00791745 -0.00712535
C 1.50105025 13.52164628 10.46198099 0.00468618 0.00034444 -0.00402859
C 9.33849777 18.14904230 7.64055023 -0.00027798 -0.00752302 -0.00270409
C 2.62794495 16.03381814 7.60984445 0.00381349 0.00015275 0.00310160
C 34.16232468 10.89201538 10.56497792 0.00091419 0.00054587 -0.00473789
C 2.53541877 12.68269045 10.89379299 -0.00302690 0.00227116 -0.00056908
C 8.36312878 17.29935978 7.30439175 -0.00464669 0.00153815 0.00686721
C 1.58862423 16.80730378 7.19686049 -0.00277026 -0.00136049 0.01337917
C -4.27717161 11.69396922 10.96299614 0.00233472 -0.00235566 -0.00329427
C 2.35390277 11.85594223 12.00797825 0.00454939 0.01252771 0.01135127
C 8.54398524 16.42177960 6.20983233 -0.01896558 0.00258770 0.00287620
C 1.78740294 17.81009106 6.15856838 -0.00275127 -0.00214328 -0.01043445
C -4.32031893 12.45490796 12.11041217 0.00630219 -0.00168250 0.00034673
C 4.17276396 12.04388433 6.82503731 -0.00355869 -0.00163213 0.00624737
C 6.68337347 16.75162896 11.65762467 0.00804164 0.00241338 0.00079069
C 0.10866670 17.26703060 11.59294407 0.00427823 0.01045802 -0.00192057
C -2.59505788 12.70394170 6.70612909 0.00023436 0.00699341 -0.00312045
C 3.09122003 12.87928473 6.48246151 0.00129937 0.00525410 -0.00167153
C -5.43251061 17.50134086 12.22042615 -0.00504070 0.00341220 0.00533207
C 1.15562693 16.61217481 12.14438745 -0.00550076 -0.00641485 0.00319960
C 9.48993997 11.69426605 6.12929389 -0.00451271 0.00239539 -0.00041657
C -1.15127806 14.80614295 9.75533543 -0.00272313 0.00221544 0.00919342
C -1.46103860 10.16664624 8.69138386 -0.00159513 -0.00355579 0.01009648
C 5.17283694 14.77935830 8.48074532 -0.00245316 -0.00903312 0.00134080
C 5.56567809 19.20905014 9.61139534 -0.00714682 0.00212705 -0.00144138
C -2.39471311 15.59936250 9.68692729 0.00651529 0.00395871 0.00619812
C -0.36010185 11.12029243 8.86186405 0.00972190 0.00486032 0.00535942
C 6.45900714 13.96656633 8.69479435 -0.00098223 -0.00213203 0.00175924
C 4.36904539 18.40798554 9.39852071 0.00009883 0.00611779 -0.00215434
C -2.96285811 13.62692308 17.27337426 -0.00818231 -0.00071035 0.00027797
C -5.65353104 18.32148316 13.32690840 0.00136532 -0.00279184 0.00134881
C 0.95360307 15.74348575 13.27978573 0.00118373 0.00010453 -0.00242586
C 3.72236179 10.75811645 17.21514136 -0.00389521 -0.00396587 0.00212524
C -1.78588988 13.47141684 16.54498036 0.00279366 -0.00536307 0.00086610
C 6.32571519 18.29325976 13.93986656 -0.00578033 -0.00558403 0.00173146
C -0.29333884 15.85009191 13.89762116 -0.00165072 0.00287053 -0.00252263
C -8.16857669 10.96723739 16.61278771 -0.00249635 -0.00858603 -0.00985683
C -0.90496036 12.55792767 16.96867675 0.00162109 0.00533714 -0.00015339
C 5.27704646 17.48626733 13.49613622 -0.00248738 0.00822114 -0.00315293
C -1.28386982 16.68737729 13.44309580 0.01144701 0.00134472 0.00032856
C -7.27254162 11.94755231 16.94614735 -0.00610835 0.01214575 0.00359167
C -1.15587467 11.62882321 17.99624324 -0.00002591 -0.00588018 -0.01399879
C 5.45562262 16.68950922 12.34867334 0.00512598 0.01207530 0.00430582
C -1.13566723 17.36489019 12.23269429 -0.00667458 0.00486225 -0.00483730
C -7.53882369 12.78011363 18.05070695 0.00051684 -0.00507453 0.00322986
C 1.08482071 11.66741498 12.47644457 0.00545782 -0.00298077 0.00971646
C 3.71026801 16.70640772 17.59592060 0.00184987 -0.00282771 -0.00310333
C -2.78403098 17.55193540 17.81510303 -0.00333554 0.00417337 0.00233627
C -5.59126152 12.52799474 12.73855205 -0.00038726 0.00122968 0.00864465
C 0.15761140 12.63221057 12.18918165 -0.00288848 -0.00011392 -0.00688954
C -8.43286028 17.67461217 18.27638423 -0.00189037 0.00165009 -0.01327618
C -1.75252240 16.83536371 18.19688419 0.00535349 0.00146086 0.00899647
C 6.71493801 11.64751407 12.31743944 0.00224371 -0.00207648 0.00477666
C -4.15245471 14.84510432 15.61380884 0.00738351 0.00048187 -0.00671892
C -4.40579701 10.16913392 14.61140449 -0.00692607 -0.00333903 -0.00457643
C 2.05414397 14.25264988 14.82200597 0.00409219 0.00565429 -0.00769011
C 2.52007645 19.25363267 16.01309959 -0.00403551 -0.00036799 -0.00163895
C -5.40322682 15.65850138 15.43393309 -0.00302522 -0.00727306 0.00426370
C -3.53283532 11.29727154 14.80864107 -0.00419328 0.00267593 -0.00124792
C 3.12728652 13.29552012 14.94770841 0.00283312 0.00088466 0.00560560
C 1.27851995 18.49866746 15.84905052 -0.00557000 0.00215183 -0.00133340
C -5.97517637 13.56483094 23.27579555 -0.00733858 0.00126372 0.00139078
C -8.50211652 18.49932651 19.46224741 0.00587333 -0.00010307 -0.00075832
C -2.00900304 15.79763334 19.20972659 -0.00038146 -0.01048646 -0.00307890
C 0.65067265 10.84392596 23.36896152 -0.00138682 0.00248122 0.00048966
C -4.74115834 13.66548973 22.64136344 0.00907091 0.00479153 -0.00175762
C 3.41339997 18.11689708 20.01997514 -0.00019613 -0.00060379 0.00016696
C -3.18398407 15.88240730 19.95680338 0.00767317 -0.00086038 0.00951308
C 28.16195738 10.73762542 22.81287267 0.00088627 0.00066828 0.00473431
C -3.72670296 12.83884342 23.13589061 0.00205172 -0.01191239 0.00194750
C 2.37654042 17.24843016 19.56173563 0.00439230 -0.00055610 0.01228327
C -4.20688127 16.74864053 19.57923539 -0.00789978 -0.00781218 0.00513299
C -10.37771057 11.72490359 23.14338389 -0.00031252 -0.01184261 -0.00382370
C -3.87097386 11.95083342 24.16292777 0.00784728 -0.00025900 -0.00051910
C 2.52506127 16.54533299 18.40393504 -0.00520962 -0.00153608 0.00223865
C -4.06783518 17.50330008 18.42155604 -0.00162886 0.00039516 0.00052392
C -10.56617450 12.55127059 24.25941961 -0.00004678 0.00720619 -0.00065775
C -2.33224193 11.78149642 18.66394215 -0.00848638 0.00234279 0.00041324
C 0.48433643 16.76853044 23.73923415 0.00398042 -0.00415227 0.00841281
C -5.99337488 17.31209263 23.73720460 -0.00093904 -0.00129061 0.00614493
C -8.71389698 12.62034722 18.76925171 0.00175051 0.00085842 -0.00974040
C -3.22921157 12.77549587 18.35358287 -0.00258402 0.00432632 -0.00127729
C 0.50506481 17.51913502 0.10284479 0.00501439 -0.00451734 0.00601121
C -5.01044116 16.47848125 24.12770941 -0.01010277 -0.00155371 -0.00137151
C 3.52803826 11.53257448 18.35391844 -0.00313123 0.00070645 0.00309726
C -7.25376592 14.85486753 21.74171471 0.01100760 0.00908950 -0.00284039
C -7.64717483 9.97102602 20.94716111 0.00183014 -0.00133267 0.00260025
C -0.76845249 14.41984805 20.75653248 0.00297149 0.00358965 0.00394757
C -0.46462270 19.24814941 21.84712068 -0.00456021 0.00145072 -0.00204966
C -8.45033119 15.75966881 21.63297296 0.00258490 -0.00917503 0.00499750
C -6.33990591 10.82324262 21.11042435 0.00590559 -0.00706818 0.00456066
C 0.45280074 13.60181060 20.78500796 0.00751316 -0.00125779 -0.00672554
C -1.69659978 18.39760143 21.67545269 -0.00406201 -0.00255716 -0.00747687
C 3.24300935 23.33269054 5.27650398 -0.00353342 -0.00531757 -0.00085488
C 0.25449733 28.07985299 0.82077101 -0.00561981 0.00401215 0.00363617
C 7.10160155 25.66342327 1.16203879 -0.00067871 -0.00406211 0.00414604
C 9.38550348 20.46032406 4.89275077 -0.00167550 -0.00028264 0.00692204
C 4.48153439 23.34642050 4.60556765 -0.00082592 -0.00320246 0.00091643
C 12.26754780 28.05808884 1.79450271 0.00091160 0.00667970 0.00080043
C 5.81119424 25.75365911 1.72924546 0.00227961 -0.00224242 -0.00311005
C 37.14411970 20.81981219 4.42015968 -0.00415366 0.00476497 -0.00380571
C 5.47807739 22.49960244 5.02320836 0.00165450 0.00490710 -0.00990819
C 11.35448310 27.24037224 1.24051447 -0.00202827 0.00442624 -0.00148649
C 4.90741463 26.71734899 1.30692270 0.00828611 0.00477364 0.00217840
C -1.31045838 21.65513853 4.77404477 0.00085637 -0.00057337 0.00130694
C 5.33228324 21.71439391 6.21764098 0.00570846 0.00472642 -0.00455650
C 11.55321399 26.49322857 0.05485739 0.00315108 -0.00598140 0.00483919
C 5.21132785 27.51916974 0.16739690 0.00076905 -0.00404466 0.00272194
C -1.41053975 22.43989460 5.98915510 -0.00470169 0.00455252 -0.00024015
C 7.01607740 21.69688072 0.71852958 0.00443954 0.00848832 -0.00008565
C 9.79070198 26.33799196 5.62077861 -0.00094030 -0.00322690 0.00272998
C 3.23495506 27.36577410 5.64155858 -0.00260971 -0.00024229 -0.00940290
C 0.22201022 22.49368421 0.41678794 0.00947405 -0.00210837 0.00451504
C 6.09350750 22.60712264 0.36204913 -0.00618943 -0.00385163 -0.00583598
C -2.46785373 27.43422605 5.70093292 -0.00528278 0.00970279 -0.00051551
C 4.26540397 26.56658954 6.15055994 -0.00720800 -0.01070405 0.00073552
C 12.48905689 21.41402140 0.19141611 -0.00415704 0.00187425 0.00337963
C 1.91109753 24.81148888 3.71927809 0.00246684 0.00378692 -0.00281386
C 1.36810376 19.96147089 2.62529850 -0.00039245 0.00216357 0.00154710
C 8.27384866 24.25339125 2.76689431 -0.00579293 -0.00981901 -0.00425133
C 8.49236909 29.03751779 3.73354052 0.00029804 0.00246125 0.00499250
C 0.70734116 25.58766324 3.45286716 0.00769970 0.00003281 0.00662488
C 2.56228833 20.88780276 2.58316359 -0.00629156 0.00606010 -0.00710227
C 9.45636932 23.34156737 2.96705779 0.00203742 -0.00472586 0.00638855
C 7.37173394 28.06394377 3.62881343 -0.00349427 0.00464785 0.00391990
C 0.00743881 23.29793208 11.20636556 -0.00453112 -0.00033524 0.00130349
C -2.64092285 28.30459042 6.76000532 0.00306675 -0.00173828 0.00228830
C 4.10114216 25.60449286 7.15943392 -0.00983037 0.00026621 0.00240210
C 6.74529509 20.62710830 11.18533560 0.00092475 -0.00453626 -0.00498398
C 1.32112622 23.07465637 10.71427882 -0.00333657 -0.00590108 0.00622470
C 9.36764992 28.07087284 7.93259333 -0.00342813 -0.00728272 -0.00284865
C 2.84987339 25.62804408 7.84673741 -0.00127089 0.00586979 0.00277141
C 34.15782094 20.52478707 10.66846732 -0.00149733 0.00346872 0.00623224
C 2.19835276 22.13717569 11.21260227 0.00742283 -0.00167061 0.00330551
C 8.49094247 27.03410770 7.62496790 -0.00672166 0.00643406 0.00276872
C 1.81033775 26.43911887 7.35853479 0.00893769 0.00038285 0.00185275
C -4.36002576 21.40035963 11.06150721 -0.00117611 0.00245298 0.00371619
C 1.87330386 21.41481043 12.40339348 -0.00310523 -0.00222694 0.00003755
C 8.67323808 26.19733709 6.47452209 -0.00107064 0.00172591 -0.00081266
C 1.96836112 27.31798742 6.29157729 0.00396409 0.00593508 -0.00340672
C -4.47520373 22.24705198 12.20820874 0.00018489 0.00602862 -0.00116922
C 4.14187696 21.86199715 6.95912635 -0.00103797 -0.00711589 -0.00087384
C 6.78655096 26.54583936 11.84427533 0.00011206 0.00391894 -0.00076340
C 0.48022392 27.05215564 11.58125361 0.00618964 -0.00109095 -0.00561823
C -2.60414942 22.35915541 6.65029645 0.00122500 0.00635765 0.00280314
C 3.12567515 22.57872076 6.42379697 0.00154585 0.00563563 -0.00067695
C -5.22372557 27.11811439 12.09846032 0.00071236 0.00096187 0.00863769
C 1.32368969 26.05594314 12.04340602 0.00163978 -0.00174081 -0.00350784
C 9.21131710 21.27659072 6.09431456 0.00126039 0.00038828 0.00247228
C -0.86791325 24.63402680 9.49810369 0.00075015 -0.00050650 -0.00004496
C -1.33221994 19.93155673 8.72617077 -0.00288607 0.00464695 0.00141217
C 5.22337793 24.18406845 8.69252438 0.00565972 -0.00720675 -0.00966825
C 5.70012656 28.91309137 9.79166847 0.00538088 0.00017723 -0.00108072
C -2.06320706 25.48124976 9.15144576 0.00159314 -0.00060333 -0.00740718
C 0.11279241 20.55012374 8.81647493 0.00276047 0.00139631 0.00697725
C 6.46344645 23.40498855 8.98546384 0.00355535 -0.00396755 0.00095167
C 4.63543402 27.86503998 9.74200116 0.00641063 0.00493537 -0.00050073
C -2.83675752 23.22031519 17.31108381 0.00486812 0.00262650 -0.00479983
C -5.50290328 27.94670981 13.16714111 0.00082470 0.00348619 -0.00330183
C 1.02093925 25.25146777 13.19656914 -0.00018650 0.00118134 0.00028987
C 3.78570192 20.65683786 17.42583130 0.00456500 -0.00607303 -0.00740686
C -1.64422168 23.12050818 16.66147362 0.00727655 0.00092825 -0.00352400
C 6.49069663 28.04129708 14.19014474 -0.00265767 0.00073928 -0.00187493
C -0.16260858 25.49170212 13.88202715 -0.00345132 0.00220383 -0.00781284
C -8.20204344 20.65824001 16.73263370 -0.00077404 -0.00389706 0.00472045
C -0.59503687 22.41942694 17.26509297 0.00160975 -0.00026205 0.00334272
C 5.53472409 27.12521972 13.84526680 0.00676821 0.00119783 -0.00192851
C -1.13879555 26.36066928 13.37922130 0.00588324 0.00112836 0.00523457
C -7.13646526 21.39371163 17.23647933 -0.00598604 0.00302935 0.00365233
C -0.70952818 21.61879835 18.35941086 -0.00418272 0.00752517 0.00745625
C 5.67087847 26.36760188 12.70889413 -0.00463778 0.00652775 -0.00100268
C -0.78336275 27.13818903 12.28870153 0.00004540 -0.00401777 -0.00484005
C -7.30937055 22.20252608 18.39658232 0.00510524 0.00269961 -0.00045409
C 0.54995193 21.57836694 12.87429161 0.00059455 0.00624330 0.00003048
C 3.97282153 26.44019199 18.02860794 -0.00159556 0.00735683 0.00161792
C -2.83087008 27.31261341 17.69674031 0.00606924 -0.00133555 -0.00248361
C -5.74487644 22.30018444 12.81210514 -0.00373607 0.00424425 0.00229149
C -0.28341236 22.54407802 12.38468333 0.00085812 -0.00352243 -0.00024923
C -8.29695847 27.55989338 18.24653921 -0.00614964 -0.00616280 0.00015549
C -1.81825111 26.46764923 18.10392846 0.00255096 -0.00088183 -0.00201093
C 6.55476421 21.44042815 12.30636471 -0.00213087 0.00379166 0.00061585
C -4.06936209 24.64548976 15.75059331 0.00208156 0.00373746 -0.00376317
C -4.42723707 19.85400355 14.73338357 0.00565875 -0.00482901 -0.00010359
C 2.32910276 24.09758413 15.00634489 0.00643758 -0.00335232 -0.00451135
C 2.76889450 28.85449807 15.77301253 -0.00370636 0.00360438 -0.00315290
C -5.31860197 25.49006550 15.52832024 -0.00186714 0.00022035 0.00724740
C -3.27363249 20.80811149 14.75204685 0.00258213 -0.00062909 -0.00552350
C 3.55522407 23.23039837 15.27474740 0.00341929 0.00292931 0.00188307
C 1.48940936 28.12174832 15.47622788 0.00160688 -0.00399033 -0.00265248
C -5.63939032 23.43079476 23.68859959 0.00606840 -0.00627928 0.00108439
C -8.55132956 28.31101721 19.42437741 0.00128751 0.00426739 -0.00249003
C -2.00457748 25.63516766 19.21415316 0.00219479 -0.00075295 0.00281224
C 0.67190963 20.79443089 23.39204382 -0.00246568 -0.00528060 -0.00615030
C -4.43355374 23.34184419 22.99761349 0.00530313 -0.01154312 -0.00536656
C 3.55159141 28.20003028 20.16282305 0.00142901 0.00559195 0.00331324
C -3.20885532 25.62577654 19.96437431 -0.00177900 -0.00402903 -0.00378596
C 28.08585325 20.79859253 22.69249250 -0.00177636 -0.00073780 -0.00169015
C -3.47841029 22.49368372 23.46078617 0.00031804 -0.01300888 0.00034210
C 2.58570253 27.23017569 19.84965933 0.00982527 -0.00590966 0.00244332
C -4.28419936 26.42600236 19.50054172 0.00419671 0.00502673 0.00358833
C -10.40845979 21.73860576 23.00584781 0.00012216 -0.00398064 -0.00153839
C 8.26506039 21.59857891 0.10501953 -0.00225520 0.00177950 0.00871932
C 2.73919506 26.42950523 18.67456638 -0.00573376 0.00117078 0.00981836
C -4.06017355 27.24076441 18.41276574 0.00602788 -0.00426627 -0.00054033
C -10.56999546 22.55423273 24.11931315 -0.00734957 -0.01122425 -0.00218289
C -1.95150867 21.73453116 19.00086588 0.00046404 -0.00167107 -0.00068001
C 0.82428390 26.51173063 23.91598779 0.00390555 -0.00611225 -0.00280794
C -5.66268605 27.26188301 23.85867329 0.00111522 0.00162643 0.00542371
C -8.56715422 22.30319289 18.97336875 -0.00122253 -0.00236164 -0.00572958
C -2.99654649 22.44332552 18.47044174 0.00302394 -0.00144408 0.00736452
C -11.51323800 27.20972397 24.17801696 -0.00135530 0.00753363 0.00156971
C -4.72810182 26.45506922 24.40204858 0.00046337 0.00175219 0.00139699
C 3.68270707 21.52243718 18.52637121 -0.00136022 -0.00253722 -0.00681783
C -6.99214006 24.60332167 22.02455163 -0.00368519 0.00638721 -0.00907377
C -7.10757397 19.82911460 20.96433882 0.00154937 -0.00183454 -0.00154085
C -0.80426529 24.23274300 20.82335186 0.00195353 -0.00202415 0.00059257
C -0.46887787 29.16546554 21.94929014 0.00800013 0.00262700 -0.00433145
C -8.18389760 25.48182636 21.88318742 -0.00719760 -0.00538923 0.00108514
C -5.88619536 20.67892074 21.12491065 -0.00057149 -0.00053151 -0.00359067
C 0.52830043 23.55470185 20.98412856 -0.00073861 0.00066286 0.00766994
C -1.65879729 28.29353157 21.95002727 0.00092386 0.00827799 -0.00578381
C 16.32570014 3.79639759 5.14300228 0.00348059 -0.00063397 0.00100033
C 13.52786870 8.72097685 0.84966942 -0.00548776 0.00552188 -0.00251953
C 20.22232673 5.94530610 1.07404951 -0.00164474 0.00066061 0.00057566
C 22.90604724 1.05320797 5.09681772 0.00709819 -0.00089935 -0.00176511
C 17.51486859 3.87890817 4.46784947 0.00405574 0.00154328 -0.00422444
C 25.53095384 8.63054857 1.83518801 0.00200987 -0.00493005 -0.01164561
C 18.97593333 6.07849828 1.72899309 -0.00273220 0.00545672 -0.00938974
C 10.81864110 1.31283256 4.62611070 0.00114314 -0.00313385 -0.00064026
C 18.52272695 2.95962472 4.74648795 0.00402009 0.00071298 -0.00011161
C 24.57469239 7.74830661 1.49366207 0.00741295 0.00643781 -0.00630065
C 17.96270164 6.82402357 1.17647667 0.00135013 0.00090356 -0.00069384
C 11.84573725 2.15772688 4.99676379 -0.00131053 -0.00064167 0.00452631
C 18.38889999 2.04054783 5.84659696 0.00064964 -0.00118588 0.00053787
C 24.75476223 6.89401284 0.38515303 0.00160911 0.00042950 0.00434129
C 18.30446370 7.73128791 0.16127151 -0.00435766 -0.00752986 -0.00095134
C 11.77151730 2.72503037 6.22198107 -0.01265123 -0.00332730 -0.00207444
C 20.22443611 1.93508503 0.41661251 -0.00428749 -0.00238175 -0.00188765
C 23.01599090 6.87128720 5.59352924 -0.00796516 0.00656355 -0.00305797
C 16.46925473 7.56330540 5.56605747 -0.00175998 0.00398825 0.00383029
C 13.64571093 2.95262303 0.63197098 -0.00617340 0.00085994 -0.00406822
C 7.19500896 2.79097936 24.38176726 -0.00087143 -0.00705253 -0.00615579
C 10.86686948 7.61446254 5.94840213 -0.00470294 -0.00517575 -0.00422426
C 17.41674318 6.76892065 6.10699206 0.00283539 -0.00328632 0.00177347
C 13.72544143 1.96374409 24.36085229 -0.00614853 -0.00557624 -0.00849188
C 14.98882464 4.89608938 3.42469734 -0.00706116 -0.00001133 0.00133322
C 14.55472850 0.36665367 2.88200535 -0.00101703 0.00939209 0.00052105
C 21.36089460 4.37537308 2.65313386 -0.00061118 0.00488229 0.00251272
C 21.87219445 9.45279487 3.57154326 -0.00836546 0.00422234 -0.00571930
C 13.83486828 5.73118025 3.06943875 -0.00029219 -0.00037309 0.00144682
C 15.73312379 1.32222362 3.16267677 0.00061460 0.00211083 -0.00191760
C 22.42816827 3.34398053 2.74888081 -0.00305573 -0.00310221 0.00529264