2880
Time=35000.00000001 pbc="T T T" Lattice="39.61745833 0.00000000 0.00000000 0.00000000 28.91660370 0.00000000 -12.04422208 0.00000000 24.46757424" energy=-18398.51711607 virial="-80.02672216 45.60066108 -7.53884997 45.60066108 -46.54566663 57.30706142 -7.53884997 57.30706142 -78.80610127" stress="-0.00039142 0.00165253 -0.00025290 0.00165253 0.00070905 0.00201864 -0.00025290 0.00201864 -0.00027544" Properties=species:S:1:pos:R:3:vel:R:3
C 3.16881024 3.65866378 5.09858626 0.00130950 0.00381677 -0.00756933
C 0.62359914 8.82287592 0.99456939 0.00110258 -0.00001008 0.01263084
C 7.06847728 5.91627574 1.13956331 0.00111577 -0.00014903 -0.00306210
C 9.64317244 1.17592328 5.16057749 -0.00331282 -0.00535098 0.00233084
C 4.36586084 3.57847804 4.39231382 -0.00401296 -0.00614264 0.00324010
C 12.41509042 8.38832427 1.51176338 -0.00304361 0.00972408 -0.00933017
C 5.93999005 6.16947362 1.91871170 -0.00134732 -0.00366503 0.00203306
C 37.29332441 1.23004939 4.47233311 -0.00370855 -0.00022468 -0.00648977
C 5.32682897 2.63864446 4.71587627 0.00270726 0.00128810 0.00122980
C 11.40245790 7.53914047 1.13854924 -0.00465482 -0.00103640 -0.00231791
C 4.98980586 7.11783829 1.55154974 -0.00078348 0.00272813 -0.00464123
C -1.25957652 2.11005506 4.75274125 0.00533322 0.00390433 0.00675937
C 5.09232851 1.75889116 5.83009553 -0.00360285 0.00136844 0.00793992
C -0.47372484 6.78932330 24.44516263 0.00653312 -0.00442797 0.00330007
C 5.07590826 7.81136919 0.33244182 -0.00266565 0.00312683 0.00033018
C -1.32788219 2.79841485 5.99542473 -0.00474426 0.00451149 0.00023681
C 6.97094333 1.88462536 0.53693024 0.00147561 0.00147290 0.00346269
C 9.83015660 6.87242242 5.63678104 -0.00308969 0.00289957 -0.01075406
C 3.22685865 7.59300388 5.60225470 -0.01104025 0.00550026 0.00331068
C 0.17389519 2.76132120 0.80039014 0.00409005 -0.00008910 -0.00246836
C 6.01764274 2.82622476 0.24931758 -0.01008193 0.00417312 -0.00228231
C -2.51205337 7.76127282 6.00813738 0.00120883 0.00542751 -0.00067680
C 4.18091714 6.67920332 6.08297929 -0.00139294 -0.00143478 0.01325489
C 12.74557845 2.04115723 0.12198814 0.00308378 0.00642921 -0.00335701
C 1.99848200 5.22294517 3.70377183 0.00266018 0.00150418 -0.00002668
C 1.69282026 0.14971025 2.67058735 -0.00510004 0.00118633 -0.00766543
C 8.37944795 4.58836555 2.60811357 -0.00115050 -0.00404245 0.00395118
C 8.56227723 9.25459776 3.84389342 0.00243256 0.00618737 -0.00417548
C 0.77622322 6.05646930 3.64431749 0.00541973 -0.00057900 0.00300539
C 2.96541723 0.87127147 2.90809676 -0.00826197 -0.00173289 0.00017264
C 9.66090219 3.81234002 2.83702893 -0.00447513 0.00006960 0.00379356
C 7.31992309 8.59416455 3.78880164 0.00119296 0.00944925 0.00107658
C 0.13773363 3.69291493 11.09306897 -0.00587771 -0.00216575 0.00549311
C -2.69942584 8.64695582 7.04903603 0.00812726 -0.00181904 -0.00076313
C 4.01869748 5.83731349 7.19894120 0.00683410 0.00250978 -0.00375298
C 7.00530754 1.12575876 11.38848348 0.00628791 -0.00547301 -0.00030496
C 1.28861773 3.53054001 10.34474729 0.00609894 -0.00129346 0.00895761
C 9.48574112 8.49886245 7.85482875 -0.00238063 0.00221259 -0.00353869
C 2.83540530 5.93189069 7.86736193 0.00342546 -0.00310803 0.00914564
C 34.09925333 1.39414350 10.60766123 0.00366659 0.00379917 -0.00307479
C 2.32367828 2.69911501 10.71313549 0.00905010 -0.00594378 -0.00842964
C 8.49963396 7.60771585 7.51108242 -0.00347556 0.00355850 -0.00019875
C 1.82761094 6.74326369 7.38288574 -0.00624131 0.00206375 0.00330514
C -4.45910921 2.14162921 11.02216092 0.00273364 -0.00149954 -0.00182142
C 2.20588039 1.86589263 11.86289729 0.00152109 -0.00193997 0.00773291
C 8.62482941 6.81611724 6.39273506 0.00010806 0.00042394 0.00189484
C 2.01038197 7.66403286 6.35016386 0.00635017 0.00080827 -0.00214447
C -4.48024394 2.86173181 12.26743239 0.00787908 -0.00050670 -0.00486384
C 4.01298119 1.96812795 6.62262163 -0.00176482 -0.00679368 0.00494150
C 6.90652423 6.95225763 11.68673831 0.00185362 0.00517128 -0.00502926
C 0.14094085 7.40626764 11.57316474 -0.00173686 0.00300087 -0.00682192
C -2.53213022 2.80510088 6.77301012 0.00205764 -0.00140976 0.00218988
C 3.04401440 2.85883927 6.21051195 -0.00357998 0.00133453 -0.00026384
C -5.50124231 7.59547043 12.21061754 -0.00670350 -0.00109854 -0.00707948
C 1.23189449 6.66077826 12.00936376 0.00175834 0.00251871 -0.00360471
C 9.47215297 2.08404812 6.17847432 -0.00040254 -0.00291772 -0.00454972
C -1.09313144 5.09962162 9.60789003 -0.00629875 -0.00736454 0.00247993
C -1.44670258 0.35414137 8.62823040 -0.00161860 -0.00910275 -0.00016205
C 5.26103454 4.51586357 8.70345822 -0.00406713 -0.00093264 -0.00427525
C 5.39236862 9.30707882 9.90849353 0.00473722 0.00057038 -0.00344647
C -2.39557057 5.96193876 9.42139513 -0.00089081 0.00204889 -0.00496309
C -0.13860221 1.10664085 8.71071515 -0.00060104 0.00141318 -0.00276933
C 6.38302941 3.61237871 8.82219185 -0.00123113 -0.00802239 -0.00219710
C 4.21435231 8.43386802 9.83560013 0.00036412 0.00916918 -0.00012155
C -2.82460794 3.58812109 17.44928747 0.00615783 -0.00158977 0.00285551
C -5.59208573 8.43425661 13.36610154 0.00763188 0.00126618 0.00840811
C 1.05679775 5.82864474 13.08016145 -0.00087707 -0.00678246 -0.00157256
C 3.72802295 0.92192680 17.24247278 -0.00372227 0.00475554 -0.00015175
C -1.65257854 3.49712209 16.73794589 -0.00381112 -0.00064596 -0.00771863
C 6.50605865 8.40790936 13.96709241 0.00006847 0.00403626 -0.00654872
C -0.04005861 6.03130877 13.94828736 0.00072109 -0.00151921 -0.00211573
C 31.23693213 1.04205642 16.87386953 -0.00189286 0.00403222 0.00897479
C -0.61855339 2.65602101 17.12968058 0.00219600 0.00583118 0.00833085
C 5.50504783 7.62242152 13.50353082 -0.01044650 0.00386651 0.00535722
C -1.10817894 6.78734521 13.54227150 0.00120068 0.01169294 0.00089815
C -7.35027943 1.86474650 17.37170478 0.00295435 0.00124803 -0.00319142
C -0.79118211 1.84907218 18.26039664 0.00121103 -0.00331212 -0.00259809
C 5.66585534 6.86069054 12.34421276 0.00022743 0.00575273 0.00265386
C -1.08065365 7.51008618 12.36698321 0.00165098 -0.00521930 -0.00194655
C -7.50455817 2.77372812 18.43194119 0.00294357 0.00133632 0.00389107
C 1.01589614 1.89900190 12.59555919 -0.00634280 0.00307698 0.00414422
C 4.06486205 6.79179761 17.77495708 0.00446723 0.00121450 0.00088036
C -2.65715939 7.60192741 17.89097011 -0.00363639 0.00051552 0.00185523
C -5.73834330 2.81187062 12.94921778 0.00119093 -0.00016001 0.00085321
C 0.01703946 2.79491931 12.16022485 -0.00142010 -0.00165788 -0.00607908
C -8.47923691 7.55684027 18.26214708 0.00153564 -0.00076114 -0.00458346
C -1.68406356 6.66439276 18.29576945 -0.00109052 0.00114813 0.00258747
C 6.84056772 1.96946756 12.48895469 -0.00088274 0.00088362 -0.00613165
C -3.93725479 5.04308675 15.95830225 -0.00394317 0.00029670 -0.00008575
C -4.35090855 0.02035336 14.90961300 0.00191274 -0.00510946 -0.00193051
C 2.25834278 4.39208135 14.60467055 -0.00537061 0.00468031 0.00351008
C 2.57382873 9.19753850 15.84148697 0.00338501 0.00577517 -0.00057364
C -5.20767001 5.80318991 15.74434079 -0.00506239 0.00528669 -0.00112434
C -3.07021189 0.76735354 15.27645143 -0.00713687 -0.00014141 -0.00299322
C 3.55618794 3.58646728 14.79752038 -0.00220709 0.00361976 -0.00170901
C 1.29725889 8.41933800 15.73653772 -0.00706278 -0.00630895 -0.00901555
C -5.94851914 3.61612899 23.62717268 0.00531380 -0.00040583 -0.00397648
C -8.59464292 8.36340962 19.43410731 -0.00823190 0.00097394 0.00089957
C -1.88638274 5.75690715 19.35617543 -0.00462028 -0.00248583 0.00179188
C 0.95701379 1.08250255 23.58253076 0.00348690 0.00118111 0.00024357
C -4.74753917 3.58903594 22.93475734 0.00054567 0.00427834 0.00352053
C 3.58393061 8.40122500 19.98591194 -0.00047075 -0.00091326 0.00364786
C -3.07242253 5.91860613 20.13197737 -0.00068123 0.00297061 -0.00210188
C 28.25438431 1.14213273 23.04654187 -0.00079981 -0.00832064 -0.00228928
C -3.77568315 2.63918028 23.22045590 -0.00086754 -0.00604789 0.00021533
C 2.62439255 7.52144708 19.51595320 -0.00005257 0.00601851 -0.00751681
C -4.05277304 6.76783101 19.71806232 -0.00113387 0.00383205 -0.00267870
C -10.38673159 2.04092589 23.41903295 0.00024610 0.00446834 0.00001028
C -3.87252182 1.83200568 24.32832940 -0.00918819 -0.00996298 -0.00601689
C 2.76539439 6.76735403 18.35145557 -0.00785410 -0.00595606 0.00282546
C -3.87073566 7.64610149 18.63600813 -0.00670698 0.00799885 0.00397503
C 1.42683442 2.88402240 0.09943678 -0.00738904 0.01132812 -0.00375989
C -2.05589308 1.82307113 18.88813285 0.00195729 0.00010771 -0.00801087
C 0.71639940 6.90418765 23.75180225 0.00185275 0.00514239 0.00379574
C -5.73311476 7.63442909 24.13694182 0.00351493 0.00176546 -0.00801879
C -8.77821141 2.73073806 19.07851207 0.00103282 0.00425050 -0.00123057
C -3.10719330 2.68591171 18.50226311 -0.00419320 -0.00047349 0.00046692
C -11.18049809 7.92901857 24.40967215 -0.00013589 0.00316547 -0.00660433
C 7.28553479 6.73863101 0.05910959 -0.00531096 -0.00042560 -0.00162615
C 3.41068558 1.64538817 18.40248869 -0.00143146 -0.00080107 0.00002860
C -7.11007188 5.08578908 22.02717957 -0.00665470 0.00834163 -0.00401366
C -7.87179160 0.27272645 20.94093077 0.01279224 -0.00445188 -0.00113894
C -0.59068105 4.34499977 20.81480787 0.00038422 0.00048038 -0.00456474
C -0.55228929 9.28294881 21.96661694 -0.00528250 0.00118211 0.00177691
C -8.20293454 6.11629999 21.91312236 0.00121516 -0.00315819 -0.00023393
C -6.82755527 1.29221129 21.29371947 -0.00547231 -0.00534874 0.00036377
C 0.77802667 3.69128990 20.91957762 -0.00318297 0.00168755 -0.00028267
C -1.81239719 8.48820523 21.66710193 -0.00289679 -0.00059852 0.00657349
C 3.21270270 13.50932579 5.22641578 0.00017566 0.00618796 -0.00022315
C 0.48053991 18.18630638 1.03198662 -0.00215868 -0.00069864 -0.00321646
C 7.17372669 15.52792527 1.04570279 0.00359690 0.00651341 -0.00500150
C 9.86270449 10.74764540 5.12913619 0.00291349 -0.00022631 0.00529061
C 4.44086906 13.43744970 4.66870989 0.00061147 -0.00065641 -0.00368727
C 12.22352196 18.45812015 1.58136769 -0.00391517 0.00316379 -0.00386083
C 6.02752891 15.66233388 1.76394770 0.00347717 -0.00187723 0.00650664
C 37.19527330 11.00729716 4.35850435 -0.00059619 -0.00687754 0.00756604
C 5.38943267 12.46878578 5.04873307 0.00092579 -0.00059612 0.00253847
C 11.23268599 17.52850465 1.26773385 0.00008515 -0.00095179 -0.00267355
C 5.00206785 16.52495756 1.40268778 0.00775356 0.00116787 0.00785290
C -1.37803573 11.79657809 4.73871711 0.00262431 0.00062757 0.00245948
C 5.10609212 11.60481556 6.15549719 0.00291445 0.00514257 0.00296851
C 11.51793025 16.52460600 0.27655011 -0.00647828 0.00129346 0.00918244
C 5.19156637 17.38531838 0.28084924 0.00865635 0.00001507 -0.00176897
C -1.35844293 12.53846693 5.94665804 0.00307839 -0.00242207 0.00445428
C 7.02710543 11.63029738 0.61391212 -0.00163693 -0.00255002 0.00029574
C 10.01686925 16.50288706 5.71859966 0.00156273 -0.00029167 -0.00015289
C 3.42526856 17.44267504 5.64505946 -0.00184253 -0.00077346 -0.00286532
C 0.56752382 12.57112897 0.27478171 0.00205510 -0.00872421 -0.00418951
C 5.99849455 12.40584993 0.07747854 -0.00324514 0.00502653 -0.00252574
C -2.49425854 17.29131221 5.78761816 0.00314812 -0.00056913 -0.00326063
C 4.39720230 16.63740651 6.09965972 0.00813938 -0.00610533 0.00237817
C 12.65147272 11.53535957 0.15200291 0.00240098 0.00062240 -0.00030469
C 2.17187991 14.65945745 3.36866778 0.00194314 -0.00637699 -0.00276755
C 1.78769044 10.11064135 2.70654400 0.00165506 -0.00260350 0.00145069
C 8.41146072 14.18315016 2.64979394 0.00921208 0.00358593 -0.00441347
C 8.56179115 19.20645168 3.48331536 0.00393628 -0.00649239 -0.00468888
C 1.02008172 15.51699504 2.99488424 0.00077615 -0.00148983 -0.00059946
C 2.83863641 11.17471183 2.99003836 0.00057089 -0.00774286 0.00332997
C 9.56457406 13.25624097 2.94883845 -0.00321241 -0.00409952 -0.00187701
C 7.33497746 18.43386925 3.15401586 -0.00278875 -0.00244432 -0.00170562
C 0.21216323 13.22782961 11.25468373 -0.00004177 0.00121952 0.00461372
C -2.54449352 18.05735406 6.93608045 -0.01201564 0.00336233 -0.00197821
C 4.14341632 15.63688864 7.20825462 -0.00945574 -0.00134198 -0.00100158
C 6.72457583 10.78415709 11.29829454 -0.00347156 -0.00209006 0.00052322
C 1.45978749 13.18857751 10.57626373 0.00475383 -0.00695308 -0.00760776
C 9.51394719 18.10382837 7.88541387 0.00140007 0.00018865 -0.00987889
C 2.86626552 15.68018054 7.75793086 -0.00342030 0.00603754 -0.00401801
C 34.24619154 10.66141763 10.63751816 0.00343392 -0.00405174 0.00905890
C 2.47309732 12.33274510 11.03574627 -0.00824285 0.00281378 -0.00523543
C 8.60519352 17.15979678 7.49562772 0.00067078 0.00270843 -0.00676879
C 1.88964292 16.55063207 7.30667267 0.00542235 -0.00337705 0.00099116
C -4.45237196 11.55477817 11.02692172 -0.00543979 0.00302711 -0.00452453
C 2.32133852 11.59243355 12.19050647 0.00482780 -0.00127219 -0.00185394
C 8.80247669 16.28524574 6.43811751 -0.00097658 0.00029192 0.00085444
C 2.12174343 17.35544109 6.15215727 -0.00748447 0.00613676 0.00513270
C -4.61468218 12.38557734 12.20406875 0.00034142 -0.00122767 0.00417467
C 3.82297942 11.75592567 6.77624979 -0.00372075 0.00036169 0.00315586
C 6.50748599 16.39054023 11.46744136 -0.00270360 0.00286128 -0.00506255
C 0.18006140 16.99750562 11.72552927 0.00089146 0.00420914 0.00262313
C -2.58742638 12.67251790 6.55348293 0.00452322 -0.00158273 -0.00205760
C 2.85703081 12.63909795 6.33098649 -0.00182836 0.01281406 0.00360002
C -5.46837889 16.95191515 12.19899339 0.00040043 -0.00433085 0.00149290
C 1.23070118 16.23539781 12.11944633 -0.00259632 0.00153884 0.00459722
C 9.66694769 11.68547576 6.20401400 0.00015295 0.00201827 0.01045177
C -0.92798917 14.52073205 9.51253899 0.00327321 0.00845061 -0.00266163
C -1.56846332 10.06841785 8.67370407 -0.00473609 0.00333510 0.00505733
C 5.07772654 14.02185288 8.71071391 -0.00341835 0.00025451 -0.00221844
C 5.43069364 19.17418591 9.69087727 -0.00221210 -0.00226942 0.00185497
C -1.97821204 15.55880548 9.20550970 -0.00226583 -0.00077787 -0.00162487
C -0.54208852 11.15276776 8.86810237 0.00137491 -0.01226825 -0.00568220
C 6.18645735 13.02063740 8.90859115 0.00445120 0.00004443 -0.01198801
C 4.12107365 18.42562055 9.48101910 0.00135957 0.00859310 -0.00367362
C -2.71329859 13.23426926 17.46582258 -0.00246310 0.00041961 -0.00383367
C -5.66654415 17.82350041 13.27524810 0.00683957 -0.00000358 -0.00211592
C 1.10914863 15.35547122 13.25210083 0.00387398 -0.00136131 0.00398601
C 3.76688379 10.71287190 17.38620808 -0.00228132 -0.00249809 -0.00126239
C -1.47938776 13.15401414 16.75691302 -0.00209548 0.00376747 0.00268728
C 6.25853743 17.97232542 13.73589407 -0.00280099 0.00287490 -0.00046064
C -0.14695370 15.39909524 13.96077633 -0.00204429 -0.00111035 0.00535041
C -8.25568431 10.80550112 16.77610379 -0.00436144 -0.00075981 0.00003532
C -0.47640130 12.32347083 17.14735733 -0.00520649 0.00463318 0.01002722
C 5.27205978 17.10763729 13.30783165 -0.00039512 0.00408782 -0.00165507
C -1.20706710 16.25428539 13.57075056 -0.00248522 0.00222810 0.00367636
C -7.21090964 11.59049588 17.15530817 -0.01036026 -0.00083136 0.00470367
C -0.64825927 11.62192615 18.39931459 0.00496548 0.00363305 -0.00168320
C 5.37609893 16.27141069 12.20130854 0.00302914 -0.00136822 0.00037641
C -1.09959583 17.01345836 12.36682808 0.00144535 -0.01086504 0.00161949
C -7.36672535 12.38045641 18.32702124 0.00465867 -0.00001646 -0.00153683
C 1.05080370 11.50253204 12.84466267 -0.00095239 0.00907199 0.00567702
C 3.85066242 16.41783225 17.91219230 -0.00126511 0.00039715 0.00179721
C -2.65120310 17.20203545 17.89360800 0.00027004 -0.00818559 -0.00278076
C -5.85376944 12.38606060 12.77376168 -0.00540864 -0.00247939 -0.00297996
C 0.07499174 12.37841314 12.44142154 0.00232353 0.00073249 -0.00225062
C -8.35518190 17.54349637 18.29160238 -0.00359867 0.00125122 0.00045363
C -1.64850540 16.31023683 18.34325089 0.00823071 0.00446434 -0.00053896
C 6.60247839 11.69921955 12.34789377 0.00158465 0.01140768 -0.00730177
C -4.09068641 14.49815253 15.93156812 0.00556016 0.00289731 -0.00017732
C -4.33838088 9.75810553 14.91113300 0.00186692 0.00260125 0.00047449
C 2.38800802 14.03837474 14.87460659 -0.00265060 0.00578459 0.00171043
C 2.37942721 19.08276560 15.76901645 -0.00294967 -0.00358084 0.00530057
C -5.31817826 15.21258908 15.95154385 0.00181306 -0.00096072 0.00225878
C -3.16006621 10.62836340 15.05824602 -0.00120303 -0.00363575 -0.00707256
C 3.53224152 13.16331982 15.08434316 0.00108200 0.00119126 0.00036319
C 1.06238100 18.43985958 15.61582223 0.00105870 -0.00198296 -0.00038526
C -5.78573484 13.26779207 23.48288818 -0.00027461 0.00284894 -0.00580517
C -8.57964477 18.18928651 19.55032036 0.00349477 -0.00240307 0.00271978
C -1.92276861 15.46166275 19.47708826 0.00101328 0.00541253 -0.00471394
C 0.64071128 10.74580507 23.46999691 -0.00002018 0.00223226 -0.00302919
C -4.55912442 13.16768153 22.84092041 -0.00173918 -0.00252994 -0.00763512
C 3.41516530 17.92226782 20.23621312 -0.00176168 -0.00531410 0.00532450
C -3.14241299 15.60632255 20.10513755 0.00829110 0.00192945 0.00005492
C -11.05273044 10.70905680 22.76697094 0.00278069 -0.00528683 0.00112694
C -3.52738540 12.43305710 23.35604268 0.00381620 -0.00513657 -0.00166074
C 2.42077247 17.14337497 19.72438189 0.00100879 0.00663930 0.00307087
C -4.01889929 16.55497084 19.69977499 -0.00080352 -0.00830914 -0.00161987
C -10.03109008 11.53692179 23.11800104 -0.00375437 -0.00084540 -0.00108368
C -3.75876967 11.57560729 24.45710166 0.00094675 0.00011763 -0.00402963
C 2.60434673 16.40604537 18.60093738 0.00561322 -0.00039422 0.00377900
C -3.90351211 17.31123701 18.51941821 -0.00512869 -0.00029762 0.00067340
C -10.19960662 12.48386817 24.15085016 0.00056211 -0.00227445 0.00716184
C -1.85490219 11.59315886 19.06464725 0.00541805 0.00168532 0.00041890
C 0.72045705 16.57599474 24.03000462 -0.00497284 -0.00775350 0.00354874
C -5.57276015 17.33583032 24.08790319 0.00080392 0.00149356 -0.00691192
C -8.58006716 12.37007652 19.10469221 -0.00172375 0.00455780 -0.00259291
C -2.90260578 12.37160242 18.61526378 -0.01019883 0.00159778 -0.00203317
C -11.37443454 17.25024203 24.39815996 -0.00351924 -0.00055263 0.00267578
C -4.68255101 16.36258880 24.37105824 0.00214900 -0.00137191 0.00606037
C 3.56030562 11.41977073 18.58286321 0.00462506 0.00182272 -0.00236683
C -6.74693740 14.79400252 21.88257494 0.00038477 0.00095849 0.00358485
C -7.12638882 9.83895782 20.75979911 -0.00519312 -0.00836894 0.00182489
C -0.52165289 14.20787255 21.07033836 -0.00760787 -0.00090301 -0.00224001
C -0.30793160 19.04731964 21.97260962 -0.00397187 0.00337594 0.00282983
C -7.82576547 15.85052866 21.69391714 0.00096805 -0.00544935 0.01196794
C -5.98091245 10.80357425 20.75374081 0.00252134 0.00740912 -0.00136409
C 0.78107309 13.43354432 21.16990268 -0.00062091 0.00504082 -0.00720364
C -1.40380222 17.97914199 22.00469384 -0.00134671 0.00895667 -0.00097072
C 3.18164127 23.04244087 5.18568895 -0.00646447 0.00289710 -0.00308470
C 0.47348029 27.69282053 1.07437109 0.00378393 0.00026842 0.00150861
C 7.14016549 25.04004286 1.02837446 -0.00111670 0.00464586 0.00579885
C 9.80515937 20.36084454 5.21520406 0.00179545 0.00058934 -0.00016734
C 4.40795870 23.03855886 4.45510699 0.00381950 0.00122038 -0.00669291
C 12.43323686 27.80440221 1.74472344 -0.00645069 0.00951474 -0.00392468
C 5.92688737 25.17787365 1.71877175 0.00169117 0.00895366 0.00237992
C -2.14614873 20.70254742 4.46176820 -0.00280793 0.00004163 0.00571567
C 5.32423191 22.02584018 4.71831135 0.00037598 -0.00391948 0.00529037
C 11.38205427 27.05941523 1.26025304 -0.00066130 -0.00044696 0.00160178
C 4.94070203 26.05539633 1.22269510 -0.00568096 -0.00033254 0.00145429
C -1.15627710 21.47514949 4.97740942 0.00209619 -0.00346064 0.00109755
C 5.17939674 21.22418349 5.83633784 -0.00171557 0.00563548 -0.00755186
C 11.54877114 26.20279199 0.13712835 0.00078798 -0.00486807 -0.00476946
C 5.13958549 26.94115694 0.13392751 -0.00463401 0.00616609 -0.00446445
C -1.35532073 22.14658399 6.20606448 0.00653461 -0.00538050 0.00089329
C 6.86006549 21.30160182 0.31745335 -0.00380125 0.00063071 -0.00394057
C 10.09346166 26.15731114 5.72187300 -0.00710964 0.00967860 -0.00063866
C 3.09900012 26.91846606 5.54743472 -0.00045836 0.00069308 0.01358756
C 0.42775626 22.18248013 0.59006408 0.00830380 -0.00475548 0.00758945
C -6.15439266 22.13967352 24.41049197 0.00624382 0.00492856 -0.00302322
C -2.58329619 27.01432069 5.99361876 -0.00424689 0.00244271 0.00752726
C 4.16895593 26.08479964 5.93520499 0.00904981 -0.00283933 -0.00614786
C 12.75830047 21.38729735 0.04881360 -0.00211521 -0.00283553 0.00254959
C 1.83896877 24.29224155 3.63702140 -0.01077984 -0.00273896 -0.00242546
C 1.79055627 19.66233542 2.53783020 -0.00098298 0.00101068 -0.00325944
C 8.33720628 23.72063495 2.64655086 0.00089566 -0.00072330 -0.00297146
C 8.54786130 28.56381554 3.63178800 -0.00614874 -0.00046971 -0.00085561
C 0.40154630 24.80733349 3.48830309 0.00477009 0.00062195 0.00272809
C 3.04153948 20.43505785 2.59771129 0.00251037 -0.00391102 -0.00373172
C 9.52617561 22.86649629 2.82530910 -0.00062907 -0.00274321 0.00530331
C 7.67456254 27.39603034 3.52723671 0.00195529 0.00243236 -0.00195810
C -0.05583259 22.88578532 10.98099910 0.00076187 0.00254262 -0.00312752
C -2.73297979 27.89370294 7.03868745 -0.00606679 0.00784528 -0.00132085
C 4.00904149 25.25675415 7.06316838 0.00157261 0.00635361 0.00179729
C 6.60543674 20.45948838 11.32121880 0.00225468 0.00633461 0.00029113
C 1.16042685 22.74808690 10.33911285 -0.00526113 -0.00276650 0.01345936
C 9.38739468 27.77823685 7.88961612 0.00644668 0.00170327 -0.00249938
C 2.83730756 25.43833575 7.82127343 -0.00256005 0.00822044 0.00494785
C 34.22720498 20.12724267 10.64108713 -0.00667288 0.00402275 -0.00630476
C 2.10284946 21.86380551 10.77313917 0.00351557 -0.00521877 -0.00520747
C 8.52029528 26.83483903 7.49515890 -0.00436530 -0.00329854 -0.00200605
C 1.77854110 26.29694137 7.43973458 0.00167420 -0.00204676 0.00502150
C -4.37203648 20.99876036 10.95723239 0.00037161 0.00287932 -0.00190690
C 1.89866745 20.98813339 11.86962396 -0.00074768 -0.00206494 -0.00890578
C 8.86540808 25.98159783 6.43430984 0.00012261 -0.00314857 -0.00465798
C 1.88033095 27.08686828 6.31056833 -0.00001596 0.00894183 -0.00111558
C -4.58895808 21.88041246 12.03396739 -0.00011882 0.01080296 -0.00894853
C 3.98177851 21.17828450 6.52544426 0.00041730 0.00584702 0.00067719
C 6.82171919 25.91593778 11.81988908 0.00392790 -0.00015326 0.00168352
C 0.18686691 26.84460963 11.63302859 0.00700966 -0.00238506 -0.00783656
C -2.62874747 22.14615627 6.78611487 0.00371922 -0.00803013 -0.00022564
C 2.94029171 22.06258138 6.16552095 -0.00710273 0.00119405 -0.00095189
C -5.53564966 26.99844948 12.09698837 0.00049108 0.00104806 -0.00329299
C 1.16050686 25.92926238 11.90849096 -0.00424699 0.00007611 0.00156209
C 9.59784992 21.16681118 6.35479568 -0.00121120 0.00679292 -0.00331811
C -1.06472628 24.56018233 9.67522308 -0.01078666 0.00185805 0.00010387
C -1.14924171 19.28001784 8.54114806 0.00078132 -0.00076112 0.00443809
C 5.42758638 23.92470001 8.57104175 -0.00579287 -0.01390758 0.01270011
C 5.66323367 28.64072464 9.88932028 -0.00165094 -0.00349960 0.00541565
C -2.13164890 25.60402434 9.57524513 -0.00189885 0.00076351 0.00413173
C 0.08335056 20.05764517 8.59477741 -0.00562626 0.00281477 0.00523002
C 6.41784005 22.80745023 8.64686735 -0.00389647 -0.00196825 0.00209954
C 4.50157381 27.72597653 9.74087674 0.00484837 0.00074968 0.00679582
C -2.86128483 22.98013201 17.25825074 0.00511838 -0.00870707 -0.00396158
C -5.74506856 27.79885666 13.19950781 -0.00629875 0.00581800 0.00133828
C 0.96996097 24.97115876 12.88762911 -0.00440035 0.00516326 0.00178891
C 3.72094916 20.30119641 17.34353140 0.00186886 -0.00275395 0.00621341
C -1.68711249 22.80260177 16.52151591 0.00432688 0.00287154 -0.00841245
C 6.42100577 27.61689230 14.04127522 0.00006124 0.00529889 0.01012116
C -0.29943440 24.97340393 13.55326102 -0.00383113 0.00562282 -0.00537090
C 31.35495090 20.36504002 16.76639010 -0.00563129 -0.00415791 0.00394414
C -0.71013836 21.94778728 16.91567289 -0.00802092 0.00148520 0.00079467
C 5.47312782 26.75381343 13.63920912 0.00326093 0.00104441 0.00185522
C -1.25628786 25.94039555 13.33600022 -0.00149368 -0.00557417 -0.00282419
C -7.33841993 21.31609629 17.11042141 -0.00353449 0.00052632 0.00740374
C -0.82323592 21.28185756 18.14751165 -0.00146237 -0.00754870 0.00622377
C 5.58876225 25.92507603 12.45595977 0.00084723 -0.00481320 0.00515335
C -1.11823967 26.85404467 12.29011672 -0.00024601 0.00338418 0.00148293
C -7.61925538 22.16309372 18.18905819 0.00200517 0.00283073 -0.00125122
C 0.66649964 21.05273959 12.44977365 -0.00053393 -0.00289341 -0.00311650
C 3.78876677 26.13578759 17.64873046 0.00058766 0.00663292 0.00762614
C -2.88184882 26.87936187 17.64831454 0.00324692 -0.00590077 0.00060478
C -5.90331127 21.98771562 12.63549301 0.00364468 -0.00418325 -0.00542630
C -0.29769695 21.93825695 12.05534458 0.00949084 -0.00069529 -0.00166766
C -8.66518260 26.98442888 18.10916628 0.00075093 -0.00582272 0.00112259
C -1.79311825 26.09812825 18.01510859 0.00522794 0.00340579 0.00346486
C 6.41964478 21.20436273 12.41940439 -0.00019490 0.00111599 0.00030845
C -4.14156358 24.27246071 15.60337818 -0.00099662 0.00416012 -0.00090161
C -4.55062859 19.37811655 14.72701388 -0.00759858 -0.00308305 0.00037698
C 2.20926313 23.71625012 14.58735216 0.00421568 -0.00331758 -0.00875992
C 2.42671714 28.67177315 15.55933966 0.00373541 -0.00566555 0.00164670
C -5.41608813 25.11806930 15.53174936 0.00130439 -0.00426001 -0.00238228
C -3.46899056 20.36489870 14.91094391 -0.00716875 -0.00013888 0.00082172
C 3.37332565 22.81858290 14.76798672 -0.01029651 0.01003915 0.00275741
C 0.99204177 28.00677074 15.31916384 0.00279463 -0.00031877 0.00100502
C -5.93404143 23.03978193 23.34827140 0.00122922 0.00248234 0.00167602
C -8.80403823 27.70388912 19.34631550 0.00048395 -0.00118341 0.00192832
C -1.95143436 25.21067958 19.11714067 -0.00775523 -0.00372601 -0.00052654
C 0.89374039 20.56640299 23.44972188 -0.00275055 -0.00242111 0.00159072
C -4.69396711 23.06745154 22.75274290 -0.00744218 -0.00417488 -0.00427690
C 3.17162550 27.60753185 19.91546671 -0.00161181 -0.00117520 0.00788876
C -3.13249298 25.16836904 19.85266458 -0.00042893 -0.00609724 0.00221373
C -11.17461391 20.59909917 22.77746144 0.00484744 0.00337643 -0.00797834
C -3.74258123 22.12411386 23.00971263 0.00281215 -0.00147578 0.01098793
C 2.24540361 26.64064541 19.44997647 0.00098306 -0.00311113 -0.00079767
C -4.14295545 26.01910812 19.52901031 -0.00827234 -0.00299948 -0.00149703
C -10.27048553 21.49049002 23.19603095 -0.00027716 0.00200155 -0.00484971
C -3.96190134 21.14593436 24.05776100 0.00832451 -0.00101463 -0.00465247
C 2.55334878 25.94879898 18.24630236 -0.00263385 -0.00355527 -0.00942186
C -4.01672400 26.97207022 18.45074779 -0.00256979 0.00028722 0.00240661
C -10.41791755 22.27332099 24.37399263 -0.00010347 -0.00323762 0.00045401
C -2.03408405 21.42659540 18.86504134 -0.00055199 0.00114921 0.00326147
C 0.78392337 26.27241338 23.92344156 -0.00575586 -0.00679545 0.00383421
C -5.68529989 26.84798475 23.91944386 -0.00124603 0.00385777 0.00113507
C -8.76991513 21.94730239 18.93354066 0.00319048 0.00882452 -0.00302690
C -3.03035892 22.28756515 18.45317410 0.00453750 0.00282920 0.00250389
C -11.45458052 26.99793471 24.32008186 -0.00119779 0.00233644 -0.00532270
C -4.77439847 25.88127005 24.30083219 0.00567384 -0.00424809 0.00832995
C 3.49534336 21.19058327 18.42469446 -0.00013372 -0.00242005 0.00844375
C -7.25748812 24.42912953 21.92783471 -0.00040295 0.00282860 0.00167663
C -7.42326699 19.53673662 21.16219475 0.00219507 0.00470681 -0.00394467
C -0.60345087 23.94083167 20.76204382 0.00417344 -0.00507025 0.00403698
C -0.39025821 28.66136335 22.13181549 -0.00887673 0.00039243 -0.00330028
C -8.55704131 25.12295681 21.85094807 -0.00150177 0.00303480 0.00395841
C -6.13460968 20.24557071 21.30024388 0.00400816 0.00106332 0.00731945
C 0.40590587 22.85038382 20.73602400 0.00253172 0.01248231 0.00091847
C -1.54772843 27.68762988 22.05160429 0.00269951 -0.00679095 -0.00866187
C 16.34940200 3.82728712 5.17270784 0.00506191 -0.00188577 -0.00184459
C 13.59782970 8.52765618 0.84999223 -0.00138051 -0.00725169 0.00072259
C 20.44077934 5.89933393 0.80575970 -0.00090044 -0.00373853 -0.00095200
C 22.95696251 1.23815927 5.08655169 0.00302151 0.00758189 0.00029046
C 17.58874234 3.69849495 4.43091672 -0.00881210 -0.00464420 0.01140107
C 25.59526111 8.43811087 1.39162278 -0.00035673 -0.00020965 0.00235761
C 19.22650027 5.98979448 1.53357464 0.00443933 0.01114546 -0.00038470
C 10.86469397 1.22700351 4.47889452 -0.00720093 0.00235915 -0.00190042
C 18.51753800 2.77257692 4.77197389 -0.00605240 0.00308363 0.00185312
C 24.63365403 7.52418357 1.02990039 0.00102186 0.00053979 -0.00025998
C 18.15108895 6.70604929 1.03602542 0.00069484 0.00135825 0.00156090
C 11.89952205 2.03451568 4.80516509 0.00302450 0.00052904 -0.00387776
C 18.26861749 1.99898306 5.90915641 -0.00049645 0.00259862 0.00311195
C 12.88627503 6.66721524 24.44943283 -0.00867461 -0.00582698 -0.00190549
C 6.22389692 7.56812555 24.39343387 -0.00471232 0.00431455 -0.00054535
C 11.71831425 2.94078375 5.88976828 0.00316853 0.00259134 -0.00605724
C 20.34501193 2.09142358 0.53268794 -0.00274209 0.00651032 0.00178802
C 22.82783560 6.70267011 5.25399509 -0.00015973 0.00844314 0.00770224
C 16.52978679 7.62267255 5.69957186 0.00555821 -0.00217117 -0.00131882
C 13.77873363 2.83000348 0.56370718 0.00618469 -0.00075040 0.00314084
C 19.35657724 2.91324978 0.05575832 0.00145826 0.00239389 -0.00152803
C 10.87381888 7.65137990 6.04854952 -0.00225945 0.00215711 -0.00327890
C 17.43172458 6.64972513 6.06225344 -0.00038183 -0.00176564 0.00412320
C 13.50215028 2.00341513 24.43519222 -0.00143765 0.00155001 -0.00340945
C 15.14462126 5.19050141 3.53638632 0.00291813 0.00277263 -0.00413870
C 14.87962405 0.22257517 2.69060930 0.00037881 -0.00168353 0.00472145
C 21.50769506 4.44184192 2.42626627 -0.00240232 0.00102090 -0.00522155
C 21.62067946 9.25762264 3.24497925 -0.00032240 -0.00308166 -0.00908732
C 13.85215507 6.00972468 3.44761241 0.00451796 -0.00883563 -0.00028451
C 15.97162948 1.22897024 2.62822030 0.00727871 0.00466181 -0.00058426
C 22.75732572 3.65057483 2.70490856 0.00387924 -0.00051378 -0.00025647