2880
Time=43000.00000003 pbc="T T T" Lattice="39.54821002 0.00000000 0.00000000 0.00000000 29.14650187 0.00000000 -12.04397399 0.00000000 24.46656625" energy=-18397.95880663 virial="-10.01892619 -8.70175421 -24.37495083 -8.70175421 -47.81022192 2.23271933 -24.37495083 2.23271933 -72.64996599" stress="0.00210747 -0.00025540 -0.00086160 -0.00025540 0.00069026 0.00011247 -0.00086160 0.00011247 -0.00009717" Properties=species:S:1:pos:R:3:vel:R:3
C 3.03682743 3.91160642 5.25248346 0.00408088 0.00562148 0.00446219
C 0.31396421 8.71906954 1.06792607 0.00519249 -0.00217121 -0.00418428
C 6.92193525 6.08159548 1.06338858 0.00377812 0.00061062 0.00026349
C 9.72214302 1.02434931 5.24568430 0.00024149 -0.00241817 0.00300669
C 4.22123484 3.74277044 4.54591250 -0.00262994 0.00055203 0.00452771
C 12.65971222 8.25344424 1.93851923 0.00288416 0.00155311 -0.00099103
C 5.72651759 6.27245558 1.78718651 -0.00841592 -0.00620951 0.00051583
C 37.27150733 1.23852298 4.59309306 0.00620444 -0.00316152 0.00735685
C 5.18398077 2.73375658 4.88002404 -0.00765648 0.00473297 0.00538727
C 11.70975622 7.34647843 1.52552099 -0.00269317 -0.00190137 0.01020240
C 4.69800562 7.11870505 1.32099108 0.00422873 -0.00258063 0.00515226
C -1.31386174 2.17488845 4.98029547 0.00068032 -0.00024008 -0.00091974
C 4.87580005 1.87502635 5.94209643 -0.00054710 -0.01010801 -0.00339111
C 11.93918437 6.52711019 0.40405873 0.00122066 -0.00060570 -0.00026577
C 4.90381164 7.87028943 0.16552468 0.00527792 -0.00018599 -0.00023319
C -1.41649113 2.80319908 6.24206901 -0.00232243 -0.00283404 -0.00694451
C 6.81490273 2.22369170 0.55226524 0.00373350 0.00098092 -0.00026187
C 9.84587942 6.70531366 5.66060510 -0.00329166 -0.00339286 -0.00473261
C 3.32964285 7.82160710 5.77286262 -0.00104262 -0.00128040 0.00686996
C 0.54803779 2.75849956 0.66175999 -0.00036761 -0.00254525 -0.00263683
C 5.82162441 3.05555218 0.09317137 0.00610613 0.00560139 0.00672831
C -2.32452905 7.94632540 6.24716104 -0.00035537 -0.00843058 0.00233253
C 4.38609260 7.00114798 6.17896161 -0.00171954 -0.00479339 -0.00458339
C 12.54292681 1.88047742 0.21593516 -0.00633966 0.00994156 -0.00077817
C 1.84918615 5.16998621 3.62469543 -0.00317919 0.00089515 0.00000126
C 1.61226675 0.14220474 2.58884205 -0.00034975 -0.00089962 0.00261654
C 8.03036997 4.72440196 2.64925538 0.00672092 -0.00312736 -0.00178279
C 8.67508955 9.45554943 3.34737378 0.00228723 0.00310179 0.00414085
C 0.67185922 6.06296829 3.37819151 0.00944642 0.00258741 0.01152879
C 2.90827368 0.93472432 2.83998666 -0.00137077 -0.00109331 0.00065311
C 9.04911760 3.68139307 2.85517321 -0.00510960 -0.00075338 -0.00074304
C 7.30612247 9.00971640 3.02601849 0.00132399 0.00095204 0.00786253
C 0.30494829 3.86047545 11.50691929 -0.00784490 -0.00646903 -0.00111846
C -2.69470341 8.68987046 7.34572831 -0.00508141 -0.00101552 -0.00251412
C 4.15183389 6.01978579 7.14242968 0.00700672 0.00245225 0.00757729
C 6.68268710 1.22709660 11.13801582 -0.00209697 0.00163649 0.00083483
C 1.49144494 3.78400297 10.79005838 -0.00402768 -0.00249001 -0.00532812
C 9.50946433 8.49396608 7.85967089 -0.00516406 -0.00939250 0.00265606
C 2.89947451 6.09276958 7.81019168 0.00015332 -0.00107195 -0.00140364
C -4.90351199 1.33533450 10.88435471 -0.00293443 -0.00295789 -0.00359912
C 2.46708758 2.84662081 11.19805249 -0.00701511 -0.00348899 0.00689886
C 8.55850986 7.57379277 7.50605791 0.00019302 0.00187376 0.00243348
C 1.86068971 6.93891601 7.48867700 -0.00509040 0.00738703 0.00089492
C -3.87775489 2.10774404 11.37698185 -0.00390943 -0.00048511 0.00341930
C 2.26552608 2.01834575 12.30658893 -0.00069574 -0.00623782 -0.00780240
C 8.69530201 6.73317070 6.41690417 -0.00133616 -0.00184788 -0.00120342
C 2.16756759 7.83681430 6.45480643 -0.00506952 -0.00336340 -0.00237310
C -4.22883192 2.96457181 12.38856769 0.01093488 -0.00148297 -0.00591837
C 3.63030545 2.13166758 6.70272937 -0.00071829 -0.00214103 0.00262666
C 6.96035268 6.97740005 11.79393067 0.00236214 -0.01004089 0.00739445
C 0.20436880 7.82950877 11.79031618 0.00199938 -0.00309215 -0.00446345
C -2.67296620 2.74503372 6.86926875 -0.00054384 -0.00523674 0.00009081
C 2.78122329 3.12859950 6.34043501 -0.00749019 0.00674754 -0.00055482
C -5.29539753 7.60805176 12.19267412 0.00157605 -0.00041685 0.00614161
C 1.23446323 7.01478470 12.27776500 -0.00428868 0.00615058 -0.00478298
C 9.51557743 1.95842014 6.22736448 0.00220216 0.00116811 -0.01309023
C -0.95416770 5.21379474 9.93449572 0.00152344 -0.00283772 0.00204682
C -1.23238607 0.41330303 8.94904344 0.00598092 0.00182076 0.00373973
C 5.39935115 4.50401342 8.54019011 0.00459831 0.00306228 -0.00367080
C 5.39071668 9.50643965 9.95105435 0.00153368 0.00810848 -0.00083508
C -2.25209194 6.02234842 9.82004462 0.00450532 0.00481675 0.00090344
C 0.11080276 0.99203858 9.15318479 0.00844971 0.00666200 -0.00215902
C 6.61752824 3.63736598 8.48117462 0.00248917 -0.00164166 -0.00176734
C 4.08865396 8.88779011 9.96426849 -0.00007276 -0.00058018 -0.00434623
C -2.80598237 3.50596818 17.60673878 -0.00134573 -0.00042999 0.00032017
C -5.72463810 8.47503204 13.21976825 0.00347336 -0.00587716 -0.00480223
C 1.07736134 6.09411255 13.34311649 0.00256454 -0.00292203 0.00583996
C 3.68432724 1.21231336 17.30468690 0.00773438 -0.00284423 -0.00283443
C -1.58257014 3.49033997 16.89869647 0.00615094 0.00168602 0.00101729
C 6.33776755 8.53426581 13.97234723 -0.00465390 0.00888512 -0.00503857
C -0.08606934 6.17520561 14.11206489 0.00195881 -0.00270876 -0.00147608
C 31.26994596 1.43614829 16.76781629 -0.00109785 0.00297786 -0.00144883
C -0.53044882 2.69939569 17.35915186 0.00180559 -0.00359340 -0.00001921
C 5.33245232 7.75956693 13.50351178 0.00302275 -0.00620748 -0.00607270
C -1.09881786 7.04792661 13.67946915 0.00284726 -0.00280733 -0.00071351
C -7.37474307 2.34484971 17.20742420 -0.00201381 0.00059977 -0.00280303
C -0.65078840 1.80678012 18.39786843 -0.01032280 0.00552212 -0.00786549
C 5.66186368 6.91532907 12.40314475 -0.00418188 -0.00286286 -0.00040238
C -1.01199519 7.81986318 12.49199885 -0.00004864 -0.00231772 0.00029028
C -7.71929285 3.03442025 18.40020337 -0.00004841 0.00237006 -0.00638471
C 1.04867342 2.13185070 13.02598427 -0.00837966 0.00108822 -0.00074038
C 3.83573970 6.88979150 17.79833581 0.00700387 -0.00275123 0.00187113
C -2.61144750 7.64660022 18.05330404 0.00079206 0.00816433 0.00445787
C -5.49225456 2.96417783 12.94992766 -0.01135554 0.00191630 0.00256120
C 0.08684224 3.03926154 12.66783831 -0.00496995 -0.00079877 0.00019597
C -8.41783381 7.72092409 18.36792993 -0.00135741 -0.00256404 -0.00274716
C -1.75573803 6.65401721 18.42220089 -0.01190932 0.00360001 0.00029643
C 6.48515270 2.11380053 12.15868750 -0.00322945 0.00220332 -0.00437873
C -4.07239903 5.07401404 16.19075428 0.00448817 0.00073953 0.00445589
C -4.25214577 0.36786221 15.12250611 0.00201578 -0.00201687 -0.00514121
C 2.38619529 4.70571915 14.98724039 0.00577882 -0.00173593 0.00749608
C 2.50485642 9.57051903 15.76606591 0.00201437 0.00195064 -0.00103820
C -5.19826044 5.98746883 16.25027312 -0.00023424 -0.00092553 0.00193049
C -2.88056185 0.96115162 15.40527081 -0.00053112 0.00018970 -0.00267938
C 3.63955814 3.95289346 15.20977141 -0.00101793 0.00011945 0.00239124
C 1.50063292 8.45498407 15.61030859 0.00236467 -0.00157972 -0.00143528
C -6.00843909 3.85506889 23.45056147 0.00043628 -0.00401419 -0.00460617
C -8.67167062 8.61479121 19.45056589 -0.00551383 -0.00154355 -0.00533828
C -2.00373311 5.80878048 19.54762056 -0.00213174 -0.00075741 -0.00128013
C 0.70100796 0.99392371 23.62718808 -0.00359063 -0.00605900 0.00320152
C -4.75761113 3.77478164 22.74547001 0.00038514 -0.00305498 0.00313592
C 3.41892540 8.56986890 19.97810722 -0.00070691 0.00170904 0.00207983
C -3.18088839 5.98276525 20.28574362 -0.00026467 -0.00557858 0.00498284
C -11.17214779 1.33670604 22.82368853 -0.00265574 -0.00483232 -0.00571371
C -3.80214283 2.83624923 23.15769660 -0.00621177 0.00352956 -0.00151011
C 2.45638154 7.74597676 19.53271548 -0.01026012 -0.00054164 0.00195751
C -4.12097070 6.91373911 19.83314179 -0.00183723 0.00991530 0.00577268
C -10.14143640 2.12198775 23.27683949 -0.00520640 -0.00410530 -0.00247692
C -4.03251054 2.10165047 24.34131286 -0.00190919 0.00480406 0.00276232
C 2.54669001 6.91639978 18.38969998 0.00285247 0.00508056 0.00351346
C -3.90463846 7.67795683 18.66370333 0.00013380 -0.00820493 -0.00420148
C -10.28462348 2.87932343 24.42148538 0.00262043 0.00269773 -0.00338783
C -1.96692807 1.83047344 19.06120714 -0.00022221 -0.00485232 -0.00595796
C 1.07704323 6.73890411 24.14677433 0.00267112 0.00154987 0.00398122
C -5.96299566 7.67700931 23.90968798 -0.01056848 0.00440939 -0.00752781
C -8.89307681 2.84480911 19.06108887 0.00499158 0.00018005 -0.00256398
C -2.99241426 2.68447762 18.71770005 0.00059393 0.00262086 -0.00555168
C -11.51306814 7.91430860 24.40664331 0.00435149 0.00722074 -0.00161436
C -5.00694170 6.81944401 24.29795032 0.00850066 0.00068810 0.00159039
C 3.58783224 1.97269258 18.50265321 -0.00186081 -0.00421390 -0.00564302
C -7.14889984 5.25613173 21.88167368 -0.00485996 -0.00511697 -0.00041796
C -7.13953860 0.15959411 20.84032564 -0.00012763 0.00427577 0.00331724
C -0.52381865 4.49509261 20.86554781 -0.00739770 -0.00749558 0.00126617
C -0.62811718 9.42721824 22.21631926 0.00151819 0.00114010 -0.00446559
C -8.31655461 6.15914961 21.70023700 -0.00212072 0.00683602 -0.00088145
C -5.77455049 0.87660893 20.90760368 -0.00341257 -0.00675067 0.00179845
C 0.67166704 3.59154426 20.81221043 0.00148504 -0.00570242 0.00200820
C -1.77078009 8.47774129 22.23532254 -0.00255730 0.00335847 0.00934627
C 3.27023953 13.34500457 5.28317877 0.00343671 -0.00000390 -0.00161688
C 0.28593990 18.29220913 0.90968623 -0.00034595 -0.00052391 0.00155086
C 6.95642615 15.68700048 1.08471194 -0.00087310 0.00846043 -0.00012494
C 9.89272337 10.59946561 5.05864868 -0.00539158 -0.00385552 -0.00058322
C 4.45716780 13.21683937 4.60241815 -0.00385698 -0.00245904 0.00193861
C 12.39954604 18.09548117 1.48786791 0.00293542 -0.00096578 0.00395854
C 5.72031307 15.72051003 1.74169034 -0.00438437 0.00202442 0.00304483
C -2.21345493 10.97540609 4.50281378 -0.00349664 0.00216303 0.00310728
C 5.41743437 12.33655761 5.02417018 0.00125839 0.00728163 -0.00604950
C 11.41509204 17.20326782 1.18675442 -0.01050724 -0.00412420 0.00397910
C 4.74830513 16.56897237 1.26539285 0.00078849 -0.00199656 0.00306472
C -1.19042816 11.84475598 4.91716693 -0.00042087 0.00166603 0.00459701
C 5.22477129 11.60953889 6.23052117 -0.00207904 0.00086167 0.00504913
C 11.54831267 16.35595412 0.03234799 -0.00833636 0.00158300 0.00459095
C 4.92745124 17.44594842 0.16308042 0.00250228 0.00149391 -0.00016654
C -1.39431094 12.63666015 6.08936145 -0.00351469 -0.00389727 -0.00567768
C 6.86877384 11.65301973 0.76977970 0.00295982 0.00127742 -0.00285734
C 9.97613952 16.57627430 5.57394088 -0.00493418 -0.00025129 -0.00276758
C 3.46383020 17.28003743 5.38918172 0.00045317 -0.00234628 -0.00833301
C 0.31197745 12.88701354 0.53459032 0.00473346 -0.00553797 -0.00105156
C 5.89014069 12.55318883 0.46510781 -0.00057917 -0.00321383 -0.00347276
C -2.39663786 17.50491475 5.81625269 0.00465260 -0.00357926 -0.00244547
C 4.42868857 16.44388851 5.84332188 -0.00434637 -0.00172686 -0.00494362
C 12.61193289 11.70383607 0.21029542 0.00739437 -0.00440639 0.00141311
C 2.18882276 14.85075394 3.69985879 -0.00016541 0.00362704 -0.00275511
C 1.48015903 10.11165852 2.64791570 -0.00161170 -0.00369340 -0.00014135
C 8.14839267 14.35783538 2.70000132 0.00369029 0.00623094 -0.00345959
C 8.68909164 18.87455112 3.41659302 -0.00450832 -0.00014794 0.00084750
C 1.20056979 15.94673443 3.63544018 0.00494107 0.00166678 -0.00505981
C 2.56215395 11.06608343 2.85679328 0.00660116 -0.00286749 -0.00214782
C 9.38707736 13.53100029 2.93977470 0.00301615 0.00192304 0.00129785
C 7.62446019 17.87242833 3.41008352 0.00391908 0.00444753 -0.00482540
C 0.11392176 13.47955292 11.39591113 0.00040408 -0.00172287 -0.00539162
C -2.55749948 18.24344828 7.06525148 0.00995093 0.00825222 0.00270442
C 4.32248325 15.70509451 7.02462387 -0.00255288 0.00271332 -0.00511035
C 6.78575734 10.85421328 11.32390810 0.00105673 -0.00276343 -0.00114284
C 1.31984637 13.50162521 10.73908003 -0.00182324 -0.00634706 -0.00389276
C 9.38410580 18.18641412 7.79987555 0.00054779 0.00569761 -0.00166694
C 3.08427883 15.75091798 7.68355897 -0.00224929 0.00750393 -0.00710880
C -5.19030166 10.95884214 10.55374141 -0.00714216 0.00027222 -0.00591138
C 2.39716888 12.72197467 11.06959330 0.00279612 0.00199077 0.00856067
C 8.49819217 17.23263110 7.41161030 0.00785156 0.00271986 0.00072178
C 2.11938498 16.60970945 7.29357365 -0.00285455 0.00078543 -0.00392807
C -4.16116213 11.72131441 11.03684994 -0.00351182 0.00327506 -0.00059434
C 2.28531456 11.92508579 12.21362337 0.00009158 0.00138471 0.00570437
C 8.74387377 16.39932671 6.33997307 -0.00007262 -0.00054579 -0.00411937
C 2.33276877 17.52562811 6.19003028 -0.00326790 -0.00264535 0.00471814
C -4.39540051 12.55231011 12.16487867 0.00176278 -0.00144303 -0.00230720
C 4.05284821 11.78564788 7.03006897 -0.00924029 -0.00153230 0.00442706
C 6.84211717 16.48599761 11.70285493 0.00065359 -0.00146539 0.00308962
C 0.19633869 17.39263056 11.65047942 -0.00001122 0.00150245 0.01598917
C -2.60620899 12.58074806 6.73691885 0.00237733 0.00592930 -0.00517852
C 3.10404579 12.61135857 6.48870437 0.00436220 -0.00099651 -0.00287101
C -5.53243923 17.69384267 11.65599374 0.00721272 -0.00183294 -0.00161975
C 1.26484227 16.64127600 12.15142487 0.00210884 0.00197807 0.00111842
C 9.69627976 11.31411379 6.25662919 0.00987712 -0.00007925 0.00357029
C -1.26638805 14.88110198 9.87358590 0.00060923 0.00077897 0.00284633
C -1.51640421 10.11772510 8.88842751 0.00425391 0.00621377 -0.00242403
C 5.48931799 14.29071122 8.58262134 -0.00684448 -0.00079443 0.00116943
C 5.46623211 19.01148734 9.71802593 0.00202812 0.00038976 -0.00671397
C -2.60356266 15.63260542 9.75805235 0.00064271 -0.00692473 -0.00119130
C -0.30450440 11.07016628 8.92311359 0.00670106 -0.00539576 -0.00067839
C 6.54252932 13.27920554 8.86325536 0.00493397 -0.00724162 0.00139554
C 4.19653000 18.07818916 9.65147348 -0.00271254 -0.01472948 -0.00480160
C -2.90998898 13.27820429 17.57219335 0.00269850 0.00037364 -0.00182331
C -5.58173374 18.47054427 12.85890502 0.00210536 0.00822259 0.00517743
C 1.06188612 15.73816493 13.18678487 0.00135635 -0.00118305 -0.00330172
C 3.71630140 10.80982362 17.48521067 -0.00440594 -0.00041854 0.00846218
C -1.67773182 13.26649109 16.87229072 0.00016278 0.00058135 -0.00020767
C 6.45479053 18.04040867 13.99419855 -0.01017537 -0.00354570 -0.00478863
C -0.16385842 15.81457866 13.77945556 0.00027168 0.00248754 0.00381193
C -8.03595346 10.76293743 16.74228649 0.00506882 -0.00088422 -0.00120267
C -0.69144801 12.34752299 17.16809839 0.00060208 0.00095963 -0.00163888
C 5.43629729 17.08112253 13.60648644 0.00798431 0.00514354 0.00474285
C -1.20500247 16.70242041 13.41111258 0.00436366 0.00145895 0.00612328
C -7.08933657 11.61917136 17.18773220 -0.00263409 -0.00329248 -0.00336998
C -0.79384725 11.63732184 18.37955945 0.00547048 -0.00621878 -0.00318861
C 5.62892854 16.38457839 12.42455687 -0.00070630 0.00270358 -0.00076779
C -1.09551247 17.42780154 12.18977568 -0.01062952 0.00145442 0.00315154
C -7.35731117 12.48429521 18.33477690 -0.00031129 0.00260700 0.00343866
C 1.03294016 11.89070949 13.01244458 -0.01073096 -0.00165340 0.00819464
C 3.46412458 16.37672273 17.67307013 0.00067269 0.00013927 -0.00197611
C -2.98523514 17.13901463 17.69257716 -0.00502990 -0.00035760 0.00366883
C -5.70009268 12.39774978 12.80138119 -0.00191574 -0.00419713 0.00125256
C 0.00339991 12.59962425 12.48429422 -0.00938877 -0.00065968 -0.00185383
C -8.25792305 17.43844733 18.23272950 -0.00445147 0.00157653 -0.00020866
C -2.01771026 16.26303728 18.16496301 -0.00634161 -0.00378530 0.00236386
C 6.67623920 11.73715560 12.42639778 -0.00684381 -0.00295037 0.00523572
C -4.17904918 14.55961844 15.92087189 -0.00688115 0.00522548 0.00152808
C -4.49688907 9.85818509 14.87792010 -0.00298952 0.00219296 0.00108567
C 2.14870693 14.37784553 14.83121991 0.00202288 -0.00597780 0.00283894
C 2.11883438 19.24947840 15.66721305 -0.00356234 0.00329092 -0.00262303
C -5.50255199 15.29601426 15.56815339 0.00070273 -0.00684850 0.00552868
C -3.36147620 10.78037790 14.96137412 -0.00122348 -0.00278199 -0.00289640
C 3.42822747 13.55254776 15.01812343 0.00032267 0.00596118 0.00406347
C 0.85175520 18.44555343 15.76593998 -0.00353625 0.00357124 -0.00148880
C -5.89279099 13.39640265 23.83947699 -0.00536703 0.00222832 -0.00125537
C -8.47163852 18.26599002 19.32094715 -0.00429557 0.00303300 -0.00336321
C -2.15562099 15.52469847 19.38668974 -0.00217565 0.00521505 -0.00293013
C 0.65896269 10.76333665 23.60329858 0.00212281 -0.00278911 0.00335178
C -4.69044644 13.31705262 23.11607277 -0.00044111 0.00612013 -0.00145421
C 3.15993574 18.21131442 19.69142282 -0.00317743 -0.00735137 -0.00540798
C -3.44246946 15.75682260 19.94056966 -0.00390400 -0.00680166 -0.00097680
C -11.10432658 11.13123349 22.88475625 -0.00816908 0.00014331 0.00123956
C -3.82257205 12.29298703 23.32735907 0.00496764 -0.00214901 0.00138236
C 2.17380357 17.26647936 19.46210455 0.00468409 0.00169161 0.00333852
C -4.40162567 16.60800739 19.47563649 -0.00524266 -0.00027807 0.00075887
C -10.30414654 12.18071193 23.14638034 0.00333144 -0.00977743 -0.00751511
C -4.04295893 11.39679779 24.42036489 -0.00006908 -0.00332965 0.00041442
C 2.21494695 16.39203955 18.34671621 -0.00040825 -0.00291898 0.00364932
C -4.22903117 17.29716367 18.23365997 0.00371057 -0.00318938 0.00201505
C -10.49983608 12.96112940 24.30490760 0.00290928 -0.00419422 0.00146534
C -1.99576580 11.70143650 19.05525261 0.00741346 -0.00736660 -0.00395600
C 0.76930473 16.40430517 23.82896032 0.00052225 0.00821186 0.00359848
C -5.92536580 17.27105587 23.93809459 0.00009971 0.00703660 0.00058439
C -8.63069754 12.38736097 18.84073487 0.00087319 -0.00420415 0.00248612
C -3.11361362 12.40117986 18.66825245 0.00000966 -0.00524601 0.00394964
C -11.57608899 17.57810005 24.18550088 0.00687233 -0.00046983 -0.00713025
C -4.89781021 16.48374216 24.42214438 0.00140697 0.00224584 -0.00310319
C 3.53707027 11.64351665 18.56836513 0.00162691 -0.00154398 0.00010394
C -7.04939787 14.96334419 22.34382542 0.00201562 0.00929287 -0.00904615
C -7.48422500 9.94536203 21.12993125 -0.00557095 -0.00321442 -0.00500462
C -1.21430683 14.18376821 21.07776327 -0.00499016 0.00340850 0.00512401
C -0.38627455 18.89473147 21.74749599 0.00776131 -0.00481191 0.00275129
C -8.37731581 15.58294595 22.01869776 0.00442942 0.00646661 0.00032857
C -6.30087878 10.75151284 21.57245412 0.00439239 -0.00121843 -0.00075328
C -0.11474717 13.23901162 21.49231443 0.00134667 -0.01016767 0.00538636
C -1.52972149 17.93024366 21.58301431 -0.00192722 -0.00300642 0.00290838
C 3.13898986 22.99113134 5.03598321 -0.00555969 0.00062503 -0.00865343
C 0.36189566 28.09847417 0.98020895 -0.00031130 -0.00314668 0.00039623
C 7.08709869 25.36512451 1.10558511 -0.00372124 0.00469387 -0.00089082
C 9.83309509 20.44936991 4.85018736 -0.00584181 -0.00059906 0.00223713
C 4.35541993 22.88550870 4.36660395 0.00337385 0.00392170 0.00036072
C 12.29853499 28.06334440 1.54916336 0.00100138 -0.00034088 -0.00435265
C 5.77525153 25.40857495 1.71266088 0.00600553 -0.00090540 0.00102826
C 37.26455246 20.75490118 4.44294642 0.00583961 0.00609634 0.00717259
C 5.32579041 22.02408976 4.79860514 0.00390367 -0.00999402 0.00233978
C 11.27750283 27.26373636 1.13424293 -0.00627444 0.00235202 -0.00109533
C 4.82355790 26.23559335 1.15150811 0.00119381 -0.00128191 0.00531286
C -1.17258138 21.44390577 4.81820341 -0.00065536 0.00326905 0.00369303
C 5.18325824 21.30366092 5.95468638 0.00034154 0.00335774 -0.00032313
C -0.66821008 26.46940719 24.43327963 0.00966860 -0.00504040 0.00134796
C 5.05314233 27.09517341 0.07216668 -0.00311336 0.00039008 0.00185119
C -1.23399957 22.12900265 6.04508161 -0.00086343 -0.00251367 0.00728024
C 6.96531561 21.30185873 0.39019471 -0.00386400 -0.00457959 -0.00070953
C 9.88570241 26.26945069 5.64916200 -0.00295467 -0.00145422 -0.00575470
C 3.26111152 26.87299898 5.42512774 0.00090094 0.00015615 0.00161719
C 0.39805105 22.37607189 0.59529803 -0.00195883 -0.00278509 -0.00254540
C 6.06354297 22.26783494 0.07766023 0.00275658 -0.00522489 -0.00495297
C -2.29693339 27.33128550 6.29360215 -0.00081605 0.00034453 0.00057746
C 4.28956984 26.02311880 5.86296217 -0.00474072 0.00449906 0.00195192
C 0.36883322 21.31305799 24.34869842 -0.00511317 0.00008500 -0.00543680
C 2.00298184 24.52660561 3.52969529 -0.00049314 -0.00348513 0.01010569
C 1.42869256 19.49436544 2.69969951 -0.00034224 -0.00016984 -0.00730316
C 8.15775097 23.80278943 2.49209094 0.00603733 -0.00382238 0.00391759
C 8.39698773 29.00920995 3.58305312 -0.00292914 -0.00721013 -0.00290514
C 0.72298031 25.38461435 3.48290047 0.00562434 0.01044793 -0.00371323
C 2.63393355 20.35979752 2.90872645 -0.00195726 0.00390976 -0.00009151
C 9.28591164 22.86683416 2.72896979 0.00049510 0.00065003 -0.00132291
C 7.12821746 28.25510139 3.27507106 0.00468886 -0.00219379 -0.01165851
C -0.00495653 23.11509973 11.28960143 0.00055661 -0.00195686 -0.00281999
C -2.47432680 28.20781067 7.43238831 0.00464664 0.00622602 -0.00393928
C 4.00096434 25.16727532 6.85820174 -0.00451392 0.00042049 -0.00520123
C 6.82296942 20.41671049 11.24701600 -0.00873858 -0.00518729 -0.00471506
C 1.13815307 23.06467083 10.52787708 0.00046653 -0.00497092 0.00135885
C 9.40612327 27.77980654 7.89017281 -0.00075903 0.00141971 -0.00781722
C 2.70410219 25.14012935 7.52659949 0.00327189 0.00060765 -0.00304323
C 34.16243423 20.72607942 10.52613348 0.00288734 0.00793151 0.00246344
C 2.19941744 22.26970440 10.89295048 -0.00120558 0.00336730 -0.00417474
C 8.41561211 27.00578802 7.38473717 -0.00087536 -0.00416436 -0.00507281
C 1.79390535 26.04194757 7.13993170 -0.00337520 -0.00803683 0.01181035
C -4.44968619 21.63536369 10.97768019 -0.00764735 0.00489994 0.00328570
C 2.14728945 21.44301341 12.02607327 0.00277404 0.00143281 -0.00402266
C 8.58081100 26.24389860 6.20596189 -0.00374913 0.00321620 0.00431113
C 2.00230637 26.91790402 6.03678798 -0.00497112 0.00798882 -0.00611766
C -4.65317609 22.46974891 12.04675955 0.00411553 0.00359738 -0.00104690
C 3.89282901 21.31624478 6.62123922 -0.00228960 -0.00189960 -0.00278805
C 6.83826040 26.23814519 11.44153699 0.00525158 0.00552476 -0.00365992
C 0.09264328 27.27486153 11.41942995 -0.00091805 0.00523272 0.00466729
C -2.46982223 22.20803662 6.70853934 0.00342071 0.00456195 0.00487042
C 2.95342813 22.18960775 6.16875578 0.00009637 0.00125326 0.01260862
C -5.37587896 27.33255680 12.31408902 -0.00039297 -0.00327071 0.00502144
C 1.07963433 26.40613345 11.76823022 -0.00205649 0.00314039 0.00108516
C 9.54921603 21.30306408 6.01955896 0.00141775 -0.00076258 0.00398272
C -1.40924546 24.43314043 9.80557417 -0.00323243 -0.00146063 0.00206455
C -1.37484801 19.55426015 8.66929686 0.00270265 -0.00426034 -0.00267109
C 5.19062843 23.69919465 8.39742821 -0.00180542 -0.00723381 -0.00385657
C 5.64190327 28.99991035 9.53204396 0.00150308 -0.00040243 0.00057348
C -2.58856902 25.38306547 9.72299029 0.00849118 0.00227542 -0.00437677
C -0.02248283 20.17824480 8.95462715 0.00262146 0.00960665 0.00038346
C 6.39730176 22.78815316 8.52311461 -0.00047981 -0.00079494 0.00538897
C 4.58795090 27.90308458 9.33679966 0.00449592 -0.00057097 -0.00475207
C -3.00934310 23.00986845 17.36530926 -0.00799996 -0.00022587 -0.00434762
C -5.51003139 28.22517239 13.46288389 -0.00255194 0.00482762 -0.00108467
C 1.02509702 25.63084512 12.95345908 -0.00136614 -0.00857930 0.00306347
C 3.56795058 20.74898415 17.11513624 0.00086521 0.00323771 0.00826015
C -1.72991978 22.95484363 16.66602423 0.00474197 -0.00093116 -0.00164203
C 6.31955013 27.87802267 13.64696741 -0.01044849 -0.00273849 -0.00298027
C -0.08808952 25.77186255 13.83683771 0.00176001 -0.00531186 -0.00021104
C 31.14276961 20.52811484 16.68892258 -0.00298998 0.00710075 0.00459382
C -0.71976959 22.22301937 17.25577452 0.00477994 0.00062247 0.00500595
C 5.37624122 26.95701694 13.25453477 -0.00120343 0.00051909 -0.00544943
C -1.12220252 26.64395053 13.45229601 0.00339869 -0.00548986 -0.00042137
C -7.35852160 21.31215019 17.22282840 -0.00350211 -0.00118068 -0.00195217
C -0.90487800 21.47549528 18.41966214 -0.00422636 -0.00490009 0.00623199
C 5.52569305 26.14803102 12.05218617 -0.00456936 0.00031618 0.00754797
C -1.11468681 27.34954444 12.20192117 0.00295981 -0.00283259 0.01479678
C -7.47987391 21.98916831 18.40805966 -0.00837571 0.00766951 -0.00026297
C 1.01816156 21.62078961 12.86423632 0.00643020 -0.00513324 0.00059836
C 3.92915379 26.38374530 17.69424544 0.00055934 0.00115707 -0.00383747
C -3.06890129 26.83862915 17.39883495 -0.00127763 0.00563961 -0.00009016
C -5.80460609 22.16483623 12.82321220 0.00483300 -0.00001693 -0.00963105
C 0.02672137 22.44658693 12.50198354 -0.00087174 -0.00087712 0.00646307
C -8.60176379 27.26398919 18.15031874 0.01049254 0.00563733 0.00018063
C -1.99459192 26.02385619 17.84419698 0.00190545 -0.00206414 -0.00412661
C 6.54746480 21.33298297 12.25220057 0.00104772 0.00521620 -0.00579639
C -4.19927033 24.30017537 15.72410269 -0.00450186 0.00262504 -0.00095201
C -4.28850016 19.74280944 14.48427757 -0.00704695 0.00422226 0.00458620
C 2.30644902 24.13645211 14.43065226 0.00025838 0.00008587 0.00124227
C 2.77219745 28.76137348 15.73091959 0.00180045 -0.00573497 -0.00152195
C -5.57196006 25.00871665 15.60080792 0.00011864 -0.00002505 0.00708140
C -3.21396619 20.71786598 14.73474749 -0.00907202 -0.00368463 0.00167496
C 3.54946158 23.26087962 14.55312472 0.00501128 0.00321926 0.00035892
C 1.70909476 27.80538403 15.45277097 0.00638013 -0.00427349 0.00133103
C -5.72928176 23.21138559 23.52344943 0.00043811 -0.00434022 0.00105121
C -8.69538108 28.04520421 19.34144530 -0.00076571 0.00545422 -0.00306677
C -2.10707800 25.28845170 19.00971593 0.00117466 -0.00502630 0.00070607
C 0.62999867 20.39309507 23.28344693 0.00560361 0.00859591 0.00358112
C -4.44771672 23.17204992 22.89354622 -0.00532619 0.00573181 0.00386055
C 3.18444060 28.17285299 19.82912252 -0.00565915 0.00104829 0.00117931
C -3.24689599 25.43248669 19.82823364 0.00365428 -0.00669262 -0.00695042
C 28.18709985 20.56717078 22.97961064 -0.00417750 -0.00181062 0.00095667
C -3.42891772 22.31686089 23.32640080 0.00315701 0.00119461 0.00745240
C 2.32988360 27.19527824 19.38684029 -0.01134421 -0.00145942 0.00217187
C -4.26521236 26.30714925 19.41829252 -0.00554605 0.00014428 -0.00356246
C -10.22476654 21.22184660 23.45934009 -0.00048491 0.00357432 0.00120676
C -3.76146622 21.36430580 24.31494986 -0.00034262 0.00062880 0.00517402
C 2.64619962 26.32481473 18.29724873 0.00457903 0.00334299 -0.00012821
C -4.22048975 27.01910399 18.16617964 -0.00535499 0.00016860 -0.00082517
C 1.70249141 22.22947027 0.00700577 -0.00198918 -0.00079734 -0.00472659
C -2.13709379 21.50577544 19.03124059 -0.00740108 0.00232822 0.00220228
C 0.61606682 26.49902858 23.81007177 -0.00271317 0.00586106 -0.01043652
C -5.68401786 27.06600212 24.01760210 -0.00390779 -0.00006071 -0.00156860
C -8.69261235 21.92908827 19.11860643 0.00571443 0.00096874 -0.00359258
C -3.15772419 22.16957277 18.45155752 -0.00085413 -0.00610446 0.00566090
C -11.53736723 27.34882765 24.26593493 -0.00173964 -0.00245895 -0.00577385
C 7.34952535 26.29442588 0.12382487 -0.00188678 -0.00196666 -0.00088025
C 3.47245533 21.50232345 18.25693647 0.00232134 0.00466780 0.00507347
C -6.87674883 24.65911379 21.91675335 -0.00255415 -0.00666674 0.00410178
C -7.17995358 19.56955058 20.95080404 0.00639089 0.00314264 -0.00677791
C -0.83205753 24.11776810 20.73694336 0.00433085 -0.00537918 0.00073297
C -0.60163990 28.92584665 21.90901503 -0.00279881 -0.00378929 -0.00834300
C -7.99364087 25.66091028 21.72531728 0.00334571 -0.00107727 0.00013877
C -5.99950768 20.50034446 21.02341339 -0.00064989 0.00416441 -0.00033382
C 0.35818449 23.17767567 21.08362990 0.00049077 -0.00408489 -0.00048888
C -1.94525855 28.40674161 21.57766588 -0.00160218 0.00349940 0.00532286
C 16.51273060 3.66443575 5.27098110 0.00184254 0.00519883 0.00330475
C 13.79006181 8.48160607 1.12103640 -0.00358856 -0.00288821 -0.00070834
C 20.16663341 6.01054691 1.12770827 0.00251780 -0.00085987 -0.00810328
C 22.90285287 0.85774500 5.07778580 0.00140713 -0.00378634 0.00077717
C 17.65747844 3.50393652 4.59849763 -0.00437675 0.00688257 0.00038466
C 25.78369528 8.33256733 1.72376387 0.00212005 0.00336390 0.00453243
C 19.00437452 6.17792237 1.87350600 0.00465613 -0.00415370 -0.00065305
C 11.01756117 0.98935107 4.60039402 0.00031486 -0.00474689 -0.00379826
C 18.62782503 2.54694062 5.01115538 -0.00096282 -0.00124925 -0.00503787
C 24.91160519 7.40773181 1.21600271 -0.00636084 0.00625883 -0.00646042
C 18.06970197 7.18495259 1.54504931 0.00115763 0.00267588 -0.00265063
C 11.97152814 1.90573802 4.90404834 -0.00482125 -0.00062423 0.00266834
C 18.45718794 1.68510152 6.11824238 0.00105718 0.00296556 0.00224207
C 25.24709252 6.65257568 0.09497912 0.00826891 0.00016013 0.00347685
C 18.31510850 7.98403175 0.42747172 -0.00424621 0.00732844 -0.00032000
C 11.79106909 2.78477938 5.96760500 -0.00126823 0.00271588 0.00149309
C 20.12242867 2.25653426 0.55716213 0.00183329 -0.00152627 -0.00266825
C 22.82432557 6.89111447 5.44224462 -0.00363559 0.00312929 -0.00138228
C 16.42733859 7.57426758 5.70438379 0.00055944 0.00121973 -0.00365813
C 13.59773448 2.74239414 0.66298261 0.00467131 -0.00788129 -0.00396741
C 19.13380648 3.15647914 0.13726767 0.00195390 -0.00677774 -0.00017645
C 10.83567612 7.54067093 6.08703195 0.00345593 -0.00277036 0.00007846
C 17.36243152 6.70083551 6.15449920 0.00410613 0.00409145 -0.00638948
C 25.66483012 1.85405983 0.11524255 0.00018542 -0.00071719 -0.00165143
C 15.32659511 5.06262082 3.75041794 -0.00146149 -0.00009967 -0.00493707
C 14.84060379 0.27458063 2.50945170 -0.00788672 -0.00229038 0.01166538
C 21.27755898 4.39747589 2.53516729 0.00319502 -0.00296587 0.00002568
C 22.12154365 9.45148599 3.40230222 0.00086661 -0.00648491 0.00381431
C 14.18175401 6.04835980 3.55835624 0.00004253 -0.00396076 0.00595529
C 15.86009573 1.32772785 2.63635359 -0.00351302 0.00260140 0.00166199