2880
Time=47000.00000003 pbc="T T T" Lattice="39.54711049 0.00000000 0.00000000 0.00000000 29.13396585 0.00000000 -12.03975097 0.00000000 24.44941166" energy=-18400.20580876 virial="-53.15581384 22.68038237 -11.75103242 22.68038237 -33.39887648 -8.83979796 -11.75103242 -8.83979796 -80.60806937" stress="0.00056919 0.00080307 -0.00035767 0.00080307 0.00128147 -0.00036400 -0.00035767 -0.00036400 -0.00048336" Properties=species:S:1:pos:R:3:vel:R:3
C 3.36722112 3.80269044 5.15765896 -0.00343908 -0.01089094 0.00073807
C 0.51044029 8.68202553 1.00505670 0.00010200 0.00243860 -0.00126196
C 7.01052523 5.81744208 1.00220755 -0.00237444 0.00517923 -0.00399832
C 9.72700769 1.20405831 5.17046426 -0.00662314 -0.00238051 0.00867468
C 4.53710131 3.47651711 4.38703300 0.00211031 -0.00569900 0.00076648
C 12.42403931 8.36791869 1.72060139 -0.00263610 -0.00815995 -0.00376140
C 5.86696038 6.05785620 1.79468863 -0.00468688 0.00499562 0.00304760
C 37.32744623 1.45526469 4.27223388 -0.00554436 -0.00214770 0.00090922
C 5.29648334 2.40362694 4.65015936 0.00701818 0.00221556 0.00516725
C 11.38833201 7.54027326 1.31265283 -0.00459189 -0.00500649 -0.00223675
C 4.99356667 7.01408105 1.38954549 0.00022481 0.00170860 0.00720470
C -1.14924306 2.16488559 4.70581942 -0.00082872 -0.00376449 0.00575668
C 5.11181189 1.70926767 5.85617835 0.00115359 0.00488750 -0.00286248
C 11.52705526 6.73496724 0.11606299 -0.00106263 0.00489924 -0.00062315
C 5.14930460 7.79170726 0.20312121 0.00553800 -0.00268732 0.00003679
C -1.20328314 2.81012941 5.97175958 -0.00811105 -0.00172230 -0.00116917
C 7.01526529 2.02746447 0.40274504 -0.00522478 -0.00106327 -0.00506184
C 9.98375960 6.97364107 5.77189747 0.00029478 0.00681422 0.00364479
C 3.48621160 7.75937394 5.67845879 -0.00484336 0.00793896 -0.00201516
C 0.46514016 2.82904039 0.50816976 -0.00346408 -0.00199256 0.00114022
C -6.03792010 2.89549626 24.42738824 0.00024480 -0.00221373 -0.00015141
C -2.24824942 7.76747523 6.04062693 -0.00020840 0.00159409 0.00079851
C 4.45865767 6.79884251 6.07322368 -0.00054352 0.00112440 0.00359149
C 12.47785023 2.07212358 0.00518839 0.01260040 0.00140460 -0.00365114
C 2.26096057 5.23375750 3.45209028 -0.00567156 0.00339188 -0.00554652
C 1.82216051 0.33653847 2.46189896 0.00559788 0.00076314 -0.00121947
C 8.22860089 4.42158991 2.56344578 0.00065885 -0.00232949 0.00020733
C 8.67847909 9.34874929 3.46253371 -0.00420448 0.00371573 -0.00600545
C 1.08798770 6.13930246 3.19802171 -0.00908706 -0.00823700 -0.00070085
C 2.82617434 1.40936103 2.54554612 0.00178758 -0.00274710 -0.00208668
C 9.48830662 3.64867190 2.63427920 0.00203316 -0.00296596 0.00137359
C 7.50649243 8.34601833 3.30001773 0.00385956 -0.00685403 0.00442622
C 0.35921465 3.76347867 11.08760797 0.00220152 -0.00284400 0.00454033
C -2.52446682 8.57549973 7.10223678 -0.00209712 -0.00015705 -0.00142170
C 4.16144043 5.91353728 7.07979852 0.00640276 0.01494247 -0.00817274
C 6.80375816 1.03217762 11.29091599 0.00430357 0.00525744 0.00398150
C 1.59388781 3.69090162 10.49664553 0.00122779 0.00816442 -0.00020418
C 9.35774589 8.61016268 7.89156236 0.00542409 0.00361942 0.00123895
C 2.91351807 5.99600713 7.74857006 -0.00375148 -0.00400830 -0.00000222
C 34.43236418 1.03015956 10.34955932 0.00154384 -0.00076233 0.00258594
C 2.50110312 2.75850936 10.91141090 0.00910004 -0.00120844 0.00427940
C 8.45418996 7.64258758 7.48973432 0.00080034 0.00161817 -0.00009031
C 1.97481718 6.97424184 7.46442850 0.00651044 -0.00442788 0.01269352
C -4.22980325 1.98425506 10.73681700 0.00157864 -0.00500918 0.00250394
C 2.22028178 1.90860930 12.01915133 -0.00257526 0.00114656 -0.00133072
C 8.68913772 6.85900454 6.33663901 0.00536443 0.00254994 -0.00384146
C 2.23558336 7.88591223 6.31919514 0.00183836 0.00378960 -0.00200931
C -4.53203847 2.90602016 11.85237628 0.00201257 -0.00528052 -0.00372016
C 3.99439293 1.94391461 6.56921486 -0.00973868 -0.00090341 0.00040886
C 6.75093542 6.62329578 11.60441173 0.00112027 -0.00220093 -0.00299424
C 0.30953842 7.77633815 11.65492869 -0.00482858 -0.01002525 -0.00128641
C -2.41906066 2.88195435 6.69472675 0.00205409 0.00373572 0.00310355
C 3.16614621 2.99264103 6.30587231 -0.00740146 0.00421056 -0.00778743
C -5.48437488 7.78121350 12.08717511 -0.00007138 -0.00020215 0.00325401
C 1.37789342 7.03203320 12.04925369 -0.00511447 -0.00012689 -0.00228322
C 9.51694917 1.95470515 6.32567456 0.00178328 -0.00055339 0.00094174
C -0.80088088 5.17341399 9.56701890 0.00122078 -0.00276831 -0.00091894
C -1.38502872 0.33411680 8.62862354 -0.00065660 0.00079658 0.00431096
C 5.17795954 4.39531855 8.68177262 0.00149765 0.00017578 0.00513387
C 5.61830058 9.42608040 9.56423369 0.00322280 -0.00030726 0.00288141
C -1.88936430 6.18126882 9.28448719 0.00066859 0.00190037 0.00240731
C -0.25360060 1.30494768 8.94450287 0.00507361 0.00540968 -0.00467371
C 6.04628025 3.22305166 8.72351725 -0.00074028 -0.00633265 -0.00216504
C 4.35560928 8.67810049 9.25377300 -0.00768793 -0.00243729 -0.00271202
C -2.82794942 3.77509419 17.10906737 -0.00331682 -0.00174413 -0.00177654
C -5.74887175 8.75887066 13.01250005 -0.00381799 0.00345020 -0.00306815
C 1.18470870 6.02776676 12.99729169 0.00567477 0.00644613 -0.00139542
C 3.74842803 1.06714418 17.26808330 -0.00356953 -0.00515841 -0.00555719
C -1.53013640 3.79550279 16.46980115 0.00602694 -0.00032666 0.00593200
C 6.41350559 8.44768858 13.72339641 0.00391273 0.00311199 -0.00153309
C -0.07787443 5.97083330 13.64109993 -0.00526790 -0.00095368 -0.00169718
C 31.23903237 1.45584775 16.44527884 -0.00037288 0.00056510 0.00536596
C -0.49241951 2.97273776 16.92420616 0.00116916 0.00004574 -0.00199037
C 5.34398108 7.74352292 13.25919900 0.00373920 -0.00194323 -0.00256659
C -1.10418963 6.87463766 13.40755846 0.00163356 -0.00470045 0.00437955
C -7.26829212 2.26612178 16.79557390 -0.00068398 -0.00447112 -0.00414733
C -0.62622783 2.12163015 18.12233280 0.00509990 -0.00082645 0.00186808
C 5.49900193 6.69104369 12.27527132 0.00120849 0.00083905 -0.00418861
C -0.97725816 7.72848069 12.25823824 0.00477903 -0.00444002 -0.00771576
C -7.30194565 3.04769575 17.96787051 -0.00374762 -0.00077226 -0.00876440
C 0.99798134 2.07813985 12.71220227 -0.00759776 0.00163360 -0.00320072
C 3.86052398 6.73912463 17.86517965 -0.00115799 -0.00059792 -0.00240889
C -2.95852485 7.73530463 17.69440994 -0.00582542 -0.00181906 -0.00032755
C -5.83898411 2.82100468 12.40589835 0.00469172 -0.00516642 -0.00748507
C 0.00231832 2.87667945 12.15604635 0.00948776 -0.00981464 -0.00073163
C -8.54353844 7.95894456 18.11040739 0.00270417 -0.00112315 -0.00408434
C -2.00017516 6.81084613 18.01963841 0.00273249 0.00026085 0.00060376
C 6.47043040 1.87937299 12.32965401 -0.00482118 -0.00338644 -0.00471381
C -3.99961429 5.15139814 15.59599981 0.00908970 -0.00099765 0.00415957
C -4.42766762 0.05272271 14.84223591 -0.00183122 -0.00628780 0.00480953
C 2.26859741 4.71878442 14.63364215 0.00010245 0.00017577 -0.00018887
C 2.13599375 9.38502864 15.79865459 0.00159649 0.00828997 0.00623555
C -5.08879463 6.21124149 15.49724015 0.00027310 0.00184344 0.00137681
C -3.25883681 0.84753294 15.28116627 0.00678643 -0.00254341 0.00301144
C 3.18900544 3.57270207 14.89633287 -0.00379529 -0.00098500 0.00103079
C 0.75799696 8.89180059 15.59235647 0.00413638 -0.00571242 0.00700214
C -5.78263610 3.68941297 23.32496361 0.00120928 0.00365944 0.00379426
C -8.90031837 8.73067495 19.22262563 0.00158459 0.00150904 0.00245238
C -2.19384132 5.93081572 19.13947839 -0.00119277 -0.00056614 -0.00020096
C 0.71053985 1.09756024 23.46906152 0.00713045 -0.00221054 0.00677077
C -4.53957569 3.66458173 22.58515282 0.00483823 -0.00249723 0.00708353
C 3.26909755 8.53460947 19.87238002 -0.00287063 -0.00283873 -0.00054856
C -3.40627830 6.07813976 19.84713884 0.00051620 0.00222015 -0.00113057
C 28.34508485 1.20338242 22.74530978 0.00561178 0.00625143 0.00671342
C -3.58630433 2.72436090 23.01391468 -0.00350046 -0.00197278 -0.00727681
C 2.30335974 7.63293791 19.56429534 -0.00378450 0.00245819 -0.00139330
C -4.46350094 6.93412186 19.46439731 0.00285450 -0.00471015 -0.00716319
C -10.21217842 2.06941818 23.00216210 -0.00143235 0.00054307 0.00242396
C -3.82080948 1.92127582 24.13349219 0.00193901 0.00307591 0.00246954
C 2.57015322 6.78416477 18.46625961 0.00661862 -0.00014787 -0.00568036
C -4.19564134 7.69956959 18.28967984 -0.00147121 0.00734712 0.00091835
C -10.42029554 2.85256633 24.13802720 0.00857064 0.00156930 -0.00035183
C -1.88351961 2.22909615 18.77506846 0.00763985 -0.00323967 -0.00245243
C 0.74865406 6.82019035 23.92163508 -0.00380302 0.00295656 0.00113263
C -5.72284049 7.49958873 23.87790425 -0.00275213 0.00136822 -0.00327535
C -8.50578267 2.98544482 18.75944103 0.00632787 0.00377947 0.00377049
C -2.90955662 2.94913125 18.26336554 0.00122631 -0.00192920 0.00384976
C -11.23312346 7.87130583 24.36281324 0.00196807 -0.00604885 0.00829469
C -4.83129640 6.52010880 24.27400585 0.00333592 0.00465627 -0.00297921
C 3.57615046 2.05245786 18.27764690 -0.00863206 0.00688827 0.00104810
C -6.93248563 5.14526433 21.61447363 0.00308309 0.00250310 -0.00389298
C -7.30676414 0.42177974 20.72481337 0.00291094 0.00071270 -0.00869648
C -0.89824275 4.77885468 20.86573842 -0.00526810 0.00286557 -0.00152851
C -0.88162310 9.36909378 21.91989484 -0.00042312 0.00679643 -0.00019912
C -8.01553607 6.17106168 21.48028638 -0.00641238 -0.00790757 0.00082817
C -5.92014843 0.89016624 20.87120684 -0.00535400 -0.00689963 -0.00414659
C 0.42434834 4.15838151 21.27967855 -0.00428827 0.00191062 -0.00824572
C -2.11822760 8.54686993 21.86959859 0.00299188 0.00706034 0.01638386
C 3.16720071 13.45862026 5.27681087 -0.00528183 -0.00825233 0.00520850
C 0.16419078 18.48019903 1.01324468 0.00310939 -0.00079242 0.00309415
C 6.76785290 15.63521187 1.16555006 0.00544798 -0.00373455 -0.00075648
C 9.84399749 10.61524110 5.08973782 0.00500631 -0.00808041 0.00166897
C 4.37624036 13.40917042 4.58299339 -0.00011548 0.00231425 0.00482017
C 12.38455901 18.11192343 1.71850927 -0.00541942 -0.00101842 0.00982926
C 5.56023276 15.83832385 1.76939420 -0.00720683 -0.00667255 -0.00205656
C -2.08600920 10.71800987 4.43277146 -0.00239891 -0.00936650 0.00582063
C 5.30769962 12.42291038 4.80966995 -0.00156535 -0.00195790 -0.00240810
C 11.40599252 17.21791235 1.37809856 -0.00286893 -0.00076058 -0.00170065
C 4.58347788 16.75183147 1.34886085 0.00124800 0.00903530 0.00015135
C -1.06636518 11.55805895 4.82097304 -0.00351924 -0.00166013 -0.00003879
C 5.12305449 11.59682375 5.94507273 0.00197930 -0.00025768 -0.00316087
C 11.52249888 16.47383590 0.15208854 0.00957558 0.00264011 0.00014488
C 4.84092573 17.66094138 0.24258486 0.00012285 0.00183228 0.00597820
C -1.29284750 12.44583003 5.88333195 0.00289834 0.00124674 0.00094015
C 6.46664646 11.69723396 0.28835556 0.00151450 -0.00423806 -0.00242900
C 9.64720371 16.62073383 5.53413199 0.00213740 0.00630723 0.00348326
C 3.01704010 17.31518209 5.66085723 -0.00684341 0.00033484 0.00439515
C 0.10916502 12.61987645 0.45224141 0.00007533 -0.00517775 -0.00302227
C 5.62802873 12.74675285 0.00581557 0.00626837 0.00561476 0.00004383
C -2.62360776 17.60779659 5.86250876 -0.00290057 0.00080363 -0.00098839
C 4.05748053 16.60326873 6.11682786 -0.00036867 0.00578581 -0.00228484
C 0.27708313 11.65982896 24.43743756 -0.00293454 -0.00351744 -0.00069843
C 1.87429840 14.75260927 3.62378666 0.00359147 -0.00412294 -0.00062017
C 1.53074715 10.04258496 2.62140680 -0.00298742 -0.00601637 0.00202372
C 7.87897097 14.13895985 2.71745321 -0.00184192 0.00472687 0.00277137
C 8.55121936 19.21185737 3.30131230 -0.00080754 0.00322543 -0.00351654
C 0.51708498 15.27650906 3.45272686 0.00144602 0.00187847 0.00464625
C 2.77840610 10.88086363 2.92103499 -0.00501114 0.00545603 0.00429588
C 9.02175772 13.17197916 2.88352996 0.00200134 0.00193087 0.00184610
C 7.29860753 18.52297861 2.90597898 0.01324230 -0.00917894 0.00812165
C 0.15982078 13.38909285 11.32908993 -0.01077238 -0.00537439 0.00515246
C -2.85705465 18.39132240 6.94772395 0.00429470 -0.00360979 -0.00178124
C 3.97428824 15.70443303 7.17303381 0.01000605 -0.00684766 -0.00608144
C 6.77667115 10.71155519 11.25296430 0.00243707 0.00071910 0.00013686
C 1.38494578 13.20809007 10.59928970 -0.00528012 0.00482730 -0.00347319
C 9.20292473 18.29183860 7.66036521 0.00264270 0.00585029 0.00091002
C 2.77203933 15.73914135 7.87979727 -0.00315500 0.00057286 -0.00178112
C 34.35838067 11.09531807 10.39932746 -0.00465862 0.00766728 -0.00043273
C 2.35092134 12.37132109 11.08734763 0.00139500 0.00339819 0.00143477
C 8.16518599 17.45160312 7.27494413 -0.00178872 0.00282383 0.00541537
C 1.70437862 16.47889468 7.43648742 -0.00227357 -0.00295837 -0.00127222
C -4.21344167 11.86731473 10.92095106 -0.00331024 0.00604380 -0.00386222
C 2.12726935 11.52313435 12.21480393 0.00470065 -0.00155716 0.00092209
C 8.40409735 16.56806979 6.21811840 0.00427985 -0.00281711 0.00211783
C 1.78512363 17.23763593 6.32253878 0.00138896 0.00547858 -0.00220177
C -4.45101188 12.71857172 12.06937655 -0.00144492 -0.01084636 -0.00071868
C 4.01978276 11.86680349 6.82071412 0.00277980 0.00374755 0.00407743
C 6.72333995 16.63564369 11.71377026 -0.00912938 -0.00373584 0.00486851
C 0.07917404 17.42624321 11.61579893 0.00293237 0.00038541 -0.00499705
C -2.60482136 12.55198365 6.42463249 -0.00113111 -0.00106878 0.00457090
C 2.99170616 12.62503421 6.40909360 -0.00193567 0.00722729 0.00130199
C -5.22296880 17.44389283 11.90297742 0.00057251 0.00449290 -0.00641468
C 1.02410153 16.46858874 11.94293033 -0.00440864 0.00083707 -0.00676045
C 9.58812898 11.48906990 6.19795562 -0.00714106 0.00306690 0.00235716
C -0.99449301 14.80941900 9.70193842 -0.00011029 -0.00399079 -0.00017176
C -1.35007081 9.98200391 8.71836192 0.00948161 -0.00253451 -0.00484717
C 5.14600115 14.27871759 8.74264330 -0.00052611 0.00205391 0.00207532
C 5.73839384 18.88806470 9.66552345 0.00534088 0.00914263 0.00243135
C -2.03817644 15.90600302 9.55169358 0.00284026 0.00509141 0.00726990
C -0.16943691 10.87219070 8.82324789 0.00760723 0.00417491 0.00115283
C 6.27933973 13.36468713 8.97507753 0.00331381 -0.00266877 0.00258536
C 4.60291601 17.84316609 9.52614839 -0.00554143 0.00285594 -0.00653694
C -2.98121230 13.50514838 17.29765254 0.00796956 -0.00124053 -0.00095764
C -5.41955692 18.34093412 12.98955605 -0.00049253 -0.00265632 -0.00395317
C 0.88856035 15.71946126 13.12422412 0.00061955 -0.00092162 0.00206842
C 3.43805839 10.64073624 17.39693489 -0.00547013 0.00396294 -0.00307933
C -1.78136416 13.35631415 16.63141565 -0.00421213 -0.00004361 0.00432237
C 6.28564714 18.27113358 13.88061420 -0.00123616 -0.00789093 0.00638988
C -0.22112409 15.93952774 13.93690312 0.00019327 0.00142457 0.01459954
C 31.32248980 11.04480228 16.53029556 -0.00303906 -0.00557900 0.00857548
C -0.73012411 12.59429543 17.06777191 0.00215023 0.00712954 0.00532935
C 5.30841546 17.38589380 13.50845129 0.00063808 0.00075821 0.00446197
C -1.23522709 16.82481628 13.52815298 -0.00205185 0.00634617 -0.00392844
C -7.29376195 11.94332569 17.01056092 -0.00356382 -0.00272767 -0.00317376
C -1.08705896 11.74215854 18.12984804 -0.00328209 -0.00245256 -0.00846467
C 5.53514819 16.54863770 12.43638430 -0.00518726 -0.00154992 -0.00143284
C -1.04669419 17.64389574 12.44500439 -0.00184397 0.00166507 0.00223619
C -7.53570533 12.77098352 18.11921421 -0.00002288 -0.00322386 -0.00321758
C 1.00522629 11.80352086 12.99897723 0.00219380 -0.00217249 -0.00045667
C 3.64608546 16.86223788 17.80431743 0.00276257 0.00332754 0.00371250
C -2.76602488 17.42589996 17.86768502 -0.00061642 0.00054861 -0.00146988
C -5.76470123 12.73728693 12.53428474 -0.00270648 0.00265722 0.00594053
C -0.01221851 12.55862091 12.50674069 0.00299194 -0.00375775 -0.00079613
C -8.35106840 17.71110583 17.89808524 0.00046648 0.00056613 0.00440840
C -1.86899672 16.49723591 18.30739099 0.00299527 -0.00047311 0.00294543
C 6.48549939 11.51195830 12.37958417 0.00435710 0.00036407 0.00336425
C -4.07563282 14.99714208 15.69692687 -0.00591463 0.00730510 -0.00376197
C -4.47274852 10.12110169 14.57694167 0.00463762 -0.00038638 0.00018685
C 2.24040627 14.29120341 14.71878126 0.00173297 -0.00807413 0.00314773
C 2.30524522 19.12781710 15.83734914 -0.00535243 0.00248323 0.00020454
C -5.29693620 15.81766540 15.39523916 0.00227924 -0.00515589 0.00221133
C -3.23874166 10.99963040 14.76384636 0.00144150 0.00489751 0.00122373
C 3.52429583 13.53414791 14.91055836 -0.00780601 0.00565557 -0.00468264
C 0.99537113 18.39949533 15.69941445 0.00056094 -0.00534605 -0.00285032
C -6.15666304 13.58986800 23.37602814 -0.00473531 -0.00067184 -0.00208074
C -8.55766911 18.55578550 19.01131843 0.00532627 -0.00682149 0.00520865
C -2.16845590 15.67217776 19.37395693 0.00238097 -0.00617802 -0.00138299
C 0.42434639 10.69967167 23.49570262 0.00010218 0.00069537 -0.00263328
C -4.92660649 13.43356453 22.68679658 0.00228476 -0.00065048 0.00823463
C 3.17738143 18.22927253 20.13200431 -0.00121889 0.00228352 0.00704248
C -3.51154074 15.72047672 19.96905110 0.00456007 -0.00372271 0.00185804
C 28.18886727 10.99558409 22.74816722 0.00310139 -0.00359494 -0.00413183
C -4.07791911 12.38606677 23.04016732 -0.01091949 0.00208541 -0.00251467
C 2.19232906 17.47405155 19.54767214 -0.00612412 -0.00936014 -0.00147852
C -4.35152604 16.71765386 19.61008523 0.00235974 -0.00708231 0.00871774
C -10.42368976 11.88574082 23.19117076 0.00358295 0.00480233 -0.00234509
C -4.31887594 11.54074920 24.13930135 0.00259973 0.00041442 -0.00010315
C 2.39893736 16.71395120 18.39589035 -0.00385263 -0.00488957 -0.00725971
C -3.98789576 17.60432679 18.58799640 -0.00194426 0.00401457 0.00229051
C -10.64818890 12.73239674 24.30285101 0.00148349 0.00302145 -0.00583459
C -2.24852059 11.88399220 18.88903695 -0.00268333 -0.00265776 -0.00377131
C 0.63903830 16.50883451 23.80516435 0.00609119 -0.00211513 0.00498241
C -6.02939625 17.37857681 23.99949212 -0.00261476 -0.00100072 -0.00238549
C -8.75583494 12.63846369 18.76940278 0.00075663 -0.00009889 -0.00011593
C -3.25347639 12.74118236 18.47200148 -0.00112732 0.00220159 -0.00401644
C -11.62096621 17.74095776 24.28024239 -0.00039848 0.00129317 -0.00913353
C -5.09392486 16.45051688 24.42965402 0.00045007 0.00035837 0.00111246
C 3.19556927 11.54281691 18.47299262 0.00372732 0.00125317 -0.00227159
C -7.32643437 15.10436827 21.81763070 0.00097842 0.00824017 -0.00191314
C -7.57235786 9.98087543 20.89239618 -0.00212929 0.00157639 -0.00787065
C -1.13742524 14.21145881 21.00000280 -0.00258712 -0.00483797 0.00257370
C -0.61965938 19.12667890 22.16109347 0.00548116 0.00238423 -0.00135301
C -8.49356327 15.94698373 21.64240160 -0.00392203 0.00043600 -0.00238736
C -6.39457270 10.86708777 20.96209576 -0.00164277 -0.00212650 0.00440118
C -0.08679000 13.13868313 21.18090457 0.00440870 0.00005396 -0.00515813
C -1.93654107 18.39782262 22.18817236 -0.00156143 -0.00104848 0.00131576
C 3.00931174 23.22062705 5.03231207 -0.00333946 -0.00155627 -0.01023801
C 0.56535792 28.11159787 0.90313785 0.00698005 0.00806039 -0.00100112
C 6.90801532 25.26132139 1.14900347 0.00665543 -0.00003948 0.00007729
C 9.68041047 20.58693361 4.94734969 0.00230838 0.00484265 -0.00014364
C 4.22084538 23.06681560 4.40702010 -0.00126308 0.00094558 -0.00109124
C 12.27283383 27.75933762 1.85088877 -0.00404737 -0.00095433 -0.00264917
C 5.60327505 25.35820317 1.66199070 -0.00510820 -0.00816807 0.00128608
C 37.23011173 20.80169415 4.34560275 0.00316312 0.00410801 -0.00435708
C 5.15806444 22.10298106 4.74584724 0.01013788 0.00092883 0.00261096
C 11.33459034 26.84566292 1.47904726 -0.00024752 0.00334923 -0.00305552
C 4.71951733 26.30428054 1.22942920 0.00337092 0.00034065 0.00507532
C -1.22208985 21.51948430 4.79937467 -0.00368684 -0.00320698 -0.00602290
C 4.92571958 21.40034627 5.91773222 0.00296481 0.00283314 -0.00118609
C 11.45211851 26.15237136 0.24533506 -0.00412985 -0.00328630 0.00248989
C 4.94640924 27.15024526 0.13533322 0.00249325 -0.00413023 -0.00473266
C -1.33055188 22.30824000 5.93855380 -0.00199516 -0.00256748 0.00446450
C 6.66905398 21.43756291 0.37367089 0.00250515 0.00426214 -0.00055428
C 9.76002551 26.26861865 5.71724665 -0.00362871 -0.00712124 0.00281926
C 3.38527748 27.25786153 5.60198364 -0.00001343 0.00150993 -0.00496597
C 0.36629413 22.46401173 0.43262867 0.00282966 -0.00193661 0.00227287
C -6.24451894 22.40450745 24.34207620 0.00174896 -0.00009950 0.00254435
C -2.30102476 27.42969349 5.72247552 -0.00714708 0.00408053 0.00291700
C 4.29676506 26.31891929 5.97869052 0.00051641 -0.00038305 -0.00388294
C 12.59202760 21.28149237 0.39592433 -0.00740174 0.01090473 0.00389000
C 1.93636915 24.56602809 3.34267952 -0.00146627 -0.01084634 0.00081693
C 1.52892017 19.79827271 2.59391894 0.00920183 -0.01014343 -0.00340088
C 7.96599091 23.95092612 2.79595428 -0.00288188 0.00066272 0.00574611
C 8.66843238 28.89000505 3.51070739 0.00019048 -0.00436775 -0.00947948
C 0.86681548 25.58413913 3.06995969 -0.00723476 0.00104842 -0.00400120
C 2.80000700 20.64600510 2.66394474 -0.00627524 -0.00196921 -0.00343717
C 9.29948376 23.17512325 3.08406669 -0.00559049 -0.00311742 -0.00426868
C 7.61033377 27.87317358 3.29773293 0.00073904 -0.00219847 0.00220933
C 0.04241161 23.27435492 11.05169571 -0.00479707 -0.00923652 0.00447572
C -2.46681984 28.14617005 6.88069290 0.00476131 0.01006622 -0.00030717
C 3.97472907 25.36072881 6.99474727 -0.00092150 0.00763704 -0.00633913
C 6.72932185 20.59184939 11.10673868 -0.00215800 -0.00242506 0.00387738
C 1.30672144 23.12044152 10.44797864 -0.00536002 0.00057049 -0.00401368
C 9.29557119 28.03585191 7.78036112 -0.00135833 -0.00099189 -0.00047076
C 2.73125435 25.36512417 7.57775601 0.00158566 -0.00738678 0.00186274
C -5.07391915 20.73585907 10.58772998 -0.00953780 -0.00062518 -0.00674586
C 2.29849136 22.30554977 11.09370813 -0.00549228 -0.00698608 0.00031036
C 8.27158386 27.25631501 7.28659030 0.00401788 0.00057683 -0.00510768
C 1.75024991 26.33777531 7.27652052 0.00212703 -0.00449797 0.00171190
C -4.06783757 21.63988976 10.93915685 -0.00351095 0.00431986 -0.00428337
C 1.92808077 21.43231016 12.09191383 -0.00993350 -0.00009988 -0.01410607
C 8.44292392 26.28518161 6.31301203 -0.00596107 0.00485841 -0.00372257
C 2.06256073 27.30138579 6.23285643 0.00120225 -0.00362654 0.00236378
C -4.27922557 22.49565536 12.04530229 0.00524205 0.00125126 -0.00636660
C 3.65441595 21.51795638 6.54007637 -0.00412611 0.00656717 -0.00274208
C 6.85585558 26.51167187 11.72168574 -0.00878814 -0.00481565 0.00238737
C 0.22352964 27.20406701 11.60994525 0.00017008 -0.00688950 0.00565108
C -2.56975209 22.41184788 6.64105414 0.00506429 0.00085436 -0.00275169
C 2.70497599 22.40985766 6.12354203 0.00144881 -0.00465406 -0.00442675
C -5.44108260 27.34498696 11.84022669 0.00610657 0.00331206 -0.00692767
C 1.13007325 26.26058417 12.00450919 -0.00306707 -0.00142860 -0.00503735
C 9.43715244 21.34607569 6.09992571 -0.00548656 -0.00396091 -0.00071112
C -0.86209796 24.73453399 9.34045678 -0.01100484 0.00530889 0.00301374
C -1.64087894 19.41116341 8.81725507 -0.00713991 0.00429620 0.00111083
C 5.21068036 24.09607754 8.54910742 0.00320438 -0.00696540 -0.00320849
C 5.55863613 28.61345737 9.82764074 -0.00163329 -0.00026253 0.00162783
C -1.92926302 25.69412713 8.92379045 0.00433070 0.00299364 -0.00204096
C -0.36046482 20.14077508 9.14303482 0.00112041 -0.00294364 0.00218947
C 6.64800699 23.77666213 8.62534726 -0.00585315 -0.00138260 0.00138770
C 4.45467176 27.64336927 9.82417025 -0.00309441 0.00245246 0.00090455
C -2.57812407 22.76351051 17.35428362 0.00491114 0.00676916 -0.00292553
C -5.63923279 28.12511318 13.05336762 -0.00350600 0.00103157 -0.00531981
C 0.89551254 25.37290349 13.07664557 -0.00456937 -0.00186067 -0.00165884
C 3.62362237 20.43797384 17.43392497 0.00299161 -0.00111584 -0.00317223
C -1.29675506 22.80094240 16.73471583 -0.00151559 0.00172121 0.00069827
C 6.40347964 27.89033373 14.08231796 0.00140228 -0.00099373 -0.00086616
C -0.27893896 25.51542721 13.80957855 -0.00592408 -0.00015417 -0.00582528
C 31.37597968 20.96899998 16.52947254 -0.00288111 0.00326162 -0.00064399
C -0.22063238 22.05641580 17.28229168 -0.00195178 0.00130205 -0.00578615
C 5.44850096 26.94953929 13.62294123 -0.00358844 -0.01070309 -0.00174790
C -1.24367685 26.44158326 13.43552785 -0.00429007 -0.00359361 0.00726399
C -7.15654038 21.71312991 17.08617063 0.00021927 -0.00279224 -0.00471129
C -0.37666995 21.20818720 18.38679515 -0.00434177 -0.00433464 -0.00464298
C 5.64748880 26.26868447 12.41597241 -0.00485160 -0.00315431 -0.00062539
C -0.97338814 27.30651028 12.31459138 -0.00339881 -0.00357259 -0.00488947
C -7.32393985 22.45719337 18.26905095 0.00296161 -0.00115075 -0.00304074
C 0.63145006 21.54920657 12.65799932 -0.00702638 -0.00331388 0.00096410
C 3.51979007 26.17224785 17.81290489 -0.00308102 -0.00015823 0.00116967
C -2.44132800 27.26962509 18.10242063 0.00981878 0.00284985 -0.00707706
C -5.49210564 22.34088784 12.75873735 0.00033192 -0.00343071 -0.00125993
C -0.25413597 22.47463229 12.17009594 0.00035773 0.00074360 -0.00377901
C -8.35528892 27.49296534 17.93083041 -0.00008759 0.00061220 0.00102616
C -1.70446347 26.14346650 18.42285905 0.00653213 0.00144936 0.00276840
C 6.53755831 21.43155302 12.17853865 -0.00288805 0.00296697 -0.00435037
C -3.66525631 24.25570258 15.90598019 -0.00117399 -0.00647579 0.00616468
C -4.07331009 19.62626274 14.62735833 -0.00205709 -0.00657047 -0.00029784
C 2.09866186 23.77868952 14.54736671 -0.00450348 0.00036187 -0.00146722
C 2.52549655 28.80098372 15.70612590 0.00111044 0.00128020 0.00165164
C -4.69745066 25.33134808 15.73704977 -0.00732578 -0.00040170 0.00195615
C -2.98705731 20.61157760 14.66149631 -0.00839891 -0.00115039 0.00191412
C 3.27533387 22.90202889 14.57174637 -0.00439174 0.00128018 -0.00829917
C 1.30245255 28.04019018 15.49927307 -0.00548023 -0.00427815 -0.00273216
C -5.85126450 23.31431569 23.28987532 -0.00305162 -0.00059317 -0.00092743
C -8.57860965 28.32009343 19.03703173 -0.00150719 -0.00019964 -0.00446019
C -2.02702250 25.28498995 19.48955639 -0.00487514 0.00454691 -0.00277498
C 0.66865038 20.47406559 23.71689205 0.00580437 -0.00889081 0.00760794
C -4.62217548 23.09850960 22.73348462 -0.00078556 -0.00282447 -0.00105306
C 2.96635197 27.69483319 20.09400572 -0.00360123 0.00166624 -0.00050179
C -3.18101905 25.55320053 20.12312764 0.00653165 -0.00631449 -0.00160195
C 28.32010749 20.83441138 22.63298341 0.00009231 -0.01283058 0.00156101
C -3.73581347 22.11238180 23.15437116 0.00021371 -0.00146334 -0.00706446
C 2.01132023 26.86144267 19.59574229 -0.00142917 0.00941487 0.00488884
C -4.07705759 26.49270225 19.63116920 -0.00230423 0.00349580 -0.00344349
C -10.36842613 21.85544881 22.91702748 0.00378059 -0.00408150 0.00049882
C -4.07410948 21.25623809 24.22195309 0.00191219 -0.00315382 -0.00170941
C 2.31875999 26.03269960 18.43534464 -0.00100352 -0.00369133 -0.00020102
C -3.76916826 27.33827092 18.57935402 0.00422031 0.00000383 0.00155037
C -10.54122189 22.77809691 24.00858418 0.00628447 -0.00329968 0.00133718
C -1.69453418 21.17492820 18.94369149 0.00155294 0.00078879 -0.00595123
C 0.62761349 26.23917389 23.95023800 0.00129242 0.00398729 -0.00214736
C -5.69140028 27.18783740 24.13192988 0.00243950 0.00188875 -0.00287704
C -8.63318682 22.49971478 18.82975240 0.00660868 -0.00537781 -0.00502129
C -2.78070157 21.86716149 18.43792492 0.00395346 -0.00387747 0.00437682
C -11.40056596 27.41431882 24.14510462 0.00186305 0.00038187 0.00268138
C 7.27043028 26.33346885 0.20547500 -0.00153483 -0.00669742 -0.00119889
C 3.44809294 21.30946339 18.52165731 0.00548004 0.00459495 0.00313468
C -6.89582381 24.85009125 21.72180425 0.00272488 -0.00342955 0.00707566
C -7.44650350 19.73204526 20.82316484 -0.00666533 0.00148228 -0.00607602
C -0.88302034 23.92096307 21.16211367 0.00141630 -0.00098444 0.00145298
C -0.67842942 28.91778668 21.89554639 0.00372945 0.00257151 0.00010816
C -8.11512143 25.58142154 21.47065901 0.00012051 -0.00286894 -0.00288908
C -6.14329482 20.49866679 21.02196382 -0.00402004 0.00204184 0.00210940
C 0.49620581 23.33316715 21.44622504 -0.00602203 -0.00035478 -0.00285729
C -1.86084335 28.07223970 21.80225967 -0.00395271 0.00391578 -0.00191067
C 16.21571758 3.54973253 5.34031482 0.00884158 -0.00398345 0.00339554
C 13.52927732 8.58699203 0.91883964 0.00072079 0.00139399 0.00207198
C 20.17670444 5.89167266 0.89464104 -0.00333248 -0.00806499 -0.00952980
C 23.01130084 1.19277162 5.24187676 0.00028403 -0.00140301 -0.00181227
C 17.48358189 3.38572156 4.68073766 0.00077205 0.00420305 -0.00640892
C 25.55615064 8.68289195 1.70905642 -0.00252336 0.00001031 0.00656802
C 18.89669582 6.01415762 1.57250248 0.00601428 -0.00341455 -0.00233492
C 10.95654474 1.23653777 4.49277130 -0.00407751 -0.00530413 -0.00836472
C 18.41137479 2.49828089 5.16662210 0.00269316 -0.00379099 0.00790745
C 24.58571791 7.82813219 1.24338711 -0.00083553 0.01060603 0.00264921
C 17.97404687 6.94203529 1.14932592 -0.00114589 0.00118598 0.00234214
C 11.87325180 2.21698611 4.87251735 0.00294016 -0.00353843 -0.00482535
C 18.17157232 1.80328422 6.36712009 0.00222977 -0.00308791 0.00171611
C 24.73928801 6.97838833 0.13996835 0.00559647 -0.00024832 -0.00293207
C 18.22810201 7.76031854 0.05522873 -0.00769024 -0.00271271 0.00219567
C 11.75437478 2.87916591 6.10175124 -0.00683105 0.00663600 0.00009666
C 19.89489913 2.04223872 0.59079927 0.00194728 0.00304333 -0.00385698
C 23.12022791 6.81796085 5.65112493 -0.00074751 -0.00348952 0.00663719
C 16.59922643 7.45744945 5.59243690 -0.00217744 0.00658143 -0.00556672
C 13.43909987 2.93030779 0.36347713 0.00645386 0.00057693 -0.00697175
C 18.97320389 2.95477432 0.13823820 -0.00252891 -0.00597256 -0.00357019
C 10.93650993 7.84906308 6.24270552 -0.00247257 0.00036329 -0.00300182
C 17.52647230 6.43265899 5.87481447 -0.00664932 -0.00535795 -0.00168221
C 25.59953632 1.81531374 0.07487656 0.00455448 0.00372148 -0.00666976
C 15.10995433 4.97186354 3.70103488 -0.00774191 0.00163612 -0.00320326
C 14.54475977 0.29034011 2.66989470 0.00212191 -0.00633936 0.00482545
C 21.25355843 4.56589566 2.59161682 0.00362762 0.00809764 0.00247200
C 21.81922081 9.35958307 3.69661270 -0.00636067 0.00745558 0.00652706
C 14.10998383 6.03602961 3.41319377 0.00897602 -0.00046274 -0.00548840
C 15.79439861 1.15622928 2.80175574 -0.00032104 0.00229383 -0.00317498