2880
Time=73000.00000007 pbc="T T T" Lattice="39.49914033 0.00000000 0.00000000 0.00000000 28.91780246 0.00000000 -12.02268865 0.00000000 24.38016305" energy=-18400.36394346 virial="19.35536459 -16.52458727 -33.36538302 -16.52458727 12.68307694 -4.42846260 -33.36538302 -4.42846260 4.14713495" stress="0.00321975 -0.00058022 -0.00117350 -0.00058022 0.00297255 -0.00012766 -0.00117350 -0.00012766 0.00266981" Properties=species:S:1:pos:R:3:vel:R:3
C 3.26961089 3.78680891 5.14292565 -0.00185525 -0.00331229 -0.01037105
C 0.35494285 8.50939383 1.06592860 -0.00176898 -0.00270447 0.00205548
C 7.10010665 5.88699844 0.94345272 0.00474887 0.00294382 -0.00106345
C 9.66832710 1.25651749 5.13626667 0.00513052 -0.00646216 -0.00148279
C 4.47546772 3.73198875 4.46519607 0.00431932 -0.00089945 0.00255070
C 12.41165780 8.35522619 1.54235151 -0.00307083 0.00089184 -0.00199275
C 5.80692053 5.81043096 1.57642470 -0.00394775 -0.00268427 0.00227506
C 37.35603261 1.18956753 4.31311194 -0.00317443 -0.00142375 -0.00041003
C 5.50225451 2.91881880 4.90761766 -0.00137823 -0.00284063 0.00088047
C 11.33202484 7.63233660 1.04878733 0.00391859 0.00152750 -0.00325682
C 4.83554639 6.66009819 1.21527440 0.00634581 0.00754222 0.00057514
C -1.14974612 2.06846649 4.78557996 -0.00461591 0.00279197 -0.00814487
C 5.31711327 2.14101560 6.08794938 0.00068772 -0.00000194 -0.00161108
C -0.58551621 6.89043706 24.22140896 0.00234777 0.00783569 -0.00651906
C 5.03348713 7.54362519 0.15400199 -0.00291511 0.00278221 0.00418705
C -1.27390936 2.83703999 5.97693267 0.00119279 0.00547120 -0.00534970
C 7.15919748 2.00642737 0.79615898 0.00745528 -0.00511270 0.00997051
C 9.71052274 6.97570146 5.45406036 0.00644922 -0.00124008 -0.00019960
C 3.25348840 7.61358920 5.64219247 0.00126701 -0.00441247 0.00655492
C 0.31070551 2.80403806 0.40418866 0.00657523 0.00546424 -0.00237626
C 6.16372109 2.76400521 0.27953271 -0.00623142 0.00000118 0.00214913
C -2.53340582 7.53139890 6.14684530 -0.00329434 0.00300981 -0.00771675
C 4.24161878 6.76647786 6.00729901 0.00754164 0.00091630 -0.00625940
C 12.79696720 1.91951404 0.13298525 0.00261946 0.00688035 0.00016569
C 2.04537438 5.12369809 3.56296547 -0.01242200 0.00885582 0.00081248
C 1.72806495 0.33377987 2.48309909 0.00402864 -0.00879393 -0.00132114
C 8.33467897 4.51902015 2.49186348 0.00456133 0.00475487 -0.00188361
C 8.34063283 9.27738070 3.52782556 -0.00605411 -0.00088097 0.00009051
C 0.92258664 6.07185373 3.43215488 0.00045099 0.00168742 -0.00184624
C 2.88418778 1.22105686 2.45184594 0.00120900 0.00540622 0.00040719
C 9.58271026 3.72896575 2.64061195 0.00529993 0.00446884 0.00219314
C 7.10113961 8.39866558 3.24022625 -0.00033613 0.00677549 -0.00090950
C 0.34449325 3.62782817 11.13607896 0.00404648 0.00120204 -0.00252150
C -2.77411686 8.46791296 7.18763626 -0.00120829 0.00555997 0.00142151
C 4.09075529 5.88721291 7.08059636 -0.00397968 -0.00235028 0.00164715
C 6.62998192 0.99754889 11.37955601 0.00384869 0.00123449 0.00637706
C 1.55199894 3.56780828 10.49353088 -0.00014571 0.00050164 -0.00457975
C 9.34634341 8.44808831 7.68240308 -0.00434044 0.00316876 -0.00622621
C 2.79993576 5.87686064 7.73986968 -0.00040878 0.00332958 0.00103338
C 34.33623514 1.21320500 10.46240036 -0.00732984 0.00567576 -0.00178061
C 2.53898303 2.73524005 10.88140999 -0.00338247 -0.00225278 -0.00083557
C 8.30079816 7.65755872 7.28243205 0.00605716 -0.00900875 0.00590686
C 1.79607196 6.69961563 7.34193276 0.00155743 0.00642585 0.00353916
C -4.14104568 2.07349828 10.84922928 0.00100141 0.00295812 0.00095189
C 2.39369891 2.02657495 12.06776693 0.00749611 -0.00463845 -0.00156746
C 8.49320662 6.83122826 6.16809255 -0.00205614 0.00662108 -0.00217701
C 1.99927848 7.60982731 6.29139613 -0.00044656 -0.00032505 0.00263974
C -4.28255545 2.87057471 11.96432688 0.00104778 0.00943534 -0.00004723
C 4.02774101 2.07502657 6.70409390 0.00863312 0.00046336 0.00960295
C 6.84986311 6.68853272 11.62153155 -0.00134864 0.00084536 0.00058305
C 0.18877605 7.52159801 11.73010633 -0.00179870 0.00322249 -0.00355568
C -2.50501810 2.67926033 6.66298489 0.00147490 0.00276681 -0.00486494
C 3.04519394 2.90302818 6.21761534 -0.00347861 -0.00686879 0.00791424
C -5.34339826 7.93849158 12.02608004 0.00100002 0.00006714 -0.00025531
C 1.09285841 6.58491609 12.08717029 -0.00093094 0.00260013 -0.00611358
C 9.56985533 2.02300613 6.27129976 0.00136815 0.00555364 0.00549442
C -0.97177507 4.94564170 9.51924206 -0.00494935 -0.00318271 0.00132701
C -0.99335188 0.31840999 8.60606338 0.00098099 -0.00192538 -0.00231103
C 5.26409944 4.53127710 8.67789282 0.00373690 0.00052680 -0.00489397
C 5.41852341 9.29869072 9.72590794 -0.00115596 -0.00017206 0.00091580
C -2.21474510 5.63879929 9.18928018 -0.00061568 0.00232144 0.00144806
C 0.31415253 1.12517325 8.57025816 -0.00857829 -0.00136068 -0.00139876
C 6.53270408 3.80491369 8.94672808 -0.00458287 -0.00329254 0.00019081
C 4.37243403 8.20968376 9.54948838 0.00224232 0.00059260 0.00714090
C -2.73150666 3.78992857 17.49383567 -0.00364916 -0.00226542 0.00450400
C -5.64856808 8.61492189 13.18455403 -0.00003796 0.00113146 0.00408456
C 0.94165340 5.81465182 13.21247253 0.00630469 -0.00111520 0.00701238
C 3.84894835 0.93727413 17.32262091 -0.00006281 0.00937013 0.00456925
C -1.60505353 3.65682918 16.77056928 -0.00842329 0.00318580 -0.00468852
C 6.34670726 8.39844248 13.80888122 -0.00663922 -0.00520717 0.00341878
C -0.22682488 5.96278748 13.98082345 -0.00475989 0.00600379 0.00676616
C 31.37393953 1.36464295 16.35508551 -0.00174490 0.00038438 -0.00314807
C -0.70454592 2.57720748 16.96942519 0.00545105 -0.00359008 -0.00552612
C 5.39528786 7.48346858 13.34682087 -0.00158577 0.00123527 0.00034666
C -1.15977389 6.90097922 13.63956978 0.00038792 -0.00341187 0.00255896
C -7.21670703 2.27505806 16.81102172 -0.00344398 0.00632496 -0.00189542
C -0.91396529 1.73076092 18.03520243 -0.00126917 -0.00434478 -0.00141295
C 5.67957630 6.67003418 12.29086814 -0.00481867 -0.00552147 0.00204267
C -1.01432250 7.63334731 12.43556431 0.00210647 0.00431161 -0.00091770
C -7.42636122 2.96114323 18.09104639 -0.00337141 -0.00244877 -0.00241119
C 1.18336261 2.06063043 12.78614677 -0.00285353 -0.00315457 0.00449790
C 3.73812772 7.03064866 17.77464855 -0.00317998 -0.00355323 -0.00077121
C -2.80756274 7.72386955 17.76216345 -0.00536909 0.00006850 0.00353032
C -5.54023741 2.96874536 12.53504138 -0.00596785 -0.00307565 -0.00773864
C 0.14211374 2.86698622 12.35642956 -0.00599788 0.00129262 0.00063018
C -8.45564709 7.50078533 18.21653020 -0.00186176 -0.00468891 -0.00573725
C -1.77842421 6.89574446 18.15320104 0.00303994 -0.00654946 -0.00357397
C 6.55172384 1.77040262 12.51519466 -0.00320971 0.00507228 0.00224305
C -4.08436926 5.14440926 15.88171049 -0.00304033 -0.00098149 -0.00266103
C -4.54370679 0.53782264 14.84521839 -0.00450043 -0.00443472 -0.00331144
C 2.17123012 4.45611915 14.84835728 0.00083048 -0.00598656 0.00189386
C 2.41000442 9.18666307 16.02474377 -0.00250030 0.00157607 -0.00815965
C -5.19558348 6.22170555 15.81225971 0.00191862 0.00047700 0.00207798
C -3.29586871 1.31979833 14.97812126 -0.00322076 0.00188419 -0.00306065
C 3.41819465 3.67634386 15.15414724 -0.00954432 -0.00547673 -0.00122977
C 1.33409040 8.12754347 15.81053322 -0.00493067 0.00280873 -0.00144423
C -5.69893225 3.47907914 23.46194236 0.00020648 0.00025509 -0.00063938
C -8.60429041 8.25894198 19.36282968 -0.00145381 0.00112986 0.00363513
C -1.86755975 5.98349634 19.25611661 0.00040569 0.00246159 0.00772047
C 0.84353841 1.03071384 23.41984237 0.00263238 -0.00497373 0.00582429
C -4.50936665 3.37481873 22.72691981 0.00058727 0.00343373 0.00037827
C 3.36252660 8.47999960 20.05073816 -0.00169565 0.00059676 -0.00519125
C -3.05595770 6.08666357 20.01181128 -0.00446020 -0.00284456 0.00106615
C -11.13190282 1.10860346 22.62557511 -0.00204331 0.00014025 0.00331416
C -3.55629198 2.47600660 23.21039009 0.00141714 -0.00439327 0.00375113
C 2.40902769 7.60703716 19.65007571 -0.00030581 0.00492150 -0.00121825
C -4.12986183 6.89519975 19.68121257 -0.00041654 -0.00006172 0.00499643
C -10.15682494 1.92073623 23.18463494 0.00033038 0.00309383 0.00502846
C 8.40594370 1.92872069 0.08652078 0.00226031 -0.00145897 0.00654537
C 2.57093839 6.78861434 18.52618230 -0.00347458 0.00322037 0.00898925
C -4.01838387 7.69348534 18.54030826 -0.00867722 0.00014932 0.01721568
C -10.40758533 2.83446362 24.24429214 0.00275169 0.00111359 -0.00195945
C -2.06475125 1.87624534 18.84140313 -0.00628548 0.00302334 -0.00320749
C 0.63834605 6.83174561 23.62219699 0.00487243 0.00120967 0.00295634
C -5.79510317 7.50678038 23.76496646 0.00285586 0.00283259 0.00354507
C -8.66381121 2.81357053 18.72173945 -0.00386011 0.00110939 -0.00238890
C -2.96145089 2.87564401 18.56580306 -0.00188431 0.00261956 0.00307567
C -11.51553189 7.64017704 24.34056136 0.00055748 -0.00650904 0.00189238
C -4.78112368 6.69881302 24.20792674 -0.00659577 -0.00003705 0.00058684
C 3.57442569 1.69024713 18.43916757 0.00097229 0.00015230 0.00050461
C -6.77373476 4.90453030 21.81412783 -0.00406021 -0.00728786 0.00176921
C -7.59032422 0.38234364 20.73224531 -0.00624690 -0.00384944 0.01029589
C -0.75126546 4.42718465 20.71046381 0.00359821 -0.00384632 0.00293067
C -0.34421178 9.37416542 21.94842262 0.00093351 0.00999687 -0.00420887
C -7.87830744 5.91478158 21.63053187 0.00587005 0.00222140 -0.00597934
C -6.49469431 1.36068249 20.91483036 -0.00874146 -0.00812513 -0.00294333
C 0.47519883 3.57037359 20.83068678 -0.00030064 0.00743177 0.00276614
C -1.62139835 8.68354285 21.63353204 -0.00236354 -0.00132981 -0.00253169
C 2.91445953 13.27809547 5.15962740 -0.00770907 0.00406054 0.00284783
C 0.30449172 18.25673120 1.07823064 0.00276490 -0.00228425 -0.00365827
C 6.82856134 15.56147438 0.97546319 0.00309735 -0.00351970 -0.00545892
C 9.46230632 10.76957882 5.16770662 0.00106866 0.00201115 0.00301620
C 4.14334127 13.25317702 4.49791281 -0.00174003 0.00340078 -0.00396115
C 12.37320261 18.05115970 1.55417297 -0.00511988 0.00453877 -0.00398708
C 5.62224422 15.65116298 1.64488402 0.00481491 0.00179999 -0.00453265
C -2.19761588 10.68440628 4.57861270 0.00798532 0.00484985 0.00521067
C 5.16548828 12.38855035 4.90807917 0.00456508 0.00224786 -0.00074785
C 11.32493794 17.27506564 1.19785063 0.00368467 -0.01333282 0.00135097
C 4.67066696 16.55733679 1.16440783 -0.00176937 0.00751467 -0.00358019
C -1.21669483 11.56609011 5.04624649 0.00484115 -0.00439944 0.00136365
C 4.96186513 11.53011526 6.00016172 0.00268066 0.00368170 -0.00410644
C 11.43400827 16.38445803 0.11092569 0.00241115 -0.00860040 0.00965268
C 4.81845960 17.32733401 0.01366904 0.00446967 -0.00518068 -0.00486206
C -1.49475155 12.34870392 6.21610502 -0.00241946 0.00613038 -0.00461929
C 6.96361634 11.55593047 0.70219027 -0.00626700 0.00513598 -0.00066398
C 9.75580959 16.53643566 5.53655255 -0.00540201 0.00462410 0.00066795
C 3.14191277 17.26525613 5.76753894 0.00674376 0.00361349 0.00414727
C 0.21090447 12.31889793 0.47467605 -0.00732591 0.00085488 -0.00229490
C 5.97299911 12.39774418 0.21874816 0.00793981 -0.00229839 0.00968924
C -2.35129329 17.49210605 6.26850226 -0.00353205 -0.00767402 -0.00845499
C 4.05899932 16.27828647 6.07657018 0.00243406 0.00324775 0.00570514
C 12.66204431 11.64303793 0.21410170 -0.00322061 -0.00046499 -0.00462256
C 1.82901057 14.83494085 3.75727332 -0.00565057 -0.00418054 -0.00083661
C 1.56415315 9.70121189 2.68718432 -0.00424953 -0.00635556 0.00265762
C 8.01028865 14.29675068 2.67257142 0.00085332 0.00461791 -0.00314226
C 8.18377916 18.97143410 3.46012401 -0.00130736 -0.00177419 -0.00540398
C 0.75637669 15.81924931 3.59056347 -0.00327330 0.00853939 0.00017830
C 2.92339383 10.23505161 2.85040366 -0.00496533 -0.00011169 0.00133275
C 9.34115385 13.76041461 3.13062871 -0.00139459 -0.00330823 0.00459379
C 7.20271495 17.83183517 3.34631949 0.00407865 -0.00231073 -0.00069105
C 0.20675394 13.45603600 11.33205837 0.00543484 0.00156189 0.00692850
C -2.59558072 18.28247494 7.33325593 -0.00091521 0.01027545 0.00219558
C 3.83980143 15.33157912 7.10904925 -0.00083656 0.00009732 0.00400967
C 6.68984517 10.70886672 11.32024135 0.00228190 0.00068213 0.00103032
C 1.48836007 13.36714162 10.67529384 0.00282233 -0.00137909 0.00051476
C 9.17146489 18.14375930 7.63983277 0.00335435 0.00552369 -0.00344248
C 2.62798050 15.51964561 7.76546022 -0.01046942 -0.00517206 0.00263073
C 34.23856217 10.81714897 10.62856096 0.00379326 -0.00189481 -0.00176387
C 2.31492808 12.39752653 11.05629288 -0.00092605 0.00049137 -0.00131391
C 8.25099096 17.16215906 7.29336333 0.00545520 0.00133478 0.00239060
C 1.68412614 16.45772621 7.37174263 -0.00950015 0.00186595 0.00575852
C -4.25028329 11.59359470 11.13609910 0.00415315 0.00200310 0.00393290
C 2.06190744 11.62508912 12.18853642 0.00279140 -0.00044406 0.00327459
C 8.59073551 16.29300451 6.24217052 0.00049187 0.00740386 -0.00505795
C 1.83017101 17.35127996 6.31125595 0.00207913 -0.00195060 -0.00443719
C -4.40301166 12.42406460 12.23192496 0.00053416 0.00408491 -0.00345964
C 3.68031242 11.53451583 6.70689739 -0.00078158 -0.00428767 0.00077165
C 6.86602851 16.56298240 11.62332731 0.01075590 -0.00596276 0.01048914
C 0.32240314 17.36996263 11.81381394 0.00213634 0.00042624 0.00416764
C -2.78444748 12.23837289 6.77300472 -0.00077072 -0.00431636 0.00504150
C 2.72496772 12.46711883 6.30267151 0.00434264 -0.00047845 -0.00177105
C -5.45005380 17.13808200 12.45406563 -0.00906392 -0.00686755 0.00221091
C 1.18203391 16.47665589 12.33952939 -0.00449721 -0.00730577 0.00198924
C 9.36207580 11.59010773 6.29946364 -0.00628335 0.00104697 -0.00218000
C -0.99652654 14.86062969 9.79600026 0.00170274 -0.00115824 0.00054260
C -1.64698525 9.82177095 8.84009717 -0.00225280 0.00186126 0.00450247
C 5.15280458 14.01191144 8.69783525 -0.00036344 0.00324196 -0.00556414
C 5.36312172 19.05906916 9.58834879 -0.00349977 -0.00084087 -0.00050101
C -2.26129339 15.61817958 9.64072226 -0.00471201 -0.00203469 -0.00597939
C -0.38449848 10.62456867 9.13212176 -0.00762255 0.00677294 0.00161373
C 6.55736215 13.48965558 8.91875742 0.00140173 0.00475439 -0.00029498
C 4.17081474 18.23222738 9.49982463 0.00290531 -0.00357378 -0.00820585
C -3.02691100 13.31043792 17.45909110 -0.00237702 -0.00496334 -0.00490811
C -5.67686625 18.03079881 13.49896595 -0.00466450 0.00246914 0.00483096
C 0.85843346 15.59766772 13.44741526 0.00265248 0.00347652 0.00393790
C 3.55173366 10.70646698 17.43956656 0.00267662 0.00438497 -0.00118075
C -1.86676714 13.16347207 16.73260803 -0.00543361 -0.01137848 -0.00169745
C 6.41749734 18.14168198 13.90828036 0.00473494 -0.00198848 0.00241816
C -0.35388566 15.78654069 14.04937345 0.00350901 0.00597913 -0.00355381
C 31.13057183 10.70677570 16.77549166 -0.00454556 0.00011701 0.00318370
C -0.94646832 12.20301964 17.19167245 -0.00293628 -0.00353643 -0.00514711
C 5.46252973 17.21023215 13.54847553 0.00352932 0.00393274 -0.00332048
C -1.25167330 16.74030147 13.61258503 -0.00444592 0.00168668 0.00275985
C -7.39869600 11.69740202 17.13401684 0.00396657 -0.00328073 -0.00823233
C -1.08504041 11.51286767 18.43485542 0.00449993 0.00473759 0.00171174
C 5.68950382 16.45368986 12.39142375 -0.00167621 -0.00589463 -0.00291800
C -0.98352648 17.45575015 12.44195088 0.00336923 -0.00340661 0.01018368
C -7.74740780 12.56670842 18.13001872 0.00122185 -0.00222101 0.00210055
C 0.83892822 11.64154921 12.76152251 0.00375680 -0.00058006 0.00195276
C 3.71271737 16.35145525 17.81275038 -0.00124623 -0.00183253 0.00295352
C -3.10971108 17.19800081 17.88724937 -0.00237097 -0.00046992 0.00169042
C -5.65132361 12.44791920 12.90770056 0.00684859 0.00214964 0.00674625
C -0.05293399 12.57747324 12.36756964 0.00327414 0.00465088 -0.00676952
C -8.67512676 17.36486606 18.33114574 0.00213766 -0.00149950 -0.00044239
C -2.05603255 16.40557212 18.33746485 -0.00740645 -0.00404601 -0.00177942
C 6.43785220 11.50219973 12.46418779 0.00279530 0.00174892 -0.01174013
C -4.17099159 14.69861135 15.85689077 -0.00576565 -0.00439637 0.00370045
C -4.55251500 9.96810079 14.95349903 -0.00613206 -0.00274005 -0.00321250
C 1.74747860 14.16152767 14.99032297 0.00084237 -0.00280616 0.00403913
C 2.55201856 19.05122200 15.68147899 -0.00086681 0.00671057 0.00524287
C -5.32622958 15.61420598 15.61646648 -0.00408569 -0.00625874 0.00515876
C -3.41222264 10.83665844 15.29509751 -0.00183454 0.00393229 -0.00282512
C 2.78575839 13.14604952 15.35073093 -0.00103097 -0.00076162 0.00283213
C 1.29987700 18.32420425 15.30767715 0.00791307 0.00738079 0.00639084
C -5.91954513 13.31003039 23.54255892 -0.00080362 0.00774809 -0.00649319
C -8.81704046 18.15877718 19.42390321 -0.00224414 -0.00080810 0.00129195
C -2.17180061 15.55809643 19.43776250 -0.00518306 0.00586456 0.00138816
C 0.76440490 10.85342524 23.44109244 -0.00027425 -0.00303995 0.00159064
C -4.68334476 13.24769661 22.93435146 -0.00027905 0.00813478 -0.00050999
C 3.30833773 18.10323638 19.91007168 0.00049765 0.00155400 -0.00015245
C -3.36963744 15.53238853 20.13198888 0.00237872 -0.00284492 -0.00472374
C -11.20092122 10.57068538 22.81688162 0.00306722 -0.00019436 -0.00643429
C -3.70174823 12.37934593 23.21972903 0.01014213 -0.00469163 -0.00711047
C 2.30862579 17.21362914 19.61225133 -0.00010277 0.00470536 -0.01104474
C -4.39192148 16.35521902 19.75515623 -0.00874220 0.00523370 0.00063492
C -10.26296954 11.51824151 23.25903943 0.00664952 -0.01357945 -0.00209713
C 8.18424015 11.59001199 0.00522676 0.00380701 0.00272181 0.00293012
C 2.49570018 16.32006905 18.51824409 0.00403346 -0.00471580 0.00155055
C -4.30771039 17.21223844 18.65503414 0.00331354 -0.00520747 0.00646883
C -10.49947626 12.40554067 24.35012452 -0.00215720 -0.00730543 0.00360250
C -2.32265634 11.65907237 19.11463647 -0.00439150 -0.00017156 0.00060064
C 0.67197572 16.17636713 23.95616814 0.00259261 -0.00416877 0.00140851
C -5.93359818 17.27341964 23.78415785 -0.00037563 -0.00491492 0.00608397
C -8.96061416 12.47868453 18.85329445 -0.00187048 0.00226317 0.00530768
C -3.30513642 12.46738372 18.56749383 0.00526204 -0.00041811 0.00582574
C -11.56981903 17.56635725 24.29246835 0.00079236 0.00335022 0.00442645
C -4.97045384 16.37226341 24.24193336 0.00498369 0.00438248 0.00085867
C 3.32213168 11.71094846 18.35331535 0.00237410 0.00464816 -0.00692265
C -7.22982690 14.63297954 21.97114037 -0.00375673 0.00470121 0.00528102
C -7.36979893 9.78513349 20.83171106 -0.00412420 0.00320070 0.00440280
C -0.89254809 14.18214757 20.93854229 -0.00198262 -0.00199817 0.00915667
C -0.79670969 18.96606682 21.76397268 0.00063513 -0.00040258 -0.00011467
C -8.47025592 15.37934007 21.97958252 -0.00451345 -0.00335646 0.00903317
C -6.14368505 10.66868768 20.82707409 -0.00258362 -0.01085511 -0.00102871
C 0.25975465 13.31331592 21.07406965 -0.00189403 0.00366442 0.00179574
C -2.16673812 18.37938932 21.68435284 -0.00380048 0.00298840 -0.00221481
C 3.04547221 23.13872195 5.07358984 -0.00811082 0.00231008 -0.00458820
C 0.35393721 27.91066679 0.91664324 0.00623080 -0.00618814 -0.00071424
C 6.92889529 25.39890993 0.85521953 -0.00019567 0.00367444 0.00290495
C 9.49318394 20.40390041 4.93017912 -0.00312418 0.00338248 -0.00485658
C 4.29508288 23.10989350 4.42158828 -0.01254579 0.00278127 -0.00332405
C 12.50676241 27.58828972 1.72115449 0.00473281 -0.00653194 -0.00320876
C 5.76045199 25.45927501 1.50647738 -0.00068657 -0.00172905 -0.00079463
C 37.31728682 20.59894222 4.41253169 -0.00230356 0.00828440 -0.00649766
C 5.32619102 22.30918283 4.80762193 0.01038454 -0.00241348 -0.00532299
C 11.41102480 26.84794572 1.29250307 -0.00304713 -0.00483083 0.00027471
C 4.80890571 26.43265749 1.28142737 0.00479858 0.00928347 0.00519892
C -1.28357449 21.50701804 4.89460374 -0.00150293 0.00482668 0.00166866
C 5.12362265 21.41870102 5.86797986 0.00436653 -0.00133843 0.00113234
C 11.48888086 26.07485808 0.15416221 -0.00206531 0.00143092 -0.00482626
C 4.99394674 27.35866964 0.21813936 -0.00033117 -0.00060850 -0.00035151
C -1.52668731 22.36010615 6.04120873 -0.00313660 0.00302640 -0.00079206
C 6.89189383 21.42948038 0.35326922 -0.00114762 0.00339807 0.00028285
C 9.55355547 26.03640395 5.38969994 -0.00413697 -0.00626915 -0.00089692
C 3.08268716 26.97984299 5.45065151 -0.00181431 -0.00585538 0.00305200
C 0.41170362 22.26499333 0.59342322 -0.00071708 -0.00484828 -0.00721164
C -6.08213387 22.38887681 24.30971861 0.00784681 0.00443103 0.00508067
C -2.35360764 27.03267237 5.96349166 -0.00360476 0.00425787 -0.00153290
C 4.13900088 26.25399699 5.94575333 0.00094545 -0.01007037 0.00008447
C 12.48422093 21.03789232 0.05279211 0.00166969 0.00269545 -0.00058187
C 1.87980054 24.51368701 3.37354015 0.00429323 -0.00532166 -0.00228124
C 1.54198186 19.74635598 2.54948777 -0.00168151 0.00447162 -0.00125311
C 8.11117057 23.80086754 2.24834792 -0.00434085 -0.00468271 0.00279828
C 8.34061675 28.79403426 3.63560553 -0.00051749 -0.00039049 -0.00253680
C 0.75786245 25.44787764 3.10558340 0.00237866 0.00421884 -0.00342624
C 2.86102575 20.49791700 2.58388255 -0.00768873 0.00230112 0.00174604
C 9.25007853 22.86875486 2.33114474 0.00030440 -0.00122152 0.00475495
C 6.96545656 28.23367220 3.46560303 -0.00341722 -0.00159439 -0.00596707
C 0.35286277 22.98168258 11.29247507 -0.00434446 0.00267108 0.00201979
C -2.44738922 27.87368027 7.13941624 -0.00381438 0.00012710 0.00321499
C 3.94741405 25.41312908 7.06356288 0.01018971 0.00035430 0.00175383
C 6.72049925 20.39290637 11.10836307 -0.00579643 0.00234722 0.00216918
C 1.59125836 22.88810156 10.62621548 -0.00723776 0.00180660 -0.00078160
C 9.10126523 27.80537663 7.56595692 0.00019404 0.00529094 0.00340473
C 2.67560507 25.38856531 7.65239216 -0.00687105 0.00526590 -0.00126948
C -5.17169174 20.71010506 10.56578138 0.00738106 0.00297229 0.00409376
C 2.61503313 22.15004521 11.15342758 -0.00037519 -0.00457153 -0.00001787
C 8.13884248 26.94350012 7.12840837 -0.00604005 -0.00167837 -0.00839706
C 1.65534072 26.29550072 7.25123805 -0.00219520 -0.00198933 -0.00341209
C -4.17311060 21.49405071 11.01727383 0.00682970 -0.00543615 -0.00125637
C 2.40804092 21.32562782 12.29807760 0.00743356 -0.00358714 0.00299549
C 8.28191530 26.04228735 5.98091503 0.00357419 0.00484438 -0.00217630
C 1.86462139 27.09213058 6.15474856 0.00132341 -0.00481525 -0.00820466
C -4.36796300 22.31337107 12.14624257 0.00096078 0.00468256 -0.00053164
C 3.87614235 21.47463632 6.49953409 -0.00647768 0.00509075 -0.00191124
C 6.93270739 26.10590279 11.57470817 -0.00043054 -0.00060852 -0.00644025
C 0.21535523 26.87082100 11.66860710 -0.00242297 0.00125092 0.00218483
C -2.74322040 22.21123950 6.66312747 0.00612999 0.00296120 0.00555473
C 2.86300499 22.33798596 6.16713586 0.00000834 -0.00338006 -0.00436795
C -5.46291182 27.15224937 12.27606816 -0.00123495 0.00394463 0.00343186
C 1.16886969 25.93403556 12.13175549 0.00094963 0.00319248 -0.01096634
C 9.33188902 21.20859099 6.06227556 -0.00387786 0.00249552 -0.00395109
C -0.85698198 24.33339250 9.68340892 -0.00136542 -0.00341441 -0.00490839
C -1.48485071 19.75816867 8.90972122 -0.00065031 -0.00482680 -0.00884100
C 5.10175660 24.04227035 8.67260021 0.00252763 0.00369372 -0.00442339
C 5.41034335 28.55911279 9.79114705 0.00243495 0.00455420 -0.00291738
C -2.22029612 24.96996249 9.49567681 -0.00693414 0.00894863 -0.00957017
C -0.37060626 20.74313265 9.11910633 0.00391840 0.00552196 -0.00859129
C 6.25359878 23.06693182 8.90390244 0.00349600 -0.01537431 0.00365157
C 4.18066111 27.70808581 9.57678341 -0.00038211 0.00320974 -0.00527225
C -2.91809487 22.97017305 17.34364702 -0.00180435 -0.00470687 0.00203808
C -5.75755500 27.97926847 13.31969148 0.00305324 -0.00211095 0.00081015
C 0.92591667 25.14880783 13.21899923 0.00228972 -0.00099614 0.00273853
C 3.77029149 20.34503870 17.35564952 -0.00005884 0.00403083 0.00043328
C -1.81614929 22.87471890 16.45666998 -0.00561417 -0.00350338 0.00281033
C 6.69668130 27.49641336 13.82212263 -0.00130539 0.00346372 -0.00230605
C -0.33685506 25.23158080 13.91180366 -0.00638479 -0.00334760 -0.00117480
C -8.24919263 20.29545543 16.77065921 -0.00001121 0.00562092 -0.00069011
C -0.86961617 21.89273272 16.78503227 -0.00120738 0.00175008 0.00356494
C 5.73048564 26.58137018 13.53971206 0.00087565 0.00498367 0.00341574
C -1.24071441 26.12730021 13.47042411 0.00226092 0.00568161 0.00132425
C -7.23970092 21.14087833 17.12897028 0.00134213 -0.00006323 0.00402596
C -0.97748116 21.01946821 17.88276502 -0.00675801 -0.00797719 -0.00125687
C 5.77921428 25.90625075 12.29058052 -0.00386744 0.00223341 -0.00618714
C -0.99490035 26.99197601 12.34460687 -0.00144940 -0.00022126 -0.00349757
C -7.38999889 21.96252743 18.25684471 -0.00201108 0.00467422 0.00149995
C 1.17931198 21.32866358 12.85831899 -0.00212287 0.00019841 -0.01142078
C 3.84662114 26.11235383 17.74191694 0.00797388 0.00312428 -0.00421259
C -2.61540008 27.08132850 17.86414732 -0.00056388 0.00308188 0.00802750
C -5.61204748 22.19575547 12.82962209 -0.00345131 -0.00104880 0.00230369
C 0.13673654 22.05528989 12.25719033 -0.00026966 0.00047645 -0.00592094
C -8.38727797 26.95500150 18.07734533 0.00410987 -0.00262289 -0.00574954
C -1.73085272 26.11336080 18.30076319 -0.00068963 0.00232892 -0.00601566
C 6.60040799 21.14096017 12.32279685 0.00390459 -0.00646009 -0.00757381
C -4.40346766 24.27877291 15.96941286 0.00448411 0.00939163 -0.00434974
C -4.65524961 19.56524442 15.07907974 0.00451203 -0.00726169 -0.00157159
C 1.99547834 23.73840200 14.89001427 0.00993820 -0.00756950 -0.00429328
C 2.77227602 28.49995291 15.58831050 -0.00035305 -0.00672929 0.00238515
C -5.44122900 25.35275445 15.77869832 0.00179848 -0.00103743 -0.00119011
C -3.63353566 20.65511718 15.29975989 0.00584951 -0.00145513 -0.00448377
C 3.18821984 22.82558072 15.17820085 0.00306967 0.00253653 -0.00339600
C 1.67764592 27.42437214 15.44913460 -0.00007987 -0.00132982 -0.00480012
C -5.76744629 23.19021801 23.20172160 -0.00032468 0.00413355 -0.00009546
C -8.64470778 27.75957997 19.22191898 -0.00191227 -0.00993736 -0.00704352
C -2.04416601 25.27593749 19.37736362 0.00295629 -0.00379743 0.00872838
C 0.62738769 20.28897362 23.21702339 0.00323727 0.01162935 0.00009518
C -4.61419229 23.01099642 22.53006431 0.00593299 0.00096804 -0.00911828
C 3.48447228 27.87542382 19.91023839 0.00468658 0.00911171 0.00403788
C -3.27004186 25.43864546 20.04978487 0.00072946 -0.00186821 -0.00121242
C 28.22300969 20.65645371 22.77844216 -0.00500571 -0.00233446 0.00360222
C -3.85059538 21.90352547 22.82414060 0.00350237 0.00336252 -0.00793872
C 2.51072999 26.96263509 19.62934700 0.00880602 -0.00883509 0.00172681
C -4.12080863 26.50550115 19.68145312 -0.00289755 -0.00050217 -0.00283341
C -10.27145298 21.51817799 23.18211011 -0.00173489 -0.00040563 -0.00507107
C -4.01923710 21.15425000 23.97500039 0.00293367 -0.01018373 -0.00138859
C 2.68720133 26.06080212 18.58642480 0.00102577 -0.00698889 -0.00080530
C -3.89085085 27.14934524 18.45707107 0.00113709 0.00072250 -0.00665136
C -10.47398182 22.45538300 24.25519627 0.00435669 -0.00181619 -0.00524539
C -2.16062982 21.10333264 18.66333601 -0.00147560 -0.00414504 0.00032360
C 0.64709229 25.95092587 23.73333041 0.00531235 -0.00030377 -0.00050703
C -5.80077304 27.29098689 23.90236004 0.00800322 -0.00006767 -0.00654592
C -8.66302723 22.04316438 18.83541662 0.00325314 -0.00872377 0.00271808
C -3.00479595 22.11641586 18.44447022 0.00296514 0.00462664 0.00242400
C -11.39930103 27.14604798 24.15757627 -0.00344260 -0.00764247 -0.00568814
C -4.88084032 26.32894908 24.20877136 -0.00412929 -0.00285318 0.00070939
C 3.59217388 21.26086553 18.36758421 -0.00631360 -0.00564786 -0.00409529
C -7.01242294 24.56110757 21.65713245 -0.00258987 0.00307609 0.00339617
C -7.52286111 19.67115844 20.79629118 0.00096154 0.00318514 0.00103622
C -0.81836653 23.88385290 20.96030473 0.00112913 0.00217797 0.00350746
C -0.35298828 28.61850507 21.82972302 0.00220037 0.00202581 -0.00036424
C -8.36128004 25.33220082 21.51544018 -0.00003868 -0.00001916 -0.00027317
C -6.38546078 20.61313932 20.90800031 -0.00697622 0.00328420 -0.00951596
C 0.37196083 23.00369249 21.23480488 0.00373903 -0.00606142 0.00055915
C -1.52577216 27.75035498 21.51955533 0.00732464 -0.00877241 -0.00184968
C 16.47445875 3.85363013 5.19943539 -0.00546687 0.00625258 0.00395111
C 13.59354663 8.37289448 0.76752968 0.00251296 0.00709277 0.00249380
C 20.41839399 5.87921870 0.99549779 -0.00683138 0.00534122 -0.00262392
C 23.08917670 1.14177543 5.12745072 0.00425668 0.00369324 -0.00122778
C 17.65906876 3.68620084 4.39707480 0.00463336 0.00608176 -0.00247806
C 25.66257082 8.56528161 1.65722448 -0.00644930 0.00332180 -0.00054850
C 19.19766313 5.98924632 1.67840550 -0.00086996 -0.00586644 0.00255352
C 10.89744097 1.19940969 4.42594324 -0.00315166 -0.00073376 0.00136345
C 18.66247599 2.85831738 4.85480339 0.00286077 -0.00111917 -0.00788685
C 24.68404703 7.64130758 1.31133032 0.00727622 0.00287203 0.00494437
C 18.23020145 6.86456744 1.30856852 -0.00332750 -0.00669874 0.00501351
C 11.93461479 2.08210103 4.80851345 -0.00263796 -0.00038039 -0.00527674
C 18.54780358 2.13550916 6.10697023 0.00157288 -0.00075963 -0.00082364
C 24.91801471 6.78183455 0.18026089 0.00117996 0.00125756 0.00059285
C 18.46442913 7.69520739 0.18781877 -0.00626052 0.00066331 0.00302748
C 11.82341999 2.88743972 6.00565552 -0.00153453 0.00059028 -0.00010822
C 20.10887213 2.02290803 0.35242837 0.00247180 0.00217624 0.00148661
C 23.14681979 6.95944680 5.59454445 0.00322897 0.00177802 0.00273182
C 16.40683123 7.72165345 5.38121690 0.00043393 0.00374176 0.00168541
C 13.83247183 2.70944113 0.56026670 0.00062067 0.00432928 0.00500094
C 7.19945401 3.02516451 24.36075346 0.00615029 -0.00313049 -0.00581294
C 10.73269374 7.79391767 5.88148110 -0.00579176 0.00058299 0.00271679
C 17.47223346 6.96593114 5.73182424 0.00025931 0.00319534 -0.00012104
C 13.72718695 1.98344325 24.33747383 -0.01026394 0.00076197 0.00153300
C 15.18422625 5.02893593 3.59346817 0.00225764 0.00035132 0.00328266
C 14.93625735 0.23898779 2.32651424 0.00028568 0.00799699 0.00591972
C 21.59444199 4.45864099 2.48351103 0.00550866 -0.01051492 0.00168624
C 21.53172626 9.47941905 3.79134142 -0.00138709 0.00268491 -0.00092148
C 14.04108983 5.99191783 3.35981177 0.00179580 0.00051623 0.00166699
C 16.22893632 0.98067167 2.54337068 0.00082280 0.00234384 -0.00128078
C 22.86212615 3.63120915 2.55969312 0.00047764 -0.00319733 -0.00270426