2880
Time=78000.00000008 pbc="T T T" Lattice="39.30556737 0.00000000 0.00000000 0.00000000 29.04347807 0.00000000 -12.04334271 0.00000000 24.46400150" energy=-18396.07733059 virial="1.64159883 10.47483232 -35.16448922 10.47483232 -12.78563550 10.07885102 -35.16448922 10.07885102 -30.22120876" stress="0.00265555 0.00041312 -0.00130393 0.00041312 0.00204205 0.00037704 -0.00130393 0.00037704 0.00143745" Properties=species:S:1:pos:R:3:vel:R:3
C 3.19855865 3.73088334 5.32618786 -0.00392541 0.00034007 -0.00007262
C 0.56190581 8.42294426 0.98038686 -0.00429558 0.00127682 -0.00465403
C 7.03703681 6.02376756 0.82166622 -0.00064395 0.00557729 0.00276798
C 9.50820764 0.95813446 4.96165071 0.00004707 -0.00358177 -0.00612116
C 4.34280686 3.57214332 4.59298211 -0.00542703 0.00445709 0.00204190
C 12.47551105 8.45925406 1.63160836 -0.00025245 0.00831298 0.00056757
C 5.82102992 6.17313476 1.48756756 -0.00602219 -0.00491992 -0.00352933
C -2.23778852 0.97548802 4.60090788 -0.00000616 0.00316365 0.00745055
C 5.32111660 2.63839854 4.87490772 -0.00098160 0.00549029 0.00211522
C 11.44619934 7.61870924 1.27757683 0.00684921 -0.00368528 -0.00389875
C 4.93173343 7.09344806 0.99721617 0.00151398 -0.00071620 0.00673580
C -1.29267867 1.94144242 4.95691936 -0.00617732 0.00316375 -0.00010320
C 5.14433491 1.84491122 6.06851442 -0.00197761 0.00191881 0.00200234
C 11.58884572 6.73143724 0.18859044 0.00508929 -0.00239491 0.00659719
C -6.98604148 7.67813644 24.18946133 -0.00351342 -0.00430333 0.00294059
C -1.50675621 2.77688691 6.14174901 -0.00378966 0.00181779 -0.00359819
C 6.93940686 2.11220028 0.47879487 0.00455833 0.00029270 0.00004096
C 9.83380862 6.73596678 5.67000646 0.00394100 0.00034220 0.00708394
C 3.15616956 7.77436687 5.48342225 0.00372591 -0.00089411 0.00219892
C 0.33465677 2.53530929 0.61735177 -0.00139887 0.00053452 -0.00177432
C 5.90296916 2.94536329 0.00904108 0.00444215 0.00040348 -0.00279313
C -2.48525269 7.68687034 5.95992214 -0.00453091 0.00093732 0.00852270
C 4.19105508 7.05608718 6.02220302 -0.00761059 -0.00186929 -0.00174432
C 12.67963922 1.86735259 0.03056140 0.00098537 0.00183610 0.00481997
C 1.75605726 4.93445096 3.78175250 -0.00167304 -0.00404945 -0.00456311
C 1.46690272 0.17183389 2.85273223 0.00107619 -0.00530206 0.00586666
C 8.12656418 4.75640954 2.55833097 0.00606126 -0.00744085 0.00060805
C 8.61092403 9.36216687 3.48294548 0.00135184 -0.00039394 0.00120286
C 0.58104485 5.87406613 3.61735131 -0.00180832 -0.00106659 0.00144171
C 2.54781223 1.15945416 3.20164468 0.00702481 0.00094054 -0.00461982
C 9.32699344 3.85991636 2.79951017 0.00801382 -0.00061792 -0.00357667
C 7.43302212 8.38139257 3.29956311 0.00453393 0.00073507 0.00293648
C 0.08454158 3.81474636 11.43801722 0.00369228 0.00698715 -0.00019451
C -2.70743473 8.56503771 7.01253508 -0.00304160 0.00779566 -0.00288127
C 3.96192917 6.13415754 7.10631942 -0.00068706 -0.00217222 0.00286605
C 6.71401445 1.21770632 11.22682222 0.00766928 0.00431955 -0.00007076
C 1.29196816 3.71125094 10.64464433 -0.00612194 -0.00187893 -0.01077535
C 9.51964768 8.36154951 7.86910774 -0.00142518 0.00624290 0.00338694
C 2.73361245 6.24032478 7.77496695 0.00292254 0.00364758 -0.00458356
C -5.13277242 1.16352689 10.76013287 0.00208967 -0.00914813 0.00175110
C 2.31677729 2.98495234 11.09509998 0.00191532 -0.00067788 -0.00074452
C 8.52146446 7.48130937 7.51692945 -0.00512181 0.00121233 -0.00036005
C 1.73813280 7.14598700 7.30381275 0.00433594 0.00392851 0.00331753
C -4.23938196 2.12140851 11.16668527 0.00195691 -0.00759245 -0.00384003
C 2.25537568 2.19327824 12.28287789 -0.00136458 -0.00101905 0.00368024
C 8.61774899 6.72946351 6.29302777 0.00469499 -0.00393264 0.00424916
C 1.92487532 7.90681513 6.19525926 0.00186860 0.00557154 0.00818883
C -4.56139274 2.92537359 12.35888226 -0.00103325 -0.00013557 -0.00429817
C 4.06581845 2.12675483 6.90991435 0.00067672 0.00192323 -0.00090489
C 6.59358306 6.88556511 11.59222176 0.00124824 -0.00329384 -0.00355444
C 0.20118749 7.63423627 11.66688321 0.00501968 0.00248521 -0.00100807
C -2.79869507 2.73401482 6.72899056 0.00133253 0.00009459 0.00357113
C 3.10039388 3.00347787 6.49446853 0.01040796 -0.00160710 0.00424782
C -5.45179800 7.76244117 11.88641722 0.00462895 0.00660367 0.00661799
C 1.15007718 6.78652282 12.12367529 0.00242205 -0.00541079 -0.00082455
C 9.23160783 1.83085706 6.05636014 0.00423661 0.00005692 -0.00407583
C -1.17795909 5.07898543 9.76954266 -0.00065910 -0.00462059 -0.00382602
C -1.27778248 0.34364425 8.75115563 0.00285329 -0.00047754 0.00063622
C 5.17042777 4.70603814 8.67217522 -0.00859210 -0.00040839 0.00853599
C 5.41313464 9.52156911 9.74201966 -0.00028566 0.00396563 0.00538460
C -2.48992809 5.88107125 9.65478121 -0.00253053 -0.00500166 0.00191866
C -0.01195056 1.13669289 8.72060350 -0.00011256 -0.00248120 0.00114876
C 6.36343878 3.82762517 8.92024108 -0.00186568 -0.00079721 -0.00831877
C 4.11320589 8.90431258 9.60045663 -0.00160783 0.00646400 0.00553676
C -2.94173829 4.00699155 17.35841174 -0.00198238 0.00780992 -0.00186640
C -5.58830040 8.62217239 12.99239816 -0.00204026 0.00293615 -0.00395150
C 1.05845827 5.99503899 13.25064420 0.00124920 -0.00206641 0.00651975
C 3.58276362 1.08740674 17.34217452 0.00056855 -0.00643769 -0.00143505
C -1.72087382 3.75176927 16.67327529 -0.01045808 -0.00362428 -0.00691944
C 6.31067311 8.52093506 13.74284592 -0.00520238 -0.00075289 -0.00065275
C -0.15698417 6.17839977 13.96363891 0.01025223 -0.00246990 0.00585195
C -8.10820175 1.29850190 16.81056210 0.01059920 0.00530444 -0.00410433
C -0.90365018 2.71071597 17.11807650 -0.00536048 -0.00227740 0.00300778
C 5.25876393 7.74433653 13.37317698 0.00469477 0.00488629 0.00376337
C -1.16111877 6.98357555 13.48817320 -0.00213660 0.00086477 -0.00100578
C -7.12046216 2.04605555 17.27351322 -0.00617467 0.01186303 0.00918994
C -1.19297108 1.89440001 18.20886482 -0.00536852 0.00190277 0.00724370
C 5.36670312 6.87410737 12.24723750 0.00271903 0.00167104 0.00394828
C -1.00908272 7.75890733 12.35289610 0.00748211 -0.00195428 -0.00035426
C -7.37746817 2.90586060 18.40153943 0.00378030 0.00117278 -0.00084909
C 1.00013151 2.09976980 12.87796819 -0.00411340 -0.00847479 0.00201456
C 3.69149887 7.01763583 17.79600207 -0.00262012 0.00251891 -0.00248548
C -2.64449177 7.78466990 17.80220292 0.00359810 -0.00044937 0.00141839
C -5.82334761 2.74964047 12.91723720 0.00530862 0.00632933 0.00101758
C -0.06193626 2.88080590 12.49313387 -0.00605444 0.00400098 0.00254196
C -8.50095822 7.66296313 18.09551843 0.00300529 -0.00239515 0.00393512
C -1.67701414 6.86816951 18.26266720 0.00578510 0.00473371 0.00457394
C 6.53970521 2.15340263 12.26930431 0.00134247 -0.00299538 0.00302415
C -4.18341955 5.41264314 15.81042346 -0.00491824 0.00326725 0.00984218
C -4.58832743 0.56229315 14.89682141 -0.00049599 -0.00184242 0.00037785
C 2.09253670 4.66156384 14.89623577 0.00348238 -0.00223604 -0.00231509
C 2.45267514 9.38829094 15.94177848 0.00445559 0.00057378 0.00601388
C -5.44495535 6.20187272 15.80239324 -0.00373675 0.00643412 -0.00044512
C -3.41556769 1.43238172 15.09537804 0.00945809 0.00028539 0.00495354
C 3.40486076 3.92911807 15.27348138 0.00642298 0.00098095 -0.00214346
C 1.11879001 8.75031615 15.69671860 0.00453082 -0.00032073 0.00035268
C -5.99718495 3.76249715 23.26646555 0.00012204 -0.00014310 -0.00098487
C -8.61948344 8.53280898 19.19177779 -0.00255052 -0.00144638 -0.00267077
C -1.99313995 6.11273551 19.41893052 0.00167232 -0.00304840 -0.00732611
C 0.79633420 1.10968925 23.31362279 0.00009909 -0.00910641 -0.00221862
C -4.72744129 3.66286466 22.60826949 -0.00330415 0.00412600 -0.00557545
C 3.36902590 8.60563635 19.94799992 0.00165878 0.00635178 -0.00097081
C -3.18801126 6.25593347 20.11850070 -0.00744237 0.00122808 -0.00781922
C -11.13478291 0.83803871 22.85005196 -0.01171150 -0.00321412 -0.00003414
C -3.74859224 2.72874765 22.99659386 -0.00256001 0.00107929 0.00143445
C 2.35469585 7.74898024 19.62562848 -0.00685888 -0.00087188 0.00805735
C -4.08400632 7.18589712 19.67053360 -0.00068938 0.00472260 -0.00486864
C -10.22404177 1.76008995 23.35564239 0.00630538 -0.00085807 -0.00399663
C -3.90820452 2.02870782 24.22495803 0.00601185 -0.00303636 -0.00431697
C 2.47994602 6.95814316 18.47265916 -0.00292731 0.00403970 0.00004501
C -3.78766825 8.03683590 18.54302011 -0.00195235 0.00270675 0.00110045
C 1.63863724 2.58398876 0.02712739 -0.00222595 0.00200170 -0.00337842
C -2.37468895 2.14331188 18.85252015 -0.00675152 -0.00197177 -0.00181346
C 0.68898782 6.94578746 23.83119801 -0.00213641 -0.00162062 -0.00703271
C -5.71749846 7.56380622 23.59975129 0.00584823 0.00026710 -0.00731699
C -8.57682696 2.80363916 19.09601648 -0.00365307 -0.00648268 -0.00141732
C -3.20405882 3.13695914 18.43191920 -0.00138862 -0.00019575 -0.00246611
C 0.87240354 7.46041631 0.02372987 0.00187465 0.00683616 -0.00158018
C -4.76760793 6.79535334 24.10923613 0.00391486 0.00661891 0.00108877
C 3.29723513 2.04907612 18.29455810 -0.00817963 -0.00428902 0.00154943
C -7.22122607 5.22144686 21.81598825 0.00327290 -0.00529125 0.00309383
C -7.43927574 0.10063881 21.15106096 -0.00055330 0.00004692 -0.00138108
C -0.80873208 4.61006016 20.94169415 0.00398291 -0.00455135 -0.00206505
C -0.34599091 9.42157936 21.82913777 -0.00626664 -0.00151351 0.00318229
C -8.49050737 5.91832004 21.54790634 0.00731241 0.00411220 -0.00394939
C -6.31576526 1.00546485 21.18921176 -0.00127990 0.00222859 -0.00662809
C 0.27553448 3.64399865 20.95884426 0.00506664 0.00002060 0.00060178
C -1.53393779 8.55505449 21.50207019 0.00484063 0.00172553 -0.00159897
C 3.19485787 13.25733067 5.06219147 -0.00687029 0.00100592 0.00066425
C 0.64776142 18.20138334 0.84454279 0.00095202 -0.00196056 -0.00680808
C 6.95632654 15.61220473 1.12381842 0.00804139 0.00147814 -0.00397705
C 9.91257184 10.44420844 5.20260611 0.00085799 0.00120222 0.00258182
C 4.35546846 13.05185034 4.32176494 0.00164210 0.00032224 -0.00431640
C 12.44164500 18.23515079 1.70199710 -0.00447071 -0.00240320 -0.00403053
C 5.68847119 15.63963386 1.74319889 -0.00416780 0.00027800 0.00352745
C 36.99762748 10.97848989 4.19533766 -0.00189438 0.01318033 -0.00072740
C 5.30511334 12.21821600 4.75634862 -0.00119419 -0.00603474 -0.00428435
C 11.57076450 17.26699255 1.29185679 -0.00212732 0.00856277 0.00036479
C 4.70928042 16.53092590 1.27326713 -0.00578116 -0.00348071 0.00560530
C -1.27059220 11.74342189 4.60776673 -0.00291849 -0.00699329 -0.00522780
C 5.14122779 11.45412971 5.85820219 0.00295633 0.00029157 -0.00841320
C 11.72200700 16.58334933 0.07439266 0.00507825 -0.00953026 0.00905616
C 4.93436699 17.34472205 0.12793626 0.00875644 0.00540638 -0.00920300
C -1.26837523 12.39478875 5.89608441 -0.00713335 -0.00795780 0.00705410
C 6.89897021 11.59336500 0.20307585 0.00556395 -0.00078284 0.00105048
C 10.09593868 16.72261086 5.62160176 0.00126980 -0.00304875 -0.00062034
C 3.29269071 17.33241283 5.61565708 -0.00157206 -0.00173732 -0.00123287
C 0.49265255 12.42502704 0.60081072 0.00014829 -0.00269443 0.00279157
C -5.95837082 12.66408008 24.41639447 0.00048509 0.00038133 0.00555024
C -2.22825747 17.54379536 6.03097727 -0.00474637 0.00635793 0.00953627
C 4.21877828 16.39213081 5.96492570 0.00431043 -0.00589929 -0.00066213
C 12.82466065 11.51116042 0.15670794 -0.00430967 0.00418245 -0.00269732
C 1.88124939 14.82893835 3.62658234 -0.00175416 -0.00212945 -0.00115523
C 1.60066366 9.99646887 2.51869884 -0.01189204 -0.00204192 -0.00059013
C 8.23997551 14.21223384 2.62516757 -0.00279172 -0.00782005 -0.00500519
C 8.29236532 19.06145853 3.88841817 0.00333948 0.00097330 -0.00450891
C 0.65698999 15.63047191 3.67558892 0.00007233 -0.00259179 -0.00239920
C 2.61902646 11.03544446 2.57878795 0.00655361 -0.00809542 -0.00423800
C 9.40630741 13.29338444 2.57955490 -0.00710328 -0.00673529 0.00178444
C 7.14885368 18.08638606 3.81567403 -0.00125796 0.01089845 0.00432752
C 0.12628310 13.53971690 11.08848741 -0.00054389 0.00775438 -0.01025657
C -2.58845085 18.33142733 7.09690283 -0.00339031 -0.00011665 -0.00274263
C 4.03091120 15.48693933 6.96706684 0.00659844 -0.00014490 -0.00150984
C 6.70062404 10.79095114 11.33406427 -0.00018629 0.00103416 0.00671485
C 1.39950216 13.41669058 10.48498352 0.00515488 0.00792745 0.00051877
C 9.57304415 18.14139917 7.93434427 -0.00559489 0.00421589 0.00353335
C 2.81607861 15.52234388 7.63810644 0.00765944 -0.00000373 -0.00735179
C 34.17831219 10.97886484 10.40920760 0.00014830 0.00302986 -0.00631504
C 2.21993756 12.37780267 10.80082352 -0.00101788 -0.00375352 0.00447811
C 8.70300766 17.19191097 7.55818338 -0.00481871 0.00069653 0.00103671
C 1.82332880 16.37942519 7.31429717 0.00299460 -0.00247140 0.00246156
C -4.20830972 11.87983262 10.84696342 0.00708949 -0.00191593 0.00320605
C 1.91172535 11.63650564 11.91555772 0.00200922 0.00184246 0.00088169
C 8.97194012 16.44990389 6.36260635 -0.00130343 -0.00507705 -0.00037210
C 2.03622925 17.36968156 6.30149233 0.00474285 0.00414357 -0.00317156
C -4.39496650 12.60090697 12.08787517 0.00381254 0.00058762 0.00306662
C 3.95753875 11.50747359 6.56464428 0.00209581 0.00920588 0.00316545
C 6.95686093 16.59313890 11.67039688 -0.00518265 -0.00512250 -0.00540599
C -0.08458886 17.23177715 11.47111984 -0.00666430 -0.00044640 -0.00571400
C -2.49792851 12.31651118 6.63911715 0.00144390 0.00744008 0.00510294
C 3.00299842 12.34977559 6.14925521 0.00074190 -0.00595390 0.00005585
C -5.67375007 17.62563947 11.96849403 0.00096883 0.00438505 0.00248242
C 0.95313878 16.44699730 11.96412405 0.00506296 0.00184686 0.00516107
C 9.74775415 11.28602518 6.35639730 -0.00453180 -0.00022371 0.00025482
C -1.06416967 14.81510136 9.33092698 0.00091751 0.00429483 -0.00548729
C -1.60504143 10.07718310 8.60911382 -0.00192801 -0.00205822 -0.00210045
C 5.23365858 14.05345938 8.55286792 0.00115416 0.00270402 0.00679771
C 5.32880776 18.74258332 9.82961306 0.00406707 0.00117569 -0.01241710
C -2.31990392 15.54507486 8.93271316 0.00430423 0.00717927 0.00520515
C -0.49482142 11.00324253 8.89378639 -0.00568735 -0.00708963 -0.00487864
C 6.35872006 13.09638714 8.77146420 0.00298438 -0.00870646 0.00604108
C 4.09643629 17.82519269 9.75513545 -0.00441062 0.00314149 -0.00106430
C -2.67094274 13.53684467 17.45608354 0.00783217 -0.00016046 0.00081930
C -5.77103803 18.34226217 13.16757526 0.00276409 -0.00811381 0.00041679
C 0.93235823 15.62888542 13.12194517 0.00220601 0.00833444 -0.00603710
C 3.60697191 10.83385458 17.33769612 0.00230341 0.00245634 -0.00135325
C -1.39121548 13.50806861 16.80386920 0.00081459 -0.00527932 -0.00317323
C 6.36144526 17.98284559 14.01924634 -0.00961463 0.00160277 -0.00366707
C -0.25244118 15.81345797 13.87292945 0.00028978 -0.00663458 -0.00013451
C 31.07110854 10.81089810 16.51536666 -0.00082225 0.00344713 -0.00231281
C -0.42953013 12.59101456 17.18669580 -0.00001113 -0.00043065 -0.00507597
C 5.48816711 17.08903983 13.49726899 -0.00224300 0.00303824 -0.00260723
C -1.27472189 16.59804357 13.49177812 0.00384425 0.00258826 -0.00226409
C -7.20915609 11.63951137 16.82088510 -0.00277614 0.00569230 0.00182654
C -0.59085450 11.84744594 18.35840748 -0.00396068 -0.00546898 0.00487369
C 5.64433187 16.45719733 12.23597586 0.00579015 -0.00233343 -0.00095615
C -1.30249869 17.29053400 12.26783994 -0.00329305 0.00093365 0.00959832
C -7.34703416 12.52394722 17.92825893 0.00378017 0.00400440 -0.00087710
C 0.72391517 11.84731441 12.62697900 0.00222732 -0.00415595 -0.00419939
C 3.66768297 16.34920766 17.85979451 0.00074274 -0.00197793 0.00232623
C -2.64056704 17.39088069 17.82977881 0.00302112 -0.00284875 -0.00672865
C -5.61597654 12.56423815 12.76877290 0.00274528 0.00202359 0.00453744
C -0.21144122 12.77014280 12.20804451 0.00408822 0.00043599 -0.00209333
C -8.27196378 17.60146828 18.00165316 0.00173144 0.00167634 0.00416469
C -1.66509938 16.62978001 18.36334025 0.00111666 0.00150048 0.00246706
C 6.62779301 11.68438417 12.45331163 0.00226145 0.00588145 -0.00488169
C -3.95108064 14.66422190 15.79339274 0.00029379 0.00292620 0.00381846
C -4.37448741 9.83414290 14.66725663 -0.00227870 -0.00049224 0.00393560
C 2.30614821 14.25740343 14.63643520 -0.00835015 0.00396496 0.00198207
C 2.52215842 19.16291801 15.69084177 -0.00663887 0.00052354 0.00600802
C -5.12645840 15.56690632 15.50654549 0.00579946 0.00769930 -0.00013685
C -3.18668484 10.76788934 14.76256557 0.00325864 -0.00117075 0.01019737
C 3.32910848 13.16328964 14.56342826 -0.00966017 -0.00107241 0.00292121
C 1.67755311 17.97958176 15.41576435 -0.00154668 -0.00223933 0.00206325
C -5.76666879 13.44576039 23.31373121 0.00269491 -0.00841944 0.00606822
C -8.41648942 18.38013636 19.12685350 0.00904004 -0.00035116 -0.00035227
C -1.90857834 15.69443793 19.39314257 0.00233671 0.00007876 0.00672647
C 0.78946111 10.80297691 23.41026106 0.00444306 -0.00421098 0.00208526
C -4.52717917 13.31003456 22.60040655 -0.00644628 0.00252046 0.00424477
C 3.30557128 18.01176264 20.02909301 0.00495005 0.00117624 0.00224695
C -3.12730746 15.72500278 20.08154269 -0.00750521 0.00019886 0.00645996
C 28.06292886 10.94233901 22.79564663 0.00014754 -0.00209445 0.00377849
C -3.59873019 12.37570479 22.97269098 -0.00553512 0.00382984 0.00472492
C 2.20297172 17.28354430 19.62862611 -0.00306122 0.00574958 -0.00163061
C -4.15467631 16.55177823 19.59304450 0.00078830 -0.00226147 0.00208033
C -10.13273791 11.68820354 23.27324925 -0.00257116 -0.00191707 0.00054030
C -3.89671447 11.46441510 24.00657276 0.00690716 -0.00479800 0.00093825
C 2.39304335 16.38512403 18.52126139 -0.00355476 -0.00065385 -0.00779604
C -3.94931272 17.35730135 18.41551230 0.00037009 0.00246771 0.00986380
C -10.34536751 12.57143571 24.33852100 0.00044577 0.00364022 -0.00724122
C -1.87711190 11.86888145 19.01892734 0.00299989 0.00079539 -0.00890846
C 0.90649245 16.65967295 23.84706118 0.00312947 0.00126167 0.00397763
C -5.81174692 17.38179185 24.03858578 -0.00318138 0.00310859 0.00571922
C -8.53563950 12.46018396 18.71265990 -0.00079538 -0.00231798 0.00635060
C -2.88457377 12.70377237 18.57680395 0.00105462 0.00091081 -0.00477084
C -11.35509241 17.51417151 24.07130581 -0.00696815 -0.00359542 0.00994602
C 7.22538629 16.52194625 0.11548556 -0.00084792 -0.00198329 0.00549310
C 3.41448062 11.65756566 18.47598454 -0.00354981 0.00244068 0.00413608
C -6.92015477 14.82884391 21.68437836 0.00288739 0.00043026 -0.00220230
C -7.36156740 9.99655445 20.64029588 -0.00760578 -0.00381558 0.00204433
C -0.68354460 14.18564202 20.80904985 0.00388705 0.00440230 -0.00111347
C -0.40781695 19.24004842 21.97629267 0.00661735 -0.00719637 0.00222151
C -8.21599822 15.49004120 21.51010601 0.00007961 -0.00391523 0.00410979
C -6.11595268 10.69320763 20.77962173 0.00265124 -0.00410891 -0.00001160
C 0.50735805 13.37072079 20.83676379 0.00482998 -0.00291924 -0.00248419
C -1.62929310 18.31539143 21.72228352 0.00489492 0.00801058 0.00448962
C 3.07045692 23.01831133 5.37029353 -0.00196089 -0.00130245 -0.00394159
C 0.39718847 27.88017624 1.10067142 0.01115883 0.00455876 0.00210396
C 7.11645991 25.36957208 1.25812359 0.00801581 -0.00007627 0.00044241
C 9.63171579 20.47082845 5.29303653 0.00029853 -0.00958209 0.00622104
C 4.29085145 22.74263222 4.61726983 -0.00015466 -0.00374659 0.00762196
C 12.20847329 27.69837526 1.62690019 -0.00056733 0.00266927 0.00233732
C 5.82554421 25.41619007 1.89099100 -0.00633733 0.00220268 -0.00181732
C -2.00538385 20.54600143 4.44504715 -0.00439640 0.00126411 -0.00937727
C 5.16893424 21.76609546 5.05354311 -0.00611531 0.00635404 -0.00059442
C 11.20756495 26.84791623 1.19141891 -0.00284727 0.00873873 0.01070056
C 4.85967936 26.32226965 1.63083348 -0.00110621 0.00324916 0.00567898
C -1.05041380 21.40210544 4.99802034 -0.00250827 -0.00220942 -0.00760505
C 5.04471492 21.14760087 6.33003039 -0.00016991 0.00165479 -0.00063969
C 11.33067320 26.14926823 0.02544552 -0.00124082 -0.00613393 0.00382291
C 5.03066643 27.22171794 0.58701010 0.00524013 0.00033870 0.00123747
C -1.26843769 22.19440302 6.11310039 0.00370789 -0.00838552 0.00819377
C 6.83736624 21.40874384 0.70329308 0.01302913 -0.00765137 0.00493904
C 9.48973240 26.22755638 5.42938502 0.00044341 0.00021235 -0.01131669
C 3.16600843 26.99509831 5.67786762 -0.00213795 0.00125216 0.00206261
C 0.53187939 22.15686541 0.52690847 -0.00390181 -0.00694377 0.00071353
C 5.99790820 22.46670269 0.27409381 -0.00146060 0.00361843 0.00640561
C -2.38181905 27.09701691 6.19744305 0.00436694 0.00198781 0.00427256
C 4.14228400 26.11016848 6.08043886 0.00421888 0.00218545 0.00483909
C 12.35303968 21.52953573 0.16001520 0.00451687 -0.00287982 -0.01206742
C 1.97246436 24.18712525 3.55148442 -0.00039713 0.00769291 -0.00601028
C 1.84908430 19.51906130 2.55070326 -0.00212342 0.00383723 0.00649278
C 8.09423699 23.68296337 2.62568176 0.00775970 -0.00302102 -0.00144710
C 8.27212338 28.68582442 3.36814005 -0.00115292 0.00104873 -0.00891153
C 0.72556019 24.96542078 3.25220820 0.00345120 0.00722290 0.00177093
C 2.98094456 20.48287589 2.76078815 0.00339170 0.00491508 0.00413235
C 9.26217414 22.70183499 2.83889852 -0.00377964 0.00224328 -0.00301924
C 6.98427683 27.92668457 3.00739177 -0.00273889 0.00569822 0.00171908
C 0.05128180 23.13714653 11.15140191 0.00345354 0.00167859 0.00067718
C -2.60762004 27.92415058 7.27155988 0.00034788 -0.00506666 -0.00209326
C 3.91107199 25.33789288 7.22168258 0.00081347 0.00121424 -0.00143265
C 6.55538454 20.29677188 11.31468340 0.00269225 0.00289543 0.00194966
C 1.28930350 23.00849857 10.48619926 -0.00242248 0.00682994 -0.00507932
C 9.15794802 27.72693919 7.78043860 0.00373310 0.00195007 0.00213985
C 2.71332735 25.51319749 8.04403873 -0.00049048 -0.00609592 0.00887296
C 34.11449619 20.85095548 10.47338439 0.00753984 -0.00248876 -0.00127957
C 2.14738271 22.02063728 10.88066235 -0.00387183 0.00358592 -0.00086314
C 8.25512607 26.80299534 7.35756778 -0.00344127 -0.00342301 -0.00475268
C 1.76083702 26.37413228 7.56068311 0.00103814 0.00001473 -0.00679879
C -4.28690665 21.70344940 10.96371970 0.00738131 0.01196927 0.00820652
C 1.85625918 21.20924679 12.01130992 -0.00262804 -0.00092140 0.00393460
C 8.37183662 26.00897899 6.21409622 -0.00881511 -0.00492840 0.00075756
C 2.03747501 27.21074027 6.47807191 0.00038336 -0.00691074 0.00437904
C -4.47216788 22.39970618 12.16195499 0.00632563 -0.00554784 0.00081731
C 3.92089799 21.46168957 7.05461408 0.00513165 -0.00259579 -0.00355005
C 6.64740064 26.28476481 11.68692044 -0.00818463 0.00503303 0.00344187
C -0.02322292 27.06055934 11.78550528 0.00269908 0.00048245 -0.00173244
C -2.54472147 22.11125850 6.71734751 0.00662715 0.00795525 -0.00029434
C 2.92312287 22.29858890 6.57114797 -0.00048590 0.00857779 0.00040268
C -5.30345200 27.08434455 12.27540492 0.00385172 -0.00285351 -0.00335385
C 0.98850477 26.21330693 12.18467716 -0.00511348 -0.00620398 0.00000882
C 9.46922865 21.39828365 6.33585502 -0.00279693 0.00145292 0.00068744
C -1.12010432 24.57141759 9.67082666 -0.00467510 0.00473549 -0.00172330
C -1.43243775 19.69861254 8.81929084 0.00442337 -0.00184398 -0.00129942
C 5.01660440 23.80749488 8.67107519 0.00264927 -0.00119155 -0.00112807
C 5.26805301 28.82804071 9.87301599 -0.00138219 0.00608051 0.00033580
C -2.36785502 25.44610339 9.45672626 -0.00268059 -0.00304024 -0.00330423
C -0.24771212 20.54382014 9.05007261 0.00509900 0.00194508 0.00044215
C 6.28470854 22.98268194 8.89808308 0.00405645 0.00057290 0.00527925
C 4.10288108 27.88073005 9.99689905 0.00077701 -0.00080862 0.00864275
C -2.92158610 22.98980505 17.32644677 0.00115843 -0.00245277 -0.00443339
C -5.56590209 27.90769598 13.40035737 -0.00160898 0.00343790 -0.00038397
C 0.76536217 25.33778734 13.22697291 -0.00429568 -0.00337548 -0.00068108
C 3.74469979 20.35410079 17.39646648 0.00392439 0.00268895 0.00026029
C -1.78997155 22.77711234 16.53794127 -0.00537200 -0.00625149 0.00029988
C 6.17330232 27.83838981 13.96014309 0.00434872 -0.00530430 0.00936034
C -0.50640737 25.40524664 13.89258186 -0.00629417 0.00736735 0.00035671
C 31.00611694 20.65493922 16.69902470 -0.00272496 0.00269839 0.01293837
C -0.77146518 21.89253274 16.96898956 0.00118704 0.00425641 -0.00611752
C 5.22801726 26.88566154 13.57218370 -0.00266652 0.00115143 -0.00109177
C -1.35409263 26.42531547 13.67983293 -0.00906089 0.00539508 -0.00258470
C -7.35788225 21.59679988 17.09780401 0.00703594 0.00246448 0.00675298
C -0.77210669 21.30329801 18.20283061 -0.00196040 -0.00108107 -0.00653638
C 5.43221492 26.17292228 12.41797121 -0.00676124 0.00283334 0.00139747
C -1.21126558 27.26793502 12.50800729 0.00294514 -0.01333654 -0.00453403
C -7.61410895 22.29169704 18.23431295 -0.00102964 -0.00669392 0.00481398
C 0.69177520 21.48454721 12.76079291 -0.00370682 -0.00240434 -0.00281342
C 3.76796979 26.36715439 17.94951248 -0.00437879 -0.00588772 -0.00178012
C -2.91812424 26.92038329 17.74736133 0.00005791 -0.00257619 -0.00622083
C -5.64526815 22.07534391 12.88054288 -0.00606801 0.00397217 0.00195691
C -0.27716047 22.30907861 12.23430756 -0.00100227 0.00417441 0.00101391
C -8.51148336 27.11144135 18.26615278 0.00582929 0.00026925 0.00956576
C -1.96930343 25.95391986 18.09668938 -0.00084633 -0.00004708 0.00653496
C 6.21062455 21.18147011 12.33795858 -0.00546859 0.00237343 0.00469599
C -4.17812453 24.47157572 15.89590483 -0.00071892 -0.00119236 -0.00378574
C -4.52717206 19.65496648 14.75170395 0.00091993 0.00803174 -0.00099476
C 1.89657203 23.84379384 14.84400522 0.00043295 0.01093330 -0.00898157
C 2.25826800 28.77027942 15.89419800 0.00012312 -0.00191183 0.00436946
C -5.38148326 25.30542592 15.94692799 0.00170782 0.00309218 0.00226617
C -3.26885505 20.47396932 14.82157147 0.00510730 0.00415757 0.00022769
C 3.09456919 22.91125124 14.86129199 0.00435910 0.00030913 0.00781556
C 1.06382173 27.89752013 15.68563930 -0.00187406 0.00131442 0.00632242
C -5.71442279 23.19176400 23.57628452 0.00276849 -0.00621512 0.00355624
C -8.65562138 27.87107190 19.43129129 -0.00040176 0.00286528 -0.00049429
C -2.22631593 25.15255250 19.19590556 -0.00592291 0.00225931 0.00646398
C 0.61903864 20.69597354 23.53658979 -0.00279888 0.00659252 -0.01188852
C -4.52801471 22.95043105 22.86278667 -0.00790953 -0.00251781 -0.00117312
C 3.40218629 28.05163437 20.08528317 0.00807595 0.00508294 0.00437557
C -3.35430675 25.34521954 19.97227954 -0.00965954 0.00043134 0.00263665
C -11.11680009 20.40613258 22.83887541 0.01243622 0.00714692 0.00269684
C -3.66321517 22.04194749 23.42153437 0.00021232 -0.00223652 -0.00128114
C 2.39163468 27.18587401 19.69892736 -0.00102973 0.00153948 -0.00205038
C -4.24020331 26.35548453 19.64902207 0.00286138 -0.00172493 0.00066845
C -10.12356806 21.30432922 23.22194291 0.00386186 0.00658423 -0.00029518
C 8.07613352 21.25782443 0.04920103 -0.00079760 -0.00434079 -0.00448956
C 2.58184675 26.29192523 18.60329344 -0.00253501 0.00147428 -0.00170282
C -4.03226277 27.15586939 18.58247289 0.00424715 0.00079253 -0.00369347
C -10.25366238 22.11519182 24.41164072 0.00527230 0.00469224 0.00621776
C -1.98209020 21.40774853 18.94064168 -0.00512771 -0.00282670 -0.00126112
C 0.49451726 26.33821577 23.74782276 -0.00884191 0.00457137 0.00401095
C -5.87078892 27.10735399 24.27883209 -0.00039323 0.00073598 -0.00043143
C -8.87148421 22.27574113 18.85379829 -0.00509062 -0.00136237 -0.00050838
C -3.02228382 22.17657512 18.49242876 0.00847343 -0.01140456 -0.00255324
C 0.65891372 26.94988032 0.10936506 -0.00505188 -0.00505031 -0.00097327
C 7.19614902 26.25975192 0.17456567 -0.00445442 -0.00074016 -0.00016747
C 3.54491880 21.08558592 18.58665437 0.00067892 0.00352673 0.00104133
C -6.94206584 24.63701640 21.98053640 -0.00236247 -0.00046073 -0.00201316
C -7.11419621 19.71837722 20.83545152 0.00369116 0.00813469 -0.00603328
C -1.11118925 23.63397154 20.85358161 0.00360181 -0.00222795 -0.00336250
C -0.66577427 28.83163378 21.77956387 0.00557711 0.00412548 -0.00084445
C -8.25720450 25.43078094 21.95449187 -0.00447337 -0.00029124 0.00661935
C -5.85862930 20.54366259 20.94968108 0.00602046 0.00292102 -0.00479636
C 0.26164971 23.07719706 21.14329042 -0.00283504 0.00734362 0.00367686
C -1.81656539 27.85524550 21.83651420 -0.00231714 -0.00519149 0.00017103
C 16.14444351 3.63200389 4.94809621 -0.00389767 -0.00179504 0.00464652
C 13.67355528 8.55988234 0.87086542 -0.00292384 0.00079322 0.00670424
C 20.07544421 5.81888373 1.15450221 -0.00639752 0.00176577 -0.00128493
C 22.64013982 1.00682730 5.18245697 -0.00384970 0.00404842 0.00435112
C 17.41126811 3.53538526 4.38486557 -0.00216576 0.00412161 -0.00824048
C 25.24556719 8.35791660 1.70993063 -0.00769170 -0.00518533 0.00017515
C 18.78693759 5.87433513 1.69061620 0.00057239 0.00375913 0.00004225
C 10.61784111 1.03207853 4.17114658 -0.00040521 0.00295869 -0.00280759
C 18.31618788 2.66514350 4.90913100 0.00148811 -0.00193993 -0.00284068
C 24.27874657 7.40281542 1.41479171 -0.00729296 0.00052418 0.00595646
C 17.96873723 6.82546926 1.17916578 0.00048678 0.00041702 -0.00342174
C 11.60082803 1.96273479 4.51953109 -0.00202717 -0.00242221 0.00295817
C 17.97540346 1.75311581 5.87682737 0.00435465 -0.00081170 -0.00274750
C 24.55801198 6.60775187 0.25947234 -0.00063116 0.00097123 0.00344340
C 18.25688552 7.64321466 0.07895026 -0.00646305 -0.00047969 -0.00790909
C 11.45380692 2.77315446 5.70273184 0.00541317 0.00607711 -0.00184131
C 20.08126669 2.00948627 0.65350903 0.00839451 0.00425759 -0.00347119
C 23.01860193 7.12833175 5.55454945 0.00642155 -0.00046645 0.00117004
C 16.24256825 7.46877408 5.37452319 0.00515282 -0.00004934 0.00371192
C 13.74042593 2.71147223 0.40166479 -0.00121425 -0.00988230 0.00054747
C 19.16686799 2.89010134 0.05829307 -0.00388387 0.00807849 -0.00641361
C 10.85188185 7.65126326 5.97978164 0.00239780 -0.00230589 -0.00175370
C 17.31471739 6.69656975 5.80409717 -0.00642409 0.00112792 -0.00953408
C 25.32894829 1.81107936 0.14137182 0.00809406 -0.00058541 0.00382983
C 15.20728472 5.07909365 3.25219759 0.00122358 -0.00498514 -0.00368780
C 14.51413663 0.25553110 2.39310265 -0.00046691 -0.00284030 0.01226164
C 21.34575700 4.51737774 2.77842866 -0.00029676 0.01018039 0.00044665
C 21.68011966 9.36799598 3.60393002 -0.00255919 -0.00042643 0.00029185
C 14.03745122 6.00117803 2.97287603 -0.00097476 -0.00142698 0.00015641
C 15.57015093 1.27330349 2.68406713 0.00463868 0.00632371 0.00226651
C 22.60773795 3.70023191 2.92420236 0.00082666 0.00209220 -0.00718200