2880
Time=3000.00000000 pbc="T T T" Lattice="39.64235548 0.00000000 0.00000000 0.00000000 28.95827661 0.00000000 -12.01522532 0.00000000 24.34990347" energy=-18398.66378075 virial="20.27373602 -7.65839171 -48.65430188 -7.65839171 -1.84461872 -2.68489149 -48.65430188 -2.68489149 4.19261840" stress="0.00308322 -0.00024728 -0.00192189 -0.00024728 0.00236584 -0.00010349 -0.00192189 -0.00010349 0.00279275" Properties=species:S:1:pos:R:3:vel:R:3
C 3.10217666 3.91186761 5.12481420 0.00586706 0.00025886 -0.00086899
C 0.21380989 8.32423602 1.04551993 -0.00420883 -0.00342525 -0.00410056
C 6.83586653 6.12951994 1.02002019 -0.00846408 0.00317479 -0.00000629
C 9.62141517 1.01710499 5.03644531 0.00025963 -0.00071288 -0.00248305
C 4.28995988 3.78153617 4.46680378 -0.00644690 -0.00215728 0.00500100
C 12.39470025 8.55672851 1.70372343 -0.00130549 0.00969443 -0.00523024
C 5.71392733 6.24288058 1.85486720 -0.00198165 0.00114490 0.00675847
C 37.25468939 1.19167780 4.37648171 -0.00138854 0.00053479 0.00989939
C 5.34285328 2.95588097 4.86473088 0.00048725 -0.00626053 0.00063782
C 11.47215211 7.60044092 1.37467500 -0.00573051 -0.00117231 -0.00529732
C 4.71163636 7.11123421 1.44362984 0.00157939 -0.00012407 -0.00098661
C -1.49119499 2.17370130 4.76764307 0.00230734 0.00399935 0.00546090
C 5.13928417 2.11255730 5.94508212 0.00476740 -0.00263620 -0.00724569
C 11.61789293 6.81341831 0.22943384 0.00552478 0.00094232 0.00179616
C 4.77226693 7.84063697 0.27309388 -0.00715965 -0.00775529 0.00459401
C -1.73080007 3.00608060 5.86861084 0.00193010 -0.00256152 -0.00224631
C 6.93723848 2.11890378 0.41027744 0.00390164 0.00079197 0.00112117
C 9.95253647 6.94970690 5.65531797 0.00709773 -0.00634595 -0.00304558
C 3.23454434 7.87517110 5.57672934 -0.00164401 -0.00225041 -0.00425228
C 0.31818920 2.73610656 0.50704030 0.00182082 0.00228500 0.00289228
C -6.08337761 3.01167610 24.32825344 0.00121620 0.00084928 -0.00269662
C -2.62225641 7.46724248 5.92109913 -0.00205864 0.00272370 -0.00459095
C 4.22843074 6.97869596 5.88659183 -0.00741233 -0.00875372 0.00180149
C 12.52721381 2.13578227 0.10107291 0.00371965 0.00024232 -0.00510723
C 1.91494274 5.18187145 3.51498041 -0.00409988 0.00231895 0.00340608
C 1.67501430 0.43859613 2.43938328 0.00020123 -0.00235858 -0.00221191
C 8.13229034 4.78500364 2.59654675 -0.00085933 0.00122864 -0.00179298
C 8.66690984 9.22034265 3.50111273 0.00434600 -0.00120516 -0.00996303
C 0.54720932 5.79456764 3.36261031 -0.00488454 0.00304814 -0.00351472
C 2.83651903 1.32804792 2.57380939 -0.00216871 0.00045068 0.00608405
C 9.18514732 3.76334236 2.66765562 0.00052638 -0.00280886 0.00206060
C 7.45034245 8.45459593 3.23756599 0.00272356 0.00237619 0.00387278
C 0.13422021 3.80534990 11.35313339 -0.00279249 0.00232964 -0.00218433
C -2.75385904 8.36158886 7.01633048 0.00462665 0.00621106 -0.01375319
C 4.09883078 6.13592881 6.98599910 -0.00413745 0.00532980 0.00391909
C 6.84708061 1.19915480 11.32617764 -0.00113153 -0.00367604 -0.00663342
C 1.38261646 3.73738714 10.70656804 -0.00201832 0.00339435 -0.00330981
C 9.55217528 8.42298813 7.93994476 0.00246066 -0.00029344 0.00273185
C 2.90308931 6.11223118 7.69943225 0.00100528 0.00161892 0.00014085
C 34.38571517 1.30297348 10.43079886 0.00130802 0.00330405 -0.00465223
C 2.30316754 2.83892228 11.05785583 -0.00150507 -0.00127512 0.00218720
C 8.53222277 7.56649967 7.45372681 -0.00237339 0.00528462 0.00835061
C 1.78979167 6.92951886 7.32371877 -0.00320274 -0.00154621 -0.00054274
C -4.32588054 2.28951970 10.76513763 -0.00652727 0.00346606 0.00563509
C 2.16837958 2.13353325 12.31668028 -0.00372876 -0.00039945 0.00196917
C 8.67707222 6.95810786 6.18082904 -0.00203740 0.00347688 0.00045052
C 1.96502674 7.80463038 6.23989198 0.00101736 0.00544061 0.00134641
C -4.62281668 3.28137703 11.74627189 0.00149420 -0.00552646 -0.00140416
C 3.86006538 2.19193470 6.58692749 -0.00221099 -0.00227219 -0.00817300
C 6.62786837 7.01115682 11.60196956 0.00122708 0.00467641 0.00524952
C 0.24131697 7.76566933 11.68367236 -0.00512404 -0.00322889 0.00417325
C -2.95434558 2.77524893 6.54102054 0.01350782 0.00191605 -0.00643247
C 2.87549430 3.04638824 6.22464250 0.00299595 -0.00326136 0.00066772
C -5.54042351 7.95742727 11.97164291 0.00190201 -0.00234104 -0.00569915
C 1.22401972 6.84645901 12.07972669 0.00342696 0.00392030 0.00286280
C 9.48170658 1.75916225 6.20965230 0.00052588 -0.00488755 0.00158424
C -1.24374059 5.09195425 9.69839318 0.00149843 -0.00834007 0.00027769
C -1.40672085 0.29835457 8.59974506 -0.00109435 0.00397248 -0.00452789
C 5.23181447 4.78386938 8.70515076 -0.00140419 0.00881268 -0.00102970
C 5.52516282 9.36709129 9.58440745 0.00410766 0.00560563 -0.00130151
C -2.48811530 5.98071563 9.60948214 -0.01352483 0.00206061 -0.01017193
C -0.46683032 1.39614330 8.84677645 -0.00810709 -0.00004642 -0.00136915
C 6.46230658 3.96118499 9.06623548 0.00532352 -0.00748206 -0.00545314
C 4.27881906 8.64870991 9.34957593 0.00620036 -0.00122555 -0.00121495
C -2.85504776 3.85494393 17.44499413 0.00266636 -0.00208817 -0.00330840
C -5.68072777 8.74575506 13.05941091 0.00954947 0.00301928 0.00037875
C 1.03354303 6.08417112 13.21532277 0.00337366 0.00120482 -0.00028650
C 3.89468840 1.20791460 17.42172869 -0.00000404 -0.00397337 -0.00161225
C -1.65758441 3.73728818 16.78972553 -0.00218385 0.00261327 -0.00580989
C 6.37065538 8.53104462 13.83804457 -0.00166518 -0.00663424 0.00041870
C -0.16839631 6.23687025 13.92749678 0.00043779 -0.00134574 -0.00547624
C 31.25785633 1.08015024 16.61425708 -0.00457207 -0.00209843 0.00737221
C -0.72852136 2.75900976 17.21343311 -0.00123990 -0.00079001 -0.00533075
C 5.37547031 7.70851045 13.55043254 -0.00042250 0.00473428 0.00354796
C -1.17641091 6.96570334 13.37768563 0.00848379 -0.00058340 0.00460379
C -7.37195337 1.92429154 17.10620240 -0.00317009 0.00478345 -0.00042400
C -1.02432360 2.01978328 18.38083623 -0.00683666 0.00145486 0.00282845
C 5.40030187 6.92029912 12.32419287 0.00327168 -0.00065985 0.00216805
C -0.99320464 7.88196659 12.32418914 0.00448096 -0.00237145 0.00099825
C -7.56698755 2.72833672 18.28373013 0.00472895 0.01078947 0.00445796
C 0.96354164 2.27788807 13.04606882 -0.00415734 0.00263255 0.00534800
C 3.67746405 6.95269310 17.69788964 0.00759401 -0.00359051 0.00572184
C -2.82443983 7.72269459 17.77015244 -0.00201622 0.00155694 0.00299931
C -5.87932437 3.15601638 12.40531610 -0.00649783 -0.00106745 0.00183070
C -0.09261521 3.00186028 12.48487211 -0.00574373 -0.00165201 0.00490750
C -8.48604850 7.60850359 18.28201146 0.00004698 0.00420904 0.00216038
C -1.81502748 6.92475702 18.26375361 0.00064047 0.00799480 0.00602284
C 6.60248797 2.14728606 12.37445075 0.00939005 0.00541406 -0.00595641
C -4.12318672 5.02626919 15.80480405 0.00557094 -0.00431975 0.00949772
C -4.62961406 0.41044495 14.67003001 0.00158440 0.00144058 -0.00251628
C 2.21842613 4.71228869 14.86387835 0.00816558 0.00426901 0.00101961
C 2.93905873 9.47397041 15.64741012 -0.00269871 0.00369353 0.00208528
C -5.41416743 5.70736743 15.64570716 0.00436706 -0.00213975 -0.00706855
C -3.56511271 1.41139210 14.91194013 -0.00485233 -0.00182338 0.00556507
C 3.42062482 3.85867078 15.07005207 -0.00295899 -0.00653851 0.00868305
C 1.82197159 8.56945687 15.45824398 -0.00000436 -0.00627010 0.00700161
C -5.87966081 3.86389365 23.31996300 -0.00283028 0.00550715 0.00455738
C -8.74025342 8.50961199 19.32960056 0.00064256 0.00419612 -0.00185613
C -1.99243739 6.12529811 19.36942075 0.00117014 0.00643719 -0.00666255
C 0.66418147 1.20215880 23.43891253 -0.00432665 0.00722509 0.00610522
C -4.60458503 3.83245756 22.73840725 0.00263248 0.00492077 0.00476627
C 3.53780362 8.40278992 20.11750280 0.00279493 -0.00486499 -0.00067527
C -3.23477145 6.19849493 20.06338241 0.00157033 0.00193864 0.00111656
C -11.10795178 1.14615226 22.64872614 -0.00217285 -0.00400458 0.00060910
C -3.63440472 2.96300318 23.06620026 0.00222975 -0.00119461 -0.00238850
C 2.52827290 7.59918931 19.70707049 0.00309087 0.00000303 -0.00219136
C -4.15388060 7.16394434 19.75117137 -0.00266400 -0.00512095 0.00434732
C -10.18127625 2.00971105 23.16172960 0.00448887 -0.00390319 -0.00111360
C -3.81824043 2.01262157 24.10225804 0.00769651 0.00356317 -0.00489732
C 2.53115838 6.87737960 18.48698760 -0.00288097 -0.00064896 0.00343648
C -4.05527541 7.83186137 18.51140349 0.00333749 -0.00029071 -0.00052712
C -10.42770754 2.87050427 24.26456506 -0.00503161 -0.00101517 0.00630620
C -2.26107098 2.22824860 19.06765572 -0.00087251 -0.00355697 -0.00304520
C 0.89272691 6.74073254 23.96017594 0.00091634 -0.00678239 -0.00420137
C -6.07853119 7.65061383 23.83053493 0.00073953 -0.00078333 -0.00625619
C -8.80240251 2.62888369 18.87511749 0.00414478 0.00354959 -0.00201293
C -3.20802763 3.07234226 18.57623753 0.00509959 -0.00262177 -0.00297569
C -11.61810028 7.50808644 24.26640573 0.00216497 0.00359268 -0.00778440
C -5.01057697 6.90001796 24.23872953 -0.00903959 -0.00391227 0.00090182
C 3.78462879 2.14823862 18.47891392 0.00051741 -0.00609349 -0.00640127
C -6.98413435 5.33706079 21.69240558 0.00656511 -0.00195438 -0.00943497
C -7.33294861 0.27222684 20.85525495 0.00841273 -0.00094754 0.00238691
C -0.82757438 4.73616550 20.95804439 -0.00598035 0.00803726 -0.00125577
C -0.39030925 9.64749609 21.73168833 -0.00350438 0.00028965 0.00168275
C -8.10167832 6.36957195 21.45146907 0.00221415 0.00190948 -0.00060449
C -6.13487107 1.21926180 21.06579311 0.00651847 -0.00626071 0.00521489
C 0.24243184 3.78469159 21.16788499 0.00001137 0.00720713 0.00615608
C -1.69526724 8.96312928 21.38254856 0.00266618 -0.00262154 0.00115205
C 3.27286636 13.25183937 5.24299595 -0.00156679 0.00038108 0.00302775
C 0.62015104 18.23908079 0.93948781 0.00285475 0.00541818 -0.00307555
C 7.22069351 15.78528317 0.90667605 0.00247993 0.00764634 0.00159457
C 9.89190154 10.65237910 5.05713560 -0.00418499 -0.00028734 -0.00065410
C 4.49139394 13.13539382 4.55527892 -0.00323394 -0.00187777 -0.00550232
C 12.49432757 18.05762884 1.72621720 -0.00113745 0.00114785 -0.00264261
C 6.00916508 15.87984536 1.63120280 0.00501834 -0.00479443 -0.00441063
C 37.29657294 10.51550955 4.38799944 -0.00180033 -0.00565211 -0.00526110
C 5.46979338 12.22339746 4.95768333 -0.00176352 0.00377701 0.00623018
C 11.53314168 17.11797688 1.26620190 -0.00819326 0.00105209 -0.00227442
C 4.94937124 16.62618467 1.24006613 0.00321430 0.00501872 0.00322214
C -1.45273480 11.49955021 4.65971517 -0.00163298 0.00338947 -0.00022555
C 5.22624028 11.40984774 6.10703249 0.00195343 0.00425331 -0.00933620
C 11.82172716 16.24989760 0.16749765 -0.00336720 0.00536376 -0.00611010
C 5.10214690 17.43182419 0.08788319 0.00225732 -0.00268243 0.00380409
C -1.66433806 12.30704803 5.77973721 -0.00156068 0.00483925 0.00024689
C 7.11414889 11.64652960 0.63149356 0.00262468 -0.00435628 -0.00074871
C 9.94900263 16.45633818 5.57758412 0.00241862 -0.00108244 0.00102419
C 3.12112023 17.25149571 5.31405957 -0.00261644 -0.00344958 0.00005973
C 0.38603171 12.55320719 0.51021795 0.00252443 -0.00102680 -0.00105494
C 6.11858613 12.54686365 0.29567007 -0.00514005 -0.00059157 0.00603970
C -2.13059332 17.33908281 5.95795814 0.00701474 -0.00360814 0.00067649
C 4.20313411 16.61304442 5.86517842 0.00331358 0.00096465 -0.00555437
C 12.64944126 11.50687174 0.15369639 -0.00057658 0.00167906 -0.00017687
C 2.02606888 14.53273194 3.60293862 -0.00080298 0.00202419 0.00112088
C 1.48089181 9.72107104 2.59977133 -0.00081279 0.00022500 0.00340923
C 8.30223589 14.24075864 2.49877531 -0.00086188 -0.00035552 0.00022333
C 8.74194482 19.10934753 3.29871952 -0.00217871 -0.00482904 -0.00127913
C 0.64783710 15.02292612 3.28527198 0.00036105 -0.00726859 0.00336578
C 2.78624989 10.48999548 2.72873713 0.00294835 0.00037380 0.00672211
C 9.38444663 13.20665535 2.71765171 0.00189297 0.00258638 -0.00520069
C 7.52374276 18.21799254 3.07881826 -0.00059363 -0.00455373 -0.00088803
C 0.08604114 13.28267290 11.15923515 0.00051759 -0.00095184 -0.00469549
C -2.34899471 18.22627614 7.01853028 0.00149586 -0.00225608 0.00602281
C 4.02951661 15.87469847 7.08539607 -0.00327079 -0.00186064 -0.00617609
C 6.65958784 10.77965861 11.17512124 -0.00555250 0.00369112 -0.00065266
C 1.38099244 13.30102470 10.48617340 0.00258747 0.00560369 0.00242485
C 9.43840624 18.06323826 7.72936473 -0.00857384 0.00123635 0.00367436
C 2.79329256 15.88665832 7.70454750 -0.00010044 -0.00110016 -0.00363428
C 34.32818237 10.96107062 10.55708206 0.00341474 -0.00437365 -0.00404572
C 2.30041383 12.36717207 10.92512832 0.00692738 0.00713297 -0.00830421
C 8.49715415 17.11381584 7.36745211 -0.00313466 -0.00181197 0.00670708
C 1.78412071 16.59368610 7.16363244 -0.00223488 -0.00390665 0.00522195
C -4.29834724 11.81804719 10.97008486 -0.00230365 0.00757643 -0.00023835
C 2.04042335 11.47439947 11.99397048 -0.00182313 0.00309196 -0.00554664
C 8.69658338 16.26007670 6.21954330 -0.00377315 -0.00575148 0.00117262
C 1.91872729 17.39721259 6.00066882 -0.00283994 -0.00475426 -0.00002280
C -4.41314011 12.58053844 12.09801094 -0.00411678 -0.00190818 -0.00279425
C 3.99988663 11.42289661 6.75493998 0.00459700 0.00608351 0.00587155
C 7.11130372 16.40115347 11.75078585 -0.00521382 -0.00124999 -0.00118420
C 0.15473329 17.25746746 11.43397388 0.00382505 -0.00075374 0.00066398
C -2.84560591 12.26656112 6.51880185 -0.00237470 0.00360912 0.00400242
C 3.08918686 12.41949993 6.34169942 0.00074735 0.00503479 0.00238942
C -5.28311237 17.58970677 12.10942730 0.00044070 0.00354180 -0.00417853
C 1.17414920 16.51863609 11.97413271 -0.00060555 -0.00387761 -0.00636781
C 9.55031523 11.51835122 6.15635232 -0.00726251 0.00352218 0.00116261
C -1.09919339 14.58502559 9.58297492 0.00188368 0.00338290 -0.00006590
C -1.46337049 9.89751858 8.42999772 -0.00493179 0.00552658 0.00734637
C 5.10254108 14.37741421 8.70646751 -0.00193665 0.00057858 -0.01263241
C 5.45179120 19.13451282 9.74013121 -0.00005083 -0.00279131 -0.01183334
C -2.36795155 15.51878989 9.37787729 0.00480968 0.00424150 -0.00210924
C -0.21667719 10.74069557 8.40000557 0.00581597 0.00382597 -0.00313555
C 6.12159129 13.27619144 8.79127438 -0.00389409 -0.00895911 -0.00245471
C 4.12317617 18.53072799 9.58710122 -0.00351989 0.00292717 0.00258310
C -2.60194752 13.44762054 17.22968531 -0.00249631 -0.00789943 0.00388244
C -5.49219510 18.35689147 13.25862815 0.01073628 0.00430205 0.00029789
C 0.95993800 15.58879543 13.01891082 -0.00227858 0.00009637 0.01145415
C 4.00485283 10.89867383 17.32347743 -0.00285986 -0.00288743 -0.00132439
C -1.37769395 13.41190333 16.51245805 -0.00813919 -0.00177713 -0.00072391
C 6.52166379 18.12477556 13.82799749 -0.00470510 -0.00919088 0.00122049
C -0.25967746 15.71691155 13.71806393 -0.00660411 0.00092256 0.00191899
C -7.96632340 10.80828286 16.67038640 0.00746922 -0.00276239 -0.00457999
C -0.29179331 12.70750529 16.94816676 0.00182759 0.00697038 0.00283659
C 5.61103768 17.17459329 13.41234530 -0.00394461 -0.00236720 -0.00381954
C -1.26933440 16.51171835 13.28492259 0.00063426 -0.01089971 -0.01067904
C -6.96853248 11.71163962 16.94882145 -0.00044011 -0.00115913 -0.00001705
C -0.43824580 11.89813429 18.07705825 0.00082681 0.00551125 -0.00237863
C 5.85993293 16.30029530 12.41364954 -0.00123119 -0.00050923 0.00761751
C -1.13234755 17.32189789 12.09992582 -0.00082289 -0.00027136 -0.00290546
C -7.04315127 12.54821879 18.07944788 0.00733595 0.00588026 0.00207961
C 0.74675860 11.49840394 12.59697718 -0.00653891 0.00018705 0.00061952
C 3.97997536 16.63297390 17.68116259 0.00234913 0.00666275 -0.00157846
C -2.74044191 17.26597760 17.79957057 -0.00005512 0.00427739 -0.00213052
C -5.63662440 12.51132410 12.80430139 -0.00275041 0.00095793 -0.00098047
C -0.16868066 12.46718121 12.24322657 -0.01020577 -0.00255398 -0.00010230
C -8.34627182 17.27728643 18.14671069 -0.00291457 0.00688938 -0.00066189
C -1.67293117 16.55264500 18.29630532 -0.00844220 0.00275478 -0.00162887
C 6.37985747 11.68020593 12.25789529 0.00018936 0.00189800 0.00133785
C -3.86367581 14.87257053 15.75012641 0.00190659 -0.00446993 0.00651436
C -4.46323454 9.94268403 14.67660739 0.00620114 0.00056436 0.00791167
C 2.18410250 14.24403673 14.71816811 -0.00598367 0.00707373 0.00683441
C 2.52265536 18.92865124 15.78758158 0.00021051 0.00355634 0.00137523
C -5.01740869 15.79916436 15.58941607 0.00260408 -0.00066589 0.00017579
C -3.43881105 11.02854230 15.01270071 -0.00437787 0.00247305 0.00501084
C 3.37820584 13.37594384 14.93118052 0.00122726 0.00212402 0.00779742
C 1.32273220 17.98080116 15.61922211 -0.00024788 0.00144738 0.00085770
C -5.72788870 13.39156800 23.50550350 -0.00242331 0.00371704 -0.00283170
C -8.62512108 18.00211662 19.28808993 -0.00251620 0.00051561 -0.00442303
C -1.90238283 15.53957268 19.29484102 0.00112395 0.00190756 0.00328221
C 0.85626772 10.70282538 23.42606133 0.00094144 0.00013421 -0.00285562
C -4.49344864 13.42137955 22.90229684 -0.00686062 -0.00599848 0.00661558
C 3.31518059 18.28621253 19.85249071 -0.00233887 0.00304547 0.00639925
C -3.09882492 15.52025753 19.94817977 -0.00085741 -0.00000227 -0.00200313
C -11.14632196 10.72271294 22.81548900 -0.00104542 -0.00274171 -0.00016834
C -3.49707101 12.48953916 23.21780879 0.00268313 -0.00575597 0.00340818
C 2.34441845 17.42628388 19.38418041 0.00498583 0.00245446 0.00397592
C -4.10662618 16.44558571 19.62786221 0.00617748 0.00114891 -0.00410077
C -10.15394702 11.58906194 23.24349521 0.00095996 -0.00490218 -0.00337735
C -3.65887526 11.56914371 24.29510493 0.00195500 -0.00117374 -0.00592507
C 2.65721707 16.60154403 18.27649958 -0.00354376 -0.00042653 -0.00088700
C -4.00065198 17.25844563 18.47330285 0.00357717 -0.00395622 0.00312148
C -10.35340883 12.55651757 24.25662520 0.00517162 0.00622818 -0.00148565
C -1.66961972 11.79272188 18.72806026 -0.00277016 0.00007219 0.00144534
C 1.05179833 16.34686834 23.92974710 -0.00138268 -0.00394904 -0.00453447
C -5.71992860 17.39803486 23.75139500 -0.00117802 -0.00216055 0.00300109
C -8.23364959 12.62258401 18.79793397 0.00212221 -0.00533112 0.00183911
C -2.72502213 12.54806270 18.29829028 -0.00258955 0.00497306 -0.00053712
C -11.24118181 17.31649227 24.22387711 0.00003838 -0.00054258 -0.00172210
C -4.67948988 16.58163986 24.10376018 0.00634641 -0.00794755 -0.00375972
C 3.66127097 11.66646816 18.44383796 -0.00587664 0.00059109 -0.00212047
C -6.95495921 14.55784785 21.82350716 0.00134729 0.00221666 -0.00295472
C -7.58702327 9.82297512 20.93672837 -0.00148289 -0.00327949 -0.00405642
C -0.53169358 14.17674062 20.74570148 -0.00617156 -0.00800720 -0.00579924
C -0.45547976 19.01448907 21.85568758 -0.00083502 -0.00594975 0.00100475
C -8.34717762 15.09019473 21.54814097 0.00130181 0.01128055 0.00856914
C -6.44463791 10.75077146 21.17448202 0.00197345 -0.00308176 0.00300341
C 0.59452237 13.22977389 20.89952251 -0.00166282 0.00618763 0.00038998
C -1.58118233 18.03601236 21.62206497 0.00127049 -0.00782623 0.00150227
C 3.37098668 23.19941040 5.04358765 0.00004536 0.00274964 0.00284808
C 0.45376173 27.98071603 0.85951324 -0.00287148 -0.00366589 0.00065562
C 7.10383440 25.17363296 0.84258850 -0.00190694 0.00016647 0.00059987
C 9.95608033 20.35697422 5.01915678 0.00651104 -0.00138053 -0.00067469
C 4.60551659 23.07299135 4.32451483 -0.00233190 0.00742325 0.00112723
C 12.24236776 27.87502356 1.52365332 -0.00065648 0.00467113 0.00278575
C 5.93487206 25.41085647 1.56404268 -0.00456339 -0.00160795 -0.00271615
C -1.96166668 20.64878898 4.32429119 -0.00314578 0.00578014 0.00555966
C 5.58891902 22.19725528 4.68844165 0.00441217 0.00248268 -0.00168806
C 11.36372815 26.92579368 1.13984097 0.00340478 -0.00892918 -0.00663977
C 4.93816707 26.27739068 1.15399696 0.00179627 -0.00102676 0.00267596
C -1.01459743 21.57847248 4.70734166 0.00212461 0.00268408 -0.00035951
C 5.35688670 21.33600307 5.77818112 0.00531375 -0.00056739 -0.00499284
C -0.49844858 26.27461901 24.23544538 -0.00214246 0.00208103 0.00057559
C -6.95567490 27.06042863 24.34628695 -0.00500965 0.00351781 0.00229967
C -1.08929713 22.28592849 5.93731741 -0.00234973 -0.00524393 0.00026560
C 6.90254589 21.27980574 0.28203842 -0.00075659 0.00674940 0.00177140
C 10.09716851 26.28010836 5.47382669 -0.00061408 0.00054216 -0.00284057
C 3.37670267 27.07367880 5.34359287 0.00169242 -0.00204037 -0.00011072
C 0.34850592 21.94242531 0.52375135 0.00133371 0.00075954 -0.00432368
C -6.06630718 22.24724627 24.32660892 -0.00300489 -0.00016373 -0.00070816
C -2.17495190 27.06211750 5.86863875 -0.00687244 0.00189431 -0.00422209
C 4.35996980 26.31023356 5.88217488 -0.00193413 -0.00383372 -0.00029221
C 12.35601254 21.22161410 0.21201847 -0.00222363 -0.00547285 0.00623232
C 2.18930602 24.54820735 3.42065611 0.00004007 0.00040780 -0.00078631
C 1.61247940 19.77658510 2.60281893 0.00309322 0.00342084 0.00286636
C 8.19980136 23.91584700 2.52064499 0.00046437 -0.00156683 -0.00427471
C 8.33529728 28.74162587 3.49800430 0.00541242 0.00913014 -0.00171559
C 1.05262731 25.52010624 3.17021394 -0.00638912 0.00116573 0.00947985
C 2.79971980 20.65072913 3.04159120 -0.00135841 0.00501103 -0.00410756
C 9.38306594 23.03620123 2.78603471 0.00299456 0.00134631 -0.00099439
C 7.12483881 27.89013462 3.46286362 -0.00189695 -0.00147203 -0.00394900
C 0.07462041 23.13462433 11.31537514 -0.00686201 -0.00307389 0.00067459
C -2.48920192 27.94029307 6.94769967 0.00730873 0.00171721 -0.00001935
C 4.16240682 25.43870745 6.93354146 -0.00020163 0.00288932 0.00151289
C 6.77022667 20.36226264 11.26316275 0.00642307 -0.00115673 -0.00082356
C 1.31336254 23.11869211 10.61158324 0.00674970 0.00123477 -0.00012038
C 9.57053536 27.85968818 7.69094879 0.00719719 0.01163290 0.00884527
C 2.95277715 25.52216198 7.61379006 0.00185882 -0.00663675 -0.00034174
C -5.14159373 20.46092348 10.43480823 0.00056910 0.00186231 -0.00370433
C 2.28851809 22.22649333 10.96232306 -0.00340427 0.00120011 -0.00514773
C 8.60004495 26.92185634 7.24375447 -0.00023421 0.00128600 0.00355674
C 1.99314474 26.49619994 7.24653543 0.00058812 0.00047590 0.00283626
C -4.21552011 21.44185048 10.78445592 0.00067685 0.00388195 -0.00342382
C 2.12021469 21.32110170 12.04845516 0.00634142 -0.00309903 -0.00542361
C 8.88817049 26.10354553 6.12355784 0.00473108 -0.00364702 0.00056513
C 2.13655526 27.14420106 5.98310493 0.00273082 0.00554750 0.00677968
C -4.39337336 22.24167977 11.89982917 0.00429207 -0.00231597 0.00313079
C 4.10539552 21.36799417 6.41885610 0.00001364 -0.00672734 0.00384518
C 6.83854350 26.03799470 11.76515681 0.01072634 -0.00465889 0.00826760
C 0.23314844 27.10773376 11.84074401 -0.00491925 -0.00053143 0.00589823
C -2.34883397 22.33691023 6.48497935 0.00183145 -0.00353237 0.00678172
C 3.15042078 22.33285031 6.09597921 -0.00234351 0.00268499 -0.00672589
C -5.48413820 27.26026317 11.85312993 0.00177944 0.00239384 0.00047335
C 1.14134747 26.10648915 12.10759329 0.00839483 0.00011778 -0.00593686
C 9.82024991 21.13495021 6.19446949 0.00458444 -0.00063523 -0.00044069
C -0.91362641 24.71091246 9.65342698 -0.00264453 -0.00658530 -0.00178988
C -1.24183941 19.77208209 8.57137787 0.00501640 0.00257908 -0.00185603
C 5.28142809 24.05551775 8.54900680 0.00188179 0.00152361 0.00053219
C 5.54780135 28.85779491 9.79116426 -0.00291792 0.00276238 -0.00623324
C -1.98975770 25.74563711 9.53744908 -0.00230021 0.00916545 -0.00118887
C -0.06216955 20.74562508 8.61163842 0.00310556 0.00296499 0.00352651
C 6.18446954 22.89874848 8.73954124 0.00819039 0.00001668 0.00396024
C 4.26140720 28.07289868 9.66331109 -0.00181352 0.00165283 -0.00130116
C -2.91187745 23.03519705 17.32078229 -0.00608841 0.00432692 0.00120179
C -5.65140206 27.95841210 13.03721928 0.00370355 -0.00247462 -0.00172177
C 0.96320595 25.31513762 13.23875130 -0.00688322 -0.00356093 0.00088008
C 3.60587640 20.53373097 17.32326333 -0.00385222 0.00143121 0.00671131
C -1.73802815 22.97247511 16.53069220 -0.00407684 -0.00574003 0.00023427
C 6.53789247 27.75109890 13.96207956 -0.00107688 0.00550227 0.00211731
C -0.26026271 25.33221235 13.88002155 -0.00132480 -0.01293683 -0.00502337
C 31.30146391 20.45070133 16.47348091 0.00373925 0.00588373 0.00630281
C -0.76504599 22.06723503 16.94001446 0.00195997 -0.00121022 0.00118736
C 5.51340382 26.89872853 13.52900642 -0.00057767 -0.00336320 0.00784848
C -1.22739335 26.29159829 13.55498641 -0.00306217 0.00075416 -0.00414425
C -7.35152521 21.33416106 16.91385517 0.00048311 0.00335825 0.00664937
C -0.90344219 21.12888593 17.98668014 0.00201233 -0.00396829 0.00508277
C 5.57678630 26.07520284 12.41095036 0.00255167 -0.00066315 0.00366374
C -1.03094686 27.10990637 12.44564269 0.00020065 0.00251396 -0.00597879
C -7.53827267 22.13408546 18.04841021 -0.00778133 -0.00361020 -0.00351167
C 0.95488789 21.39015420 12.80505855 -0.00603478 -0.00060908 0.00070659
C 3.94496053 26.34058415 17.66296635 0.00078079 -0.00005822 0.00588463
C -2.85412590 26.96332369 17.64368135 0.00532107 0.00428199 -0.00734785
C -5.64661697 22.11812488 12.55932366 0.00070447 0.00192629 0.00191457
C -0.07872845 22.28145362 12.42201344 0.00529032 0.00223492 0.00022030
C -8.37084422 27.12283752 18.08401276 -0.00415436 -0.00330206 -0.00178526
C -1.80943574 26.22132956 18.09720492 0.00330546 0.00202329 0.00528173
C 6.59534597 21.21528804 12.40029202 -0.00416358 -0.00629839 -0.00013376
C -4.14416574 24.31766226 15.74301078 -0.00649816 0.00257241 0.00447898
C -4.33175164 19.65237789 14.88840345 -0.00080350 -0.00097122 0.00257268
C 2.12303173 23.79167874 14.82665985 0.00113204 -0.00176171 -0.00471000
C 2.57471765 28.85962865 15.91608409 -0.00244855 -0.00377420 0.00092959
C -5.14902006 25.40193655 15.51689073 0.00083461 0.00446633 0.00040778
C -3.35075680 20.76348468 15.07205970 0.00770783 -0.00181380 0.00382038
C 3.33456346 22.86396149 14.89925929 0.00983128 0.00159991 0.00684773
C 1.29540625 28.12136187 15.77913642 0.00347754 0.00090072 -0.00959988
C -5.89132186 23.07882194 23.22400864 -0.00090719 -0.00206230 0.00216238
C -8.49007311 27.90381568 19.26979211 0.00672961 0.00388946 -0.00060717
C -1.95717648 25.36536945 19.15950263 -0.00749871 -0.00059265 0.00008982
C 0.69269289 20.35221817 23.52927146 0.00558188 0.00475366 -0.00389152
C -4.70523533 22.97433575 22.49916901 -0.00279480 -0.00129689 -0.00226720
C 3.66095143 27.85581769 19.95430261 0.00198016 0.00705870 -0.00006042
C -3.20500371 25.36620954 19.82232668 -0.00024409 -0.00617660 0.00115038
C -11.19895290 20.30239882 22.73148013 -0.00059035 0.00259904 -0.00023104
C -3.72442958 22.00253775 22.79931508 -0.00702565 0.00078857 -0.00086668
C 2.62478058 26.99890840 19.68317519 -0.00097020 0.00288770 -0.00449274
C -4.26868834 26.09214940 19.32726798 -0.00384771 0.00050722 -0.00052714
C -10.22720915 21.20260208 23.07981758 -0.00265306 -0.00243962 0.00174104
C -3.93725722 21.14651595 23.92565857 0.00695079 -0.01233525 -0.00043689
C 2.76187745 26.22481105 18.44711766 0.00625876 0.00068706 -0.00374074
C -4.08776472 27.02156554 18.30275962 -0.00276760 0.00810249 -0.00254479
C -10.37510005 22.00688504 24.18564094 0.00147952 -0.00108758 0.00593689
C -2.06481965 21.23669100 18.73652550 -0.00439062 -0.00076958 0.00346234
C 0.68977272 26.47878895 23.57405219 -0.00446553 -0.00001170 -0.00112571
C -5.71120691 26.95150059 23.63589822 0.00519028 -0.00051657 0.00035404
C -8.77152389 22.02806330 18.66239492 -0.00442642 0.00496475 0.00382228
C -3.09938444 22.20267477 18.40732574 -0.00214633 -0.00378557 0.00476869
C -11.31288939 27.09205465 24.13663836 -0.00493399 -0.00534310 -0.00871926
C -4.77610239 26.01090203 24.05132846 -0.00374835 0.00336398 -0.00882787
C 3.35680525 21.39848964 18.34989615 0.00329729 -0.00051133 -0.00482190
C -7.24218011 24.43268677 21.71835450 0.00189739 -0.00102640 -0.00115323
C -7.48082451 19.52535511 20.73206556 0.00395590 0.00431041 -0.00463736
C -0.80804489 24.05207655 20.81352526 -0.00155582 -0.00264697 0.00370884
C -0.65114761 28.76451369 21.91682996 -0.00319927 -0.00265212 0.00700117
C -8.45367040 25.26427932 21.66016492 0.00327708 -0.00627957 0.00038490
C -6.33040122 20.47448195 20.84347920 -0.01100381 0.00056158 0.00357860
C 0.39572370 23.31654047 21.14721992 -0.00908710 0.00123968 0.00244441
C -2.02294982 28.27286868 21.64254463 0.00397304 -0.00391792 0.00132080
C 16.17600440 3.60870236 5.09889727 0.00000561 0.00133455 -0.00425781
C 13.66882210 8.50348562 1.06823979 -0.00155204 -0.00442302 -0.00591208
C 20.35491101 5.82070774 0.92542878 -0.00241120 -0.00470489 0.00880209
C 22.87442037 1.24544136 5.04111250 0.00207480 -0.00455427 0.00576238
C 17.32089292 3.51500295 4.33005195 -0.00261331 0.01204975 0.00290990
C 25.68311164 8.38582483 1.75788848 -0.00232946 0.00276371 -0.00281144
C 19.13888671 5.71294190 1.62051250 -0.00301172 0.00390921 -0.00334213
C 10.74976726 1.24933594 4.23079565 -0.00434288 0.00090721 0.00039643
C 18.34401343 2.64031690 4.74782725 0.00787419 -0.00545385 0.00811430
C 24.80442637 7.38947647 1.37448923 0.00022425 -0.00078461 -0.00770989
C 18.16067837 6.63757325 1.26587302 -0.00829866 -0.00579143 0.00280623
C 11.69026442 2.11423209 4.57532456 -0.00158356 -0.00420773 -0.00531052
C 18.24906012 1.92027284 5.92702097 -0.00291003 -0.00943200 -0.00052766
C 24.95878785 6.71370144 0.15937714 -0.00204785 0.00752760 -0.00302050
C 18.28261639 7.57946260 0.20361779 -0.00454632 -0.00112717 -0.00244021
C 11.55892408 2.87373326 5.76597233 0.00104880 -0.00274239 -0.00011740
C 20.31218730 2.06141340 0.68444097 -0.00787066 -0.00489200 0.00431830
C 22.80395567 6.97885193 5.45292050 0.00217919 -0.00587700 -0.00939383
C 16.32271757 7.47709528 5.35888308 -0.00367725 0.00517080 0.00126024
C 13.60979418 2.90272775 0.60853704 0.00271547 0.00276629 -0.00036330
C 19.33570555 2.83488601 0.11571539 -0.00317460 -0.00299908 -0.00435600
C 10.98415042 7.75266371 6.14439195 -0.00281333 0.00354108 -0.00230727
C 17.34928189 6.75490365 5.88429314 -0.00107677 -0.00100547 -0.00523140
C 25.92769911 1.73361649 0.09345347 -0.00199084 0.00208431 0.00206163
C 14.99771264 4.99475996 3.50291671 0.00176713 0.00449901 0.00531011
C 14.60717673 0.31865266 2.67038778 0.00479930 -0.00823503 -0.00349337
C 21.65768488 4.43264907 2.45716117 -0.00413300 0.00095557 0.00142839
C 21.67874424 9.27844991 3.61588264 -0.00211711 -0.00114105 0.00191367
C 13.86089778 5.93390150 3.19140290 -0.00325692 -0.00396820 0.00115097
C 15.64514257 1.30681204 2.99169858 -0.00165240 0.00451901 -0.00432542