2880
Time=59000.00000005 pbc="T T T" Lattice="39.48793640 0.00000000 0.00000000 0.00000000 29.09416561 0.00000000 -12.01715618 0.00000000 24.35773021" energy=-18400.28486538 virial="-49.55051390 7.96791694 -40.39131734 7.96791694 -16.51779570 14.27689377 -40.39131734 14.27689377 -18.85512493" stress="0.00071195 0.00018742 -0.00147228 0.00018742 0.00183656 0.00053356 -0.00147228 0.00053356 0.00183718" Properties=species:S:1:pos:R:3:vel:R:3
C 3.10084538 3.95992144 5.11755402 -0.00279847 -0.00115394 0.00137887
C 0.36961310 8.69709378 0.94290077 0.00151192 0.00797160 -0.00258861
C 6.87985979 5.88188515 1.06176272 0.00252828 -0.00016432 -0.00092551
C 9.67655463 1.08402065 4.98440967 0.00041484 0.00293023 0.00242083
C 4.18054285 3.74950913 4.27437479 0.00145286 0.00282844 -0.00215661
C 12.07752653 8.47785283 1.42547438 0.00365409 -0.00482601 -0.00710998
C 5.75913762 6.17123649 1.85548201 -0.00132104 0.00481971 -0.00108941
C 37.16164465 1.23263789 4.52696376 -0.00147492 -0.00574344 0.00173365
C 5.03343124 2.73717304 4.67122706 -0.00445067 0.00415814 -0.00392096
C 11.07549870 7.69234532 0.98646569 0.00194549 0.00404853 -0.00410916
C 4.86490453 7.09364252 1.47110809 0.00455508 0.00045643 -0.00441354
C -1.33616443 2.15948553 4.92992092 0.00424065 -0.00120359 -0.00197975
C 4.96038470 1.92124338 5.80075383 0.00518286 -0.00408630 0.00733694
C -0.77254771 6.81577915 24.27025731 0.00815088 0.00193759 -0.00012407
C 5.08958623 8.02610295 0.42009016 -0.00196313 -0.00128028 -0.00060534
C -1.55371274 2.99970132 6.05241020 0.00052706 0.00293874 -0.00919495
C 6.73816823 1.93865924 0.38801232 -0.00589571 0.01137669 -0.00737356
C 9.82700110 6.89206191 5.55999677 0.00554674 0.00083308 -0.00236655
C 3.19971087 7.95461855 5.70234217 -0.00270020 0.00498670 0.00029410
C 0.12735598 2.93729151 0.48276898 0.00113580 0.00764118 -0.00052422
C 5.75231116 2.90816485 0.08440068 -0.00053774 -0.00654892 -0.00426385
C -2.40252775 8.09848109 5.81935906 -0.00307917 0.00286709 0.00169712
C 4.17869475 7.06963395 5.99606535 -0.00206144 -0.00597819 0.00439846
C 12.40317847 2.21621693 0.10858835 0.00483618 0.00553850 -0.00061245
C 1.89910421 5.39652669 3.52099705 0.00231576 -0.00150079 -0.00217617
C 1.55546955 0.27733249 2.74628950 -0.00757605 -0.00740147 -0.00566417
C 8.08880424 4.59112135 2.56303778 0.00138793 0.00124597 0.00450898
C 8.72494109 9.22816972 3.92835469 0.00029939 0.01110091 -0.00272278
C 0.55198590 5.99437494 3.47219567 0.00540437 0.00105251 0.00778092
C 2.83751151 0.95280085 3.10051868 -0.00087379 0.00380265 0.00193738
C 9.38337290 3.79100381 2.77830016 0.00081924 -0.00326787 -0.00306847
C 7.39896922 8.50245446 3.62077234 0.00483424 -0.00106850 0.00681139
C 0.11826479 3.72420804 11.38119860 0.00369717 -0.00723797 0.00243920
C -2.69965388 8.81826345 6.98619610 -0.00784520 0.00135824 0.00703905
C 4.08384347 6.14519277 7.03372472 -0.00026538 0.00815254 0.00646367
C 6.80901394 1.06440275 11.14675460 0.01064402 0.00457393 -0.01184758
C 1.26564466 3.45769711 10.53312355 -0.00106088 -0.00468068 -0.00283787
C 9.35955790 8.56965806 7.83401807 -0.00010059 -0.00356055 0.00064289
C 2.88917153 6.09325969 7.76348278 0.01087394 0.00078734 -0.01142440
C 34.28668649 0.98536816 10.52173249 -0.00136571 0.00023603 -0.00825298
C 2.27454969 2.70899081 11.06834025 -0.00462532 -0.00111633 0.00150305
C 8.34438241 7.78873781 7.33028484 -0.00549219 0.00383995 0.00257529
C 1.86352106 7.00713722 7.47602641 0.00063548 0.00416207 -0.00083995
C -4.15931075 1.67839159 11.07109592 0.00070848 -0.00183636 0.00361082
C 2.13792093 1.93818620 12.18986121 -0.00434650 0.00526194 -0.00766542
C 8.58058274 6.90838062 6.16253714 0.00163462 -0.00074532 -0.00057060
C 1.97843196 7.87531305 6.36001587 0.00431089 -0.01185047 -0.00296945
C -4.34173608 2.53495450 12.16295179 -0.00597693 -0.00085604 0.00392471
C 3.82741839 2.12725305 6.55102267 0.00086750 -0.00965188 0.00081760
C 6.76583337 7.12224043 11.56349552 -0.00888981 0.00313861 0.00320276
C 0.23047669 7.49917144 11.60270897 0.00780650 0.00275170 0.00285998
C -2.80404622 2.97443645 6.70023521 0.00049262 -0.00775480 -0.00542424
C 3.04025834 3.16751933 6.28142044 0.00058715 0.00369669 -0.00093288
C -5.51327006 7.76009328 11.97405204 -0.00253080 0.00343314 0.00473694
C 1.26403072 6.69447757 12.09674060 -0.01201117 0.00298480 0.00044817
C 9.46289169 1.94452290 6.10757915 -0.00373880 0.00478058 -0.00133076
C -1.09316862 5.01294167 9.72044937 0.00094665 -0.00004184 0.00425085
C -1.58501344 0.28035563 8.67985643 -0.00276073 0.00053464 -0.00066333
C 5.42022487 4.67216949 8.46728141 -0.00398075 -0.00702557 -0.00591310
C 5.58702241 9.34576418 9.61896447 -0.00465262 0.00109314 -0.00349213
C -2.38904626 5.72443775 9.54996614 0.00230911 0.00038842 0.00539048
C -0.47717313 1.23639988 8.77504338 -0.00080598 -0.00695366 0.00550371
C 6.63794439 3.78619798 8.33979686 0.00379514 0.00675894 -0.00261050
C 4.47360946 8.30587644 9.53341476 -0.00901410 0.00168759 -0.00336479
C -3.01329356 3.68534616 17.21164538 -0.00559937 0.00216650 -0.00474472
C -5.73373408 8.53597984 13.16967736 0.00181441 0.00160944 -0.00343554
C 1.06300673 5.89510838 13.22850273 0.00298387 0.00085239 0.00057768
C 3.78400833 1.25929598 17.53825853 -0.00437533 0.00215998 -0.00106206
C -1.69109696 3.75243867 16.61997538 0.00368114 -0.00247701 -0.00174393
C 6.22088720 8.63385865 13.81758430 -0.00122083 -0.00397557 -0.00170884
C -0.11806509 6.06768088 13.95952586 0.00182788 0.00291174 0.00274141
C -8.21490993 1.15035353 16.71342831 0.00092622 0.00399048 -0.00650486
C -0.67049565 2.99444290 17.09718722 -0.00139298 0.00491900 -0.00158867
C 5.30572274 7.67001572 13.43594370 0.00107706 0.00225567 -0.00476594
C -1.13815786 6.83741063 13.51243958 -0.00108073 -0.00244237 -0.01105607
C -7.29372821 2.10628453 17.07260213 -0.00493443 0.00601934 -0.00008785
C -0.80083034 2.12411389 18.21408698 -0.00256153 0.00768442 -0.00499972
C 5.58443680 6.94048215 12.27891452 0.00297625 -0.00387132 -0.00718041
C -0.98101961 7.61584690 12.35117371 0.00209398 -0.00114122 0.00729280
C -7.40867011 2.71071674 18.30244103 -0.00800959 0.00093295 0.00150609
C 0.84254334 1.92589380 12.86344690 0.00261392 -0.00445441 0.00248969
C 3.92598741 6.84142158 17.85410405 0.00688414 -0.00522174 -0.00583705
C -2.77027844 7.48404993 17.63593668 -0.00049890 -0.00874480 0.00074336
C -5.58020200 2.42111968 12.89962444 0.00275507 0.00185853 0.00255868
C -0.04302261 2.86635960 12.49532454 -0.00309259 0.00278548 0.00503350
C -8.15582032 7.73194227 18.16772661 -0.00212442 0.00234994 -0.00452666
C -1.73914899 6.70794318 18.08826500 0.00102921 -0.00482128 -0.00218251
C 6.57195342 1.87056869 12.30916151 -0.00488909 -0.00920341 0.00483299
C -4.18690567 4.90866305 15.48667983 -0.00264313 -0.00497783 0.00131913
C -4.40574881 0.08574665 14.66897277 -0.00311306 0.00053734 -0.00069068
C 2.37051392 4.65603133 14.86472129 0.00314924 -0.00025570 0.00493285
C 2.88367433 9.21631460 15.80071210 0.00778285 -0.00041263 0.00086376
C -5.48321846 5.50391230 15.18882976 -0.00074102 -0.00241868 0.00015051
C -3.29369563 1.05268570 14.76383113 -0.00418065 -0.00268841 -0.00436884
C 3.47329641 3.70069332 14.90690491 -0.00413475 0.00036249 -0.00109695
C 1.78127600 8.23998904 15.62453243 -0.01092843 0.00068670 0.00696152
C -6.03555609 3.79471661 23.37167353 0.00248022 -0.00075952 0.00272490
C -8.24894998 8.61845872 19.28216751 0.00265693 -0.00033649 -0.00322319
C -1.94200527 5.80904178 19.13027151 -0.00460235 -0.00046918 0.00523982
C 0.63991991 1.29980487 23.42026074 0.00028687 -0.00221538 0.00458767
C -4.81073055 3.56299042 22.67809680 0.00152103 -0.00107383 -0.00299081
C 3.41520219 8.74419260 19.91024297 -0.00653684 -0.00007404 -0.00129694
C -3.13694658 5.91008053 19.87797382 0.00233204 -0.00120592 -0.00261044
C 28.24759493 1.37616485 22.67800119 0.00041207 -0.00486258 0.00160086
C -3.82900900 2.66411069 23.02062073 0.00896440 -0.00138243 -0.00050582
C 2.41194855 7.84203166 19.55252987 -0.00031343 -0.00144162 0.00074959
C -4.18282734 6.63428540 19.34305506 -0.00205933 -0.00141994 -0.00130356
C -10.31919820 2.39615890 23.12320327 0.00334878 -0.00362161 -0.00734446
C -4.09499934 1.81316406 24.06614279 -0.00235913 -0.00138014 -0.00295452
C 2.66554720 6.84073950 18.56394211 0.00246653 -0.00253663 -0.00121013
C -3.99329356 7.49795398 18.24352975 0.00351169 -0.00231407 0.00368170
C -10.63006083 3.21374229 24.18771651 -0.00439260 -0.00286056 0.00469316
C -2.07448398 2.07668471 18.80726412 0.00268251 -0.00081983 -0.00040105
C 0.47090650 6.92095813 23.57601949 -0.00045089 -0.00503783 -0.00246401
C -5.75992193 7.69013958 23.97990051 -0.00520652 0.00294864 0.00474969
C -8.63302704 2.69350015 18.99978861 0.00269819 0.00038795 0.00410163
C -3.10676619 2.82790350 18.36889063 0.00164599 -0.00047057 -0.00293781
C -11.40453869 7.94669510 24.15304113 -0.00016212 0.00020208 -0.00772768
C -4.92207859 6.60253711 24.25921552 -0.00053389 -0.00467537 -0.00050557
C 3.65365746 2.07542416 18.68738249 -0.00203784 -0.00145844 0.00004745
C -7.08465668 5.29454154 21.78628965 0.00439630 0.00862328 0.00152368
C -7.48744570 0.08421332 20.89710992 -0.00020409 -0.00445439 0.00412941
C -0.78512201 4.46810695 20.77026345 -0.00338993 0.00246480 -0.00012437
C -0.48715800 9.59249999 22.01507838 -0.00522491 -0.00101991 -0.00005081
C -8.22050626 6.30619915 21.74705068 -0.00031008 0.00287619 -0.00561529
C -6.31530468 1.00485369 21.04263497 -0.00093139 0.00291777 -0.00208605
C 0.56810063 3.91088762 21.13587805 -0.00125654 -0.00434868 -0.00720039
C -1.61882395 8.59918022 21.78741286 -0.00250444 0.00404426 -0.00115274
C 3.06380869 13.28343012 5.19379655 0.01011448 -0.00729820 0.00139535
C 0.43066044 18.07290047 1.12221588 -0.00194804 -0.00249169 -0.00259883
C 7.13320416 15.59148340 0.95711871 -0.00036140 -0.00050719 -0.00584197
C 9.79157115 10.96191244 5.30341374 -0.00086954 -0.00049504 -0.00742162
C 4.21543382 13.23276314 4.41824109 0.00212333 0.00037629 0.00799641
C 12.48961509 18.23262102 1.71459024 -0.00542048 -0.00202643 -0.00121852
C 5.87238377 15.59676071 1.64458835 -0.00415431 -0.00060395 0.00219669
C 37.28338647 11.00053023 4.40604646 0.00443024 0.00385863 -0.00013949
C 5.23959341 12.37611468 4.78427652 -0.00332070 0.00334864 -0.00420107
C 11.49989660 17.23872218 1.27166060 0.00340616 -0.00214212 -0.00403759
C 4.87409911 16.38046442 1.25047731 -0.00237549 -0.00397131 -0.00280966
C -1.15210691 11.69349770 5.04190157 0.01257511 0.00745837 -0.00679445
C 5.17595918 11.55263940 5.89546994 0.00805264 -0.00639576 0.00232537
C 11.69103927 16.45126674 0.16452000 -0.00447769 -0.00256596 -0.00177888
C 5.10569007 17.33350325 0.19103817 0.00217363 -0.00468333 0.00574614
C -1.34059462 12.53446163 6.09737157 -0.00802962 -0.00244782 0.00491531
C 7.11344718 11.69506152 0.75574656 -0.00092609 -0.00263453 -0.00205704
C 9.45092574 16.73393009 5.44131555 -0.00090701 -0.00352353 -0.00186755
C 3.18966037 17.25440116 5.46104188 0.00013030 0.00112481 -0.00588076
C 0.60730527 12.49629662 0.70623531 -0.00046371 -0.00362661 -0.00374183
C 6.13608439 12.45293402 0.16477979 0.00516355 -0.00135753 0.00663234
C -2.22684391 17.53832680 6.28664250 0.00600326 -0.00146375 -0.00301685
C 4.22496037 16.39483896 5.86599600 -0.00398542 0.00550950 -0.00825843
C 12.59593733 11.65301918 0.36074191 0.00163742 0.00137409 0.00439213
C 1.78904345 14.66481463 3.72593177 -0.00378027 0.00719611 -0.00353341
C 1.47545478 9.91404220 2.62202633 0.00061170 0.00958384 0.00613343
C 8.18803363 14.24179560 2.64742580 -0.00154586 -0.00027717 -0.00012013
C 8.37138768 19.09094196 3.44799446 -0.00102915 -0.00869509 -0.00532097
C 0.77115052 15.81073037 3.69232922 0.00196447 -0.00273227 0.00048694
C 2.65735479 10.73926495 3.04013947 0.00266557 0.00730397 0.01587062
C 9.40871299 13.27742933 2.86075474 -0.00448408 -0.00109061 -0.00124922
C 7.20128266 18.14203622 3.36972197 -0.00156798 0.01061081 -0.00687261
C 0.09147984 13.32420207 11.25936381 0.00558391 -0.00241741 0.00216314
C -2.54986838 18.41077772 7.31035263 0.00430204 -0.00614452 -0.00028107
C 3.99731162 15.64857516 7.00700951 -0.00103321 0.00617360 0.00300358
C 6.62028967 10.95769817 11.17357465 -0.00089640 -0.00298280 -0.00466297
C 1.26449895 13.09914673 10.48442817 0.00324272 -0.00070486 0.00035325
C 9.30741281 18.33641976 7.71146673 0.00815336 -0.00631835 0.00369230
C 2.85103686 15.83100064 7.76584871 0.00344357 -0.00372825 0.00094759
C 34.20561706 10.85991758 10.46446896 0.00161014 -0.00336940 0.00134642
C 2.07640881 12.04827115 10.85479800 0.00064832 0.00446465 0.00008926
C 8.25619185 17.48910434 7.40062388 0.00231293 -0.00055356 -0.00025064
C 1.97757864 16.80916539 7.51683668 -0.00441773 -0.00210132 0.00032930
C -4.31018901 11.75585331 10.82852955 0.00673395 -0.00171746 0.00224306
C 1.82665942 11.28799272 12.05069970 0.00226114 0.00441481 -0.00221095
C 8.36052265 16.66745056 6.26272591 0.00278857 -0.00106571 0.00494661
C 2.03688472 17.49633395 6.27796385 -0.00140679 0.00152206 0.00314561
C -4.40205768 12.38797631 12.04316417 -0.00215964 -0.00678580 -0.00251379
C 3.91811125 11.64218598 6.69262223 -0.00240820 0.00684323 0.00106463
C 6.81375144 16.62078562 11.50644460 0.00899098 0.00431541 -0.00786511
C 0.20143108 17.20401180 11.76883382 -0.00788050 -0.00406155 0.00033623
C -2.66383889 12.54720315 6.69638070 0.00290621 0.00416008 -0.01081967
C 2.94526680 12.51641646 6.36297771 0.00418551 0.00388874 0.00653712
C -5.23998825 17.34937876 12.27551189 -0.00034506 -0.00230943 0.00316737
C 1.19209862 16.23424514 12.09684397 0.00367004 -0.00725866 0.00362089
C 9.59210489 11.83767277 6.32812164 -0.01158908 0.00295100 0.00228093
C -0.93185400 14.92877992 9.68062634 0.00656707 0.00167081 0.00223454
C -1.63106109 9.93053095 8.80417079 0.00320635 0.00124334 0.00223578
C 5.20653765 14.22853349 8.52935149 -0.00306208 -0.00356366 -0.00644831
C 5.31342674 19.14975256 9.61947178 -0.00468361 -0.00347713 -0.00534511
C -2.11857959 15.82867712 9.57344502 -0.00054329 -0.00045594 -0.00520313
C -0.41960817 10.73780573 9.19865302 0.00816248 0.00443826 0.00243314
C 6.42860530 13.32685214 8.63045828 -0.00118181 -0.00185414 0.00456949
C 4.03588809 18.32248510 9.45679504 0.00074048 -0.00273772 -0.00317331
C -2.70782692 13.41312542 17.24692331 -0.00224353 -0.00327369 -0.00733295
C -5.50896384 18.25453897 13.33654878 0.00309143 0.00002997 -0.00136494
C 1.07017344 15.48043244 13.23647067 0.00530797 -0.00192607 0.00053751
C 3.81361375 10.86678645 17.21936080 -0.00790494 -0.00519192 -0.00411591
C -1.57372318 13.26393682 16.47260314 -0.00362595 -0.00394604 0.00054510
C 6.32190890 18.05434412 13.91599023 0.00294235 -0.00046310 0.00574660
C -0.09894276 15.58273799 13.98121227 0.00247420 0.00202035 -0.00154587
C -8.11058623 11.07478645 16.71655107 0.00123942 -0.00388260 0.00292685
C -0.60324187 12.32610108 16.81022359 -0.00339122 0.00933477 -0.00619650
C 5.42466179 17.15764907 13.43890925 -0.00185308 -0.00311259 0.00531556
C -1.10627535 16.46391849 13.63460502 0.00392100 0.00995110 -0.00005174
C -7.25152906 12.09855982 17.09210874 0.00332980 0.01000679 -0.00393541
C -0.80260968 11.46448286 17.91101308 0.00054148 -0.00013060 -0.00349771
C 5.62193993 16.49002827 12.25207044 0.00795296 -0.00296009 0.00625470
C -1.01209579 17.28013045 12.51596389 -0.00322448 -0.00502373 -0.00759805
C -7.34733298 12.81092677 18.32487591 0.00080507 0.00769980 -0.00181588
C 0.65333953 11.53569442 12.77559939 -0.00547344 0.00562611 0.00018554
C 3.88287454 16.70902302 17.72136340 -0.00140393 -0.00656964 0.00087681
C -2.83431879 17.37994189 17.77635151 -0.00908315 0.00908932 0.00413044
C -5.63963331 12.35369361 12.74761130 -0.00447151 -0.00028637 -0.00298556
C -0.26249776 12.41960533 12.28449526 -0.00038918 -0.00376535 -0.00080430
C -8.36835830 17.31550241 18.31059210 0.01054417 0.00599731 0.01051690
C -1.77776126 16.55634223 18.15090886 0.00351371 0.00062696 -0.00537731
C 6.48643064 11.78888521 12.30954749 -0.00213933 -0.00234301 -0.01439686
C -3.91371768 14.78332976 15.67225883 0.00185170 0.00176647 -0.00177974
C -4.57875582 9.88750391 14.81697123 -0.00299289 0.00063377 -0.00192421
C 2.33998835 14.13980143 14.77461808 -0.00022323 -0.00110415 -0.00122288
C 2.53414203 19.11210162 15.81733869 -0.00053047 0.00434188 -0.00780634
C -5.06143200 15.81010955 15.46509421 -0.00283911 0.00341092 -0.00224144
C -3.35580568 10.58518322 15.07440373 -0.00201730 -0.00740808 -0.00374853
C 3.44613035 13.18380308 14.94536686 -0.00480284 -0.00561549 0.00209280
C 1.26795200 18.33612410 15.71386186 -0.00028856 0.00410674 0.00035681
C -5.55979376 13.31409061 23.45151608 0.00402058 -0.00613314 0.01025395
C -8.50172692 18.12246204 19.38241484 0.00200636 0.00347887 -0.00141747
C -1.94268334 15.68253301 19.18347516 -0.00209805 0.00203667 -0.00838696
C 0.72744987 10.97807482 23.51902825 0.00847329 0.00977651 -0.00156560
C -4.29867621 13.14031277 22.81095897 -0.00597062 0.00479122 -0.00351730
C 3.41420955 18.12557243 20.11821747 0.00574423 0.00157328 0.00276321
C -3.18350117 15.65034803 19.88580573 -0.00405080 -0.00715878 0.00466698
C -11.13967097 10.94217344 22.80008271 0.00036992 0.00024228 0.00020120
C -3.38842035 12.25727626 23.30764467 0.00239678 -0.00032061 0.00323470
C 2.52532568 17.18974509 19.68410910 -0.00082938 -0.00082464 0.00727324
C -4.14129076 16.61993938 19.61185177 -0.00488470 0.00239289 -0.00382076
C -10.13639584 11.75678562 23.22616350 0.00157580 0.00292809 0.00209481
C 8.34413428 11.48982000 0.11134653 -0.00175981 -0.00161377 -0.00072683
C 2.78104220 16.43932922 18.50061050 -0.00145866 -0.00235587 -0.00462405
C -4.02478700 17.52273997 18.46777492 -0.00200384 -0.00677629 -0.00422760
C 1.78902844 12.59832837 0.01458738 0.00236942 0.00541019 0.00139774
C -1.92126663 11.68253617 18.74167766 -0.00509515 0.00269824 0.00459366
C 0.94588317 16.51448251 23.83782782 -0.00082932 -0.00790380 -0.00291469
C -5.70710536 17.28580498 23.79660306 -0.00080088 -0.00228111 0.00354529
C -8.55945705 12.55826851 19.06286792 0.00527381 0.00578821 -0.00059620
C -2.88546149 12.56942768 18.33415639 0.00144355 -0.00008215 -0.00012692
C 0.64483255 17.19517090 0.04682765 -0.00625508 0.01169831 0.00302318
C -4.70903503 16.38961193 24.19686349 -0.00512698 -0.00351590 -0.00581125
C 3.58978772 11.78881879 18.27454128 0.00065565 0.00349880 0.00403277
C -6.58736647 14.84057983 21.83302189 0.00299968 0.00097929 0.00038702
C -7.05787303 10.00576554 20.91638305 0.00282033 -0.00093305 0.00037279
C -0.71719571 14.21780800 20.73714721 0.00399151 0.00412002 0.00155226
C -0.43898267 18.88243082 21.77775711 -0.00569266 -0.00458193 0.00048690
C -7.81126433 15.58505819 21.53484114 0.00348597 -0.00360576 0.00942122
C -5.86929932 10.92600582 21.14150500 0.00296385 0.00078176 -0.00077361
C 0.47857178 13.26591640 20.84385138 0.00281545 -0.00628038 0.00862676
C -1.69299037 17.97799104 21.59344791 0.00241193 0.01313744 -0.00040600
C 2.91113432 23.27734883 5.03840261 -0.01099735 0.00357991 0.01000992
C 0.43207750 28.13451695 0.97379546 -0.00367280 0.00271313 -0.00976900
C 6.86541450 25.50903200 0.75710231 0.00285384 0.00499272 0.00408252
C 9.54665135 20.47451319 5.05934644 -0.00928334 0.00324850 -0.00177406
C 4.13731618 23.10530166 4.29651396 -0.00105100 0.00085730 0.00052029
C 12.27406946 27.96918336 1.71638659 0.00269174 -0.00182402 0.00534202
C 5.69784344 25.40730372 1.57716597 0.00232968 0.00065961 0.00081750
C -2.15432143 20.56799654 4.42098157 -0.00639302 0.00534835 0.00200222
C 5.09984510 22.22520577 4.74422468 0.00215710 -0.00080340 0.00546980
C 11.35433774 26.96554288 1.29389662 -0.00440779 0.00012258 -0.00384433
C 4.62562506 26.23234335 1.25686135 0.00261264 0.00257258 -0.00286337
C -1.29012292 21.55993071 4.73633082 -0.00028070 -0.00043355 0.00416315
C 4.92998726 21.44304899 5.92063607 0.01027398 0.00020905 -0.00343106
C 11.63683700 26.16202988 0.21313982 0.00301233 -0.00021005 0.00282505
C 4.70711152 27.11078305 0.11656963 0.00407643 0.00071508 0.01094780
C -1.57481567 22.38724256 5.79116170 0.00274842 0.00579121 0.00807386
C 6.82292983 21.63068073 0.59721291 -0.00046046 -0.00576564 -0.00050780
C 9.86846851 26.36445147 5.36137092 0.00417351 -0.00369120 0.00154077
C 2.95717561 26.83486500 5.34580566 -0.00006627 -0.00044093 0.00254406
C 0.22003819 22.12877917 0.46101990 -0.00047335 -0.00384086 -0.00005065
C 5.85952242 22.39500297 0.09962622 0.00474533 0.00298033 -0.00496016
C -2.52376084 27.27560674 5.89310705 0.00225346 0.00423168 -0.00206096
C 4.03131419 26.11347178 5.73434984 -0.00452420 0.00291280 0.00623362
C 12.38556296 21.17065478 0.07848604 -0.00258623 -0.00386295 -0.00658254
C 1.58946248 24.45320724 3.41254807 0.00337005 -0.00276157 -0.00329608
C 1.52172334 19.55428794 2.64195855 0.00214942 0.00099073 0.00055380
C 8.26918024 24.07880092 2.20663094 0.00265446 0.00076689 -0.00277214
C 8.45883299 28.79032642 3.38905638 0.00032275 0.00127803 -0.00332684
C 0.46338310 25.46074005 3.25323614 0.01149952 -0.00249624 0.00304633
C 2.85145040 20.32030203 2.75684180 -0.00314846 0.00627435 0.00208678
C 9.63634341 23.46285119 2.30327430 0.00082345 -0.00173387 -0.00010097
C 7.21284432 27.93147211 3.21452462 0.00121696 0.00386825 0.00088119
C 0.15283103 23.33702907 11.33888293 -0.00105993 0.00187526 0.00387937
C -2.71420078 27.93843197 7.10737829 -0.00466922 0.00298222 0.00883903
C 3.96309972 25.32792486 6.92710162 -0.00396325 -0.00771389 -0.00100217
C 6.62630282 20.39791979 11.18017584 -0.00267842 0.00635715 0.00321926
C 1.37979440 23.27349321 10.65817184 -0.00487634 -0.00451518 -0.00048451
C 9.35914163 27.95363476 7.64381329 -0.00291190 0.00244434 0.00147141
C 2.79337289 25.38356563 7.74876251 0.00108207 -0.00129390 0.00452967
C -5.21678049 20.38630199 10.69740323 0.00216114 0.00064815 -0.00114495
C 2.36247546 22.38480079 11.08139673 -0.00402528 -0.00239217 -0.00534844
C 8.41335355 27.08194012 7.18529402 0.00213496 0.00131869 -0.00458400
C 1.70017878 26.06029942 7.30035737 0.00519358 0.00294525 0.00619687
C -4.22995516 21.23218598 11.12998714 -0.00450331 -0.00276603 0.00407008
C 2.17009856 21.50329482 12.13845721 0.01067384 -0.00111864 -0.00192516
C 8.62618442 26.34388767 5.99313736 -0.00225103 -0.00172468 -0.00339309
C 1.78522608 26.83510555 6.09136689 0.00024040 0.00552215 -0.00573686
C -4.44321278 22.10125702 12.19938633 -0.00337023 -0.00688748 0.00156107
C 3.75818015 21.60817818 6.65300022 0.00022292 0.00115370 0.00143716
C 6.94074530 26.43310652 11.70869569 0.00937362 0.00466247 0.00044956
C 0.15679472 27.19591407 11.66384323 0.00754422 0.00273931 0.00346539
C -2.86090201 22.28892223 6.45356049 -0.00767622 0.00299324 0.00355509
C 2.78092148 22.51316956 6.17482538 0.00641008 0.00074814 -0.00059688
C -5.43338412 26.82463810 12.07453711 0.00262682 0.00624438 0.00089557
C 1.17754722 26.36485582 12.01981734 -0.00440729 0.00136662 0.00034588
C 9.41443759 21.32323219 6.11377416 0.00392357 0.00230224 0.00005793
C -1.19385949 24.44335585 9.62343246 0.00392765 0.00672503 0.00447849
C -1.59136524 19.87974513 8.90472981 0.00641134 0.00406226 0.00384907
C 5.32010044 24.09452349 8.58816522 -0.00073974 -0.00195858 0.00035114
C 5.63897332 28.87189038 9.51223345 0.00242125 -0.00516171 0.00307849
C -2.53465823 25.08761482 9.49529565 -0.00125322 0.00412861 0.00270914
C -0.77122548 21.09375879 9.12620036 -0.00151299 -0.00157959 -0.00559977
C 6.65537710 23.39851431 8.60781692 -0.00146354 -0.00557918 -0.00030954
C 4.51924725 27.95405721 9.21360180 0.00663653 0.00520549 -0.00078710
C -2.80349093 23.18837106 17.25066304 0.00720213 -0.00060127 -0.00070004
C -5.56082409 27.74531630 13.15991190 -0.00826718 0.00042399 0.00194953
C 1.07181189 25.51411101 13.18614949 -0.00369140 0.00073225 0.00390848
C 3.84476727 20.57738831 17.27374987 -0.01184013 0.00855243 0.00604806
C -1.55698979 23.10590855 16.69371354 0.00695509 -0.00091655 0.00313571
C 6.61104592 27.96432233 13.96122511 0.00145679 0.01033453 -0.00689187
C -0.17758182 25.52495150 13.86732625 0.00173858 0.00565542 -0.00370044
C -8.17036907 20.42355512 16.72812836 0.00009960 -0.00466566 -0.00566593
C -0.57082552 22.26185540 17.09916159 -0.00363413 0.00307779 -0.00558592
C 5.70085731 26.93352197 13.67906510 -0.00097876 -0.00175765 -0.00596444
C -1.18351199 26.42460046 13.54484362 0.00061534 0.00041627 0.00471706
C -7.18427412 21.32660858 17.12076885 -0.00054317 -0.00196851 -0.00290137
C -0.81825294 21.41911453 18.15642050 -0.00015012 0.00575278 0.00133746
C 5.84647359 26.24380498 12.50365192 -0.00662483 0.00546844 -0.00366637
C -1.04041959 27.28023435 12.39388581 0.00481313 -0.00006267 -0.00164345
C -7.39074200 22.21430876 18.14462799 -0.00326273 0.00089439 0.00407518
C 0.91244144 21.63314057 12.84687478 0.00538047 -0.00346196 0.00014103
C 3.69215151 26.58073055 17.63928237 -0.00554318 0.00072652 -0.00263093
C -2.90750339 27.24268805 17.88102728 -0.00238446 0.00793235 -0.00745173
C -5.76720910 22.19024470 12.73392259 0.00305352 -0.00403050 0.00021815
C -0.06698657 22.48656556 12.44750262 -0.00473034 -0.00769711 -0.00501700
C -8.50930670 27.05713739 18.07948315 0.00042365 -0.00127731 0.00010683
C -1.83274745 26.41359032 18.22969926 -0.00857017 0.00188171 -0.00311415
C 6.40232715 21.15743508 12.27371899 -0.00132561 0.00385487 0.00124500
C -3.88389323 24.50651575 15.57177433 -0.00249037 -0.00441617 -0.00014946
C -4.37334668 19.70496718 14.86892129 0.00988959 0.00519883 -0.00469570
C 2.35024071 24.15043353 14.70491596 0.00086294 -0.00050009 0.00009843
C 2.51901860 0.04288000 15.89381777 0.00052541 -0.00321762 0.00180493
C -5.10337917 25.33456042 15.34471180 -0.00190903 0.00141292 0.00315391
C -3.21057551 20.59381700 15.01911884 -0.00404577 -0.00089335 0.00286449
C 3.57353525 23.23911441 14.92285157 -0.00048196 -0.00115146 -0.01311393
C 1.18878703 28.48622013 15.68815545 0.00131282 -0.00119064 -0.00300041
C -5.90679012 23.18800307 23.34661457 -0.00056166 -0.00356894 -0.00494988
C -8.67460266 27.83802607 19.24647708 0.00014797 0.00647860 0.00000952
C -2.04345349 25.47443249 19.25679239 -0.00066191 0.00174977 0.00010195
C 0.65345189 20.35714726 23.33276979 0.00507402 -0.00558222 0.00107521
C -4.70997237 23.03825137 22.61978774 0.00329580 -0.00420482 -0.00397556
C 3.52256080 28.08158528 19.99428382 0.00552436 0.00037716 -0.01444979
C -3.25884277 25.43209571 19.88526075 -0.00501450 -0.00485152 0.00064586
C 28.20733399 20.29318635 22.76296843 0.00102590 0.00125932 -0.00540625
C -3.77926965 22.13261932 23.01663635 -0.00521026 0.00087019 -0.00407474
C 2.48185537 27.23025934 19.57685021 0.00144741 0.00075470 0.00409925
C -4.30571544 26.23250634 19.52894355 -0.00416253 -0.00024814 -0.00591284
C -10.37076123 21.20931944 23.10761819 -0.00643804 -0.00356480 0.00443084
C -4.08782273 21.33587609 24.17514710 0.00074222 0.00045533 0.00242958
C 2.56445662 26.48082375 18.41390763 -0.00146536 0.00437500 -0.00080415
C -4.21272636 27.12206752 18.45203688 -0.00697138 -0.01116937 0.00437395
C -10.56523174 22.09656541 24.16489238 -0.00114064 -0.00157262 0.00502184
C -2.17981614 21.43859842 18.75934341 -0.00040972 -0.00813540 -0.00482733
C 0.87418014 26.29279950 23.89125089 -0.00061286 -0.00607707 0.00627078
C -6.12430530 27.20576344 23.74237369 -0.00711888 0.00820926 0.00344372
C -8.60778398 22.04162980 18.83454783 -0.00120015 -0.00041813 -0.00734802
C -3.12354283 22.36670867 18.36200384 -0.00051444 0.00351061 0.00327070
C -11.30529340 27.35399275 24.26017607 0.00467644 -0.00262052 -0.00401250
C -5.05093900 26.40396449 24.07340479 -0.00457645 0.00711987 -0.00605244
C 3.58606424 21.49226372 18.32040182 0.00011556 -0.00700564 -0.00767900
C -7.14446888 24.54377965 21.74511451 -0.00310493 0.00150154 0.00324451
C -7.29812579 19.43398509 20.98108870 0.00364885 -0.00073184 0.00266744
C -0.90239101 23.99023595 20.72610890 -0.00284976 -0.00255408 0.00083621
C -0.53471656 28.93115389 21.90323249 0.00572019 -0.00847939 0.00104732
C -8.29713907 25.51752327 21.52300104 -0.00208350 -0.00085090 -0.00126227
C -6.18262373 20.39441756 21.14357665 0.00125821 -0.00500217 0.00288424
C 0.20657389 23.06439268 20.97748699 0.00326449 0.00339042 -0.00130402
C -1.58353278 27.94087035 21.60354993 -0.00552719 0.00295502 -0.00089160
C 16.32380868 3.71549104 5.29302787 0.00098565 0.00341014 0.00435711
C 13.42471506 8.44317773 0.83340552 -0.00725815 -0.00006559 -0.00211688
C 20.18600768 5.90881105 1.04638186 -0.00236929 0.00760816 -0.00173429
C 23.13474027 1.27918121 4.99461014 0.00524723 0.00458060 -0.01077848
C 17.50943404 3.75414745 4.55251177 0.00115326 -0.00524226 0.00110663
C 25.52974280 8.37276973 1.68419751 0.00719897 0.00163381 0.00507829
C 18.99821279 6.05791562 1.82235870 -0.00346720 -0.00196910 -0.00510632
C 10.85113492 1.18588894 4.26211304 -0.00148521 0.00736105 0.00357501
C 18.65992597 2.94582111 4.94540541 -0.00087910 -0.00393202 0.00250270
C 24.66762973 7.41520915 1.09847913 0.00336619 -0.00302206 -0.00398307
C 18.00307330 6.90784439 1.40592167 -0.00505746 -0.00001726 -0.00000942
C 11.85176461 2.11334748 4.59995328 0.00799554 0.00447120 -0.00396429
C 18.59755388 2.19618520 6.13045079 -0.00419752 -0.00578487 -0.00204492
C 12.88331383 6.75666267 24.22038948 0.00441831 -0.00643697 0.00419833
C 18.14333345 7.61221846 0.17202095 -0.00117958 0.00070642 0.00067156
C 11.68547634 2.87529865 5.78675256 0.00357781 0.00427465 -0.00127985
C 20.00495532 2.04412098 0.36920212 -0.00108718 0.00206072 -0.00197976
C 23.41877418 6.80822781 5.60275001 -0.00023298 -0.00064535 0.00865556
C 16.40563126 7.75433636 5.62499630 0.00555552 -0.00478584 -0.01186060
C 13.32649762 3.08840411 0.54629861 -0.00333381 0.00253486 -0.00703716
C 19.13376982 3.04906904 0.09315576 0.00967811 0.00007844 -0.00459840
C 10.84648671 7.76252399 6.08194417 0.00868780 0.01186146 -0.00190770
C 17.42058551 6.96408844 6.06098243 -0.00204763 -0.00342735 -0.00047981
C 25.87771259 2.27651723 0.03697907 0.00090169 -0.00240158 0.00421156
C 14.97534248 5.16229693 3.83404897 -0.00428072 0.00551857 -0.00205527
C 14.64488861 0.48792447 2.56693116 -0.00008740 0.00089251 0.00687573
C 21.33813850 4.50901360 2.65171890 -0.00045709 -0.00027097 0.00407627
C 21.59442829 9.09563443 3.59068139 0.00225981 -0.00061348 0.00272482
C 13.67091950 5.93275860 3.92638652 0.00363949 -0.00306203 0.00279310
C 16.03231413 1.04573514 2.76110335 -0.00337140 -0.00221531 0.00561334