2880
Time=10000.00000000 pbc="T T T" Lattice="39.66476650 0.00000000 0.00000000 0.00000000 29.16522747 0.00000000 -12.01627193 0.00000000 24.35414574" energy=-18399.49744773 virial="-34.63550734 10.63487733 -73.40404467 10.63487733 -98.58282124 0.33958574 -73.40404467 0.33958574 1.27411039" stress="0.00133896 0.00040936 -0.00276323 0.00040936 -0.00112365 0.00003572 -0.00276323 0.00003572 0.00263036" Properties=species:S:1:pos:R:3:vel:R:3
C 3.16540487 3.51365305 5.14496285 0.00437554 -0.00781971 0.00320648
C 0.45226119 8.65321999 1.13733432 -0.00816960 0.00568988 -0.00870019
C 6.95450018 5.99568776 1.08164437 -0.00933751 -0.00876199 0.00061673
C 9.76967264 1.19352974 5.27226953 -0.00143805 -0.00299787 0.00032749
C 4.37397331 3.51636702 4.46282882 -0.00305526 -0.00277311 0.00090178
C 12.50330051 8.61477614 1.61974621 -0.00081494 0.00507511 0.00181145
C 5.71928428 6.05564454 1.76160150 0.00504267 -0.00314071 -0.00517515
C 37.27502435 1.15534888 4.45853111 0.00753650 -0.00327153 -0.00120640
C 5.40496632 2.73414234 5.00962430 0.00750405 0.00595690 -0.00879714
C 11.46918863 7.79234977 1.20671161 -0.00027865 0.00456853 0.00366656
C 4.84540517 7.07683919 1.46187876 -0.00325365 0.00164821 0.00317088
C -1.38847357 1.99303674 4.89669825 -0.00410106 -0.00555749 0.01068410
C 5.15234629 1.78424571 6.00444277 0.00012639 -0.00759668 -0.00351957
C 11.62134210 6.98351329 0.03982937 -0.00079204 0.00418652 0.01169726
C 5.02716106 7.82609289 0.23846380 -0.00086380 -0.00128139 -0.00292632
C -1.54154442 2.75404459 6.02030923 -0.00499005 0.00683724 -0.00341735
C 6.75243204 2.01314621 0.75184482 -0.00029077 0.00292704 0.00256091
C 9.93309127 6.61509373 5.63167140 0.00396174 -0.00677194 0.00303140
C 3.33132156 7.91730338 5.74198092 0.00462990 -0.00620905 0.00641645
C 0.08345121 2.94305341 0.51875079 -0.00526376 -0.00199031 -0.00193565
C 5.81375610 2.94205241 0.35416631 0.00646993 0.00294660 -0.00136311
C -2.48842780 7.73555731 5.74309338 -0.00497551 0.00262077 -0.00768738
C 4.27898821 6.94800791 6.03530093 0.00025260 0.00213189 0.00319427
C 12.64821097 2.16600059 0.17472346 -0.00052212 0.00280827 -0.00287105
C 1.81479098 5.01246622 3.71821246 -0.00191182 0.00151280 0.00413345
C 1.32102285 0.16120767 2.56674799 -0.00193340 0.00123956 0.00426218
C 8.09135700 4.49698423 2.62625975 -0.00064018 -0.00111266 -0.00351110
C 8.66247508 9.18737519 3.49097814 -0.00413085 0.00007591 -0.00747886
C 0.66990922 6.03910572 3.71548850 -0.00175405 -0.00256859 -0.00264082
C 2.46637753 1.04840642 2.75846144 -0.00458516 -0.00203870 -0.00327919
C 9.41320059 3.75664168 2.82485627 -0.00222258 -0.00581810 0.00390320
C 7.47914576 8.31947719 3.42027846 -0.00012687 -0.00042582 0.00016894
C 0.14580466 3.50858271 11.23300878 -0.00278714 0.00082184 0.00630771
C -2.60203782 8.54336574 6.88654728 0.00282172 0.00252127 -0.00299730
C 4.01095086 6.00391115 7.05066402 0.00257965 0.00191297 0.00023273
C 6.76140720 0.99428230 11.13914360 0.00106242 0.00647352 -0.00225072
C 1.32339132 3.40518659 10.43635784 0.00720850 0.00024660 -0.00489392
C 9.54524022 8.35502862 7.72931200 0.00002318 -0.00372318 -0.00280498
C 2.87078220 6.04585503 7.79656921 0.00198664 0.00428480 0.00666653
C 34.38424245 1.13000226 10.64576472 0.00124656 0.00408890 0.00199918
C 2.33323990 2.58022509 10.82309800 0.00557142 0.00550652 -0.00891747
C 8.65716198 7.37018379 7.45609339 -0.00034924 0.00476900 -0.00634760
C 1.86463214 6.89184242 7.38751678 0.00294648 0.00350080 0.00168768
C -4.39013052 2.06291771 11.08145131 -0.00021184 -0.00568762 0.00465417
C 2.15260263 1.71527917 11.96669353 0.00420413 0.00018741 -0.01018870
C 8.72318946 6.57098643 6.33426949 0.00139951 0.00274982 -0.00424436
C 2.03062439 7.81674148 6.30809257 0.00063553 -0.00194747 0.00826036
C -4.56559916 2.90270677 12.18908890 -0.00061120 0.00235331 -0.00306567
C 3.94677288 1.89928565 6.67571227 0.00514195 -0.01064442 0.00749007
C 6.64009096 6.77906845 11.50791433 0.00036299 -0.00266362 -0.00280604
C 0.19070902 7.52982879 11.67162133 0.00537435 -0.00522956 -0.00410334
C -2.80190910 2.78587939 6.66995684 -0.00330078 -0.00131579 -0.00120169
C 2.92439722 2.70758347 6.25278828 0.00488795 -0.00361117 -0.00605678
C -5.56877116 7.87372404 12.09367579 -0.00119670 -0.00043001 0.00261040
C 1.12814174 6.63651618 12.12484988 -0.00237543 0.00221869 -0.00165312
C 9.67740864 2.07433013 6.34642249 0.00443897 -0.00224194 -0.00008730
C -1.03361248 5.02802328 9.68101885 0.00656780 -0.00168560 -0.00002978
C -1.52988764 0.43794024 8.66359929 -0.00659056 -0.00520839 0.00394872
C 5.25953821 4.58552101 8.52323157 0.00596351 -0.00265016 -0.00103018
C 5.62194727 9.32840887 9.63785344 -0.00778958 0.00048784 -0.00799970
C -2.20341796 5.94324753 9.66011329 -0.00458764 0.00065057 -0.00315184
C -0.37388439 1.33499805 8.88281489 0.00227345 0.00076917 -0.00253375
C 6.48190462 3.66502729 8.60738663 0.00067714 0.00081170 0.00295289
C 4.49000118 8.45628737 9.41855133 -0.00056429 0.00155615 -0.00374322
C -2.84250320 3.89841106 17.46539700 -0.00372599 -0.00045320 0.00037494
C -5.73532763 8.59546255 13.23886045 -0.00392598 0.00394725 0.00206748
C 0.90551797 5.75596315 13.11654564 0.00399663 0.00169625 0.00274084
C 3.76711038 1.02886300 17.20341901 -0.00623977 0.00709032 -0.00463329
C -1.73638293 3.70806687 16.66773645 0.00435864 -0.00288799 -0.00586136
C 6.21234370 8.44849738 13.65630977 -0.00250622 0.00060380 0.00916391
C -0.33954239 5.89027705 13.81699842 0.00057034 0.00365790 -0.00896114
C -8.06542243 1.15443727 16.81829075 0.00105809 0.00320387 -0.00419780
C -0.73419744 2.90219726 17.10124640 -0.00298064 -0.00747491 -0.00095571
C 5.16733703 7.61020318 13.25957903 -0.00690052 0.00214092 -0.00341723
C -1.27867301 6.81535386 13.33440853 -0.00630166 0.00480046 -0.00539500
C -7.17547438 2.09980625 17.21831911 -0.00200597 0.00046010 -0.00508721
C -0.84335319 2.06978537 18.23540006 0.00182604 -0.00236063 0.00272632
C 5.39426326 6.68427277 12.21012477 -0.00842160 -0.00211894 0.00228188
C -1.09582010 7.63141509 12.24006836 0.00048996 -0.00042202 0.00224790
C -7.35923376 2.94158310 18.36590111 -0.00176137 -0.00061630 0.00134906
C 0.98682761 1.88137268 12.68781767 0.00459963 -0.00016401 0.00703036
C 3.79079631 6.90009942 17.51589614 -0.00191615 -0.00551039 -0.00276997
C -2.55519075 7.96363183 17.95925979 0.00148323 -0.00501563 0.00026568
C -5.80897926 2.77738138 12.85060957 -0.00645514 -0.00242263 0.00654598
C -0.05247848 2.64724949 12.30623515 -0.00220354 -0.00351898 0.00139581
C -8.32306222 7.91678738 18.26661421 0.00008838 -0.00172121 -0.00492320
C -1.70324151 6.94401213 18.20771702 -0.00479142 -0.00407764 -0.00151443
C 6.54035554 1.90293521 12.19487176 0.00387408 0.00560691 -0.00822075
C -4.23241896 5.11335269 15.84642698 0.00020950 0.00260372 0.00268944
C -4.33708901 0.33234391 14.77899965 -0.00221981 0.00154327 -0.00174650
C 2.07539695 4.43094567 14.73378073 -0.00067831 0.00205181 0.00206971
C 2.53906310 9.43268543 15.78059509 -0.00122966 0.00626339 -0.00050823
C -5.54625334 5.88045040 15.83572725 0.00886243 0.00103840 0.00587547
C -3.41252816 1.54566728 14.86128715 0.00439370 0.00311132 0.00456449
C 3.27372215 3.51660255 14.95122395 -0.00149908 0.00690290 -0.00316892
C 1.41082405 8.45260725 15.63969765 -0.00549474 0.00176045 0.00536498
C -6.00553845 3.78091924 23.59073550 0.00400153 -0.00249803 -0.00186330
C -8.50455476 8.79390700 19.34745270 -0.00095463 -0.00873557 -0.00699579
C -1.93359178 6.14129997 19.28236509 -0.00083226 0.00388476 0.00153958
C 0.81045546 1.27499431 23.49053432 -0.01151858 0.00358995 0.00335757
C -4.84499414 3.64941721 22.82455490 -0.00812039 -0.00509446 -0.00215758
C 3.56558582 8.54463753 19.77600408 0.00175813 0.00381195 -0.00373310
C -3.14927666 6.21228702 20.01398543 0.00078952 -0.00097348 0.00021709
C 28.30875305 1.29087491 22.70112615 0.00542597 -0.00030233 -0.00195049
C -3.91046391 2.64964233 23.16385374 0.00130689 -0.00471007 -0.00124697
C 2.51137032 7.68279805 19.51358196 -0.00237484 0.00838066 0.00437175
C -4.09937313 7.07004867 19.62774766 0.00199537 0.00707549 -0.00176212
C -10.45350371 2.28202373 23.03224069 0.00370158 -0.00901043 0.00188717
C -4.11532724 1.87526713 24.29493076 -0.00426014 -0.00159432 -0.00093747
C 2.61512056 6.88407494 18.31970150 0.00387855 0.00617940 -0.00079135
C -3.83456242 7.99361989 18.63214453 -0.00008465 -0.00454678 0.00508644
C -10.66006638 3.08945828 24.17576885 -0.00275964 0.00884609 -0.00165342
C -2.07868239 2.20128463 18.98513502 0.00839818 -0.00481936 0.00484321
C 0.84971988 6.90096311 23.77779530 0.00147303 0.00455944 0.00104041
C -5.76982833 7.64658606 23.87555341 -0.00819788 -0.00564307 -0.00173857
C -8.69418916 2.99876302 18.87784056 0.00033737 -0.00418679 0.00173574
C -3.05342356 3.05483090 18.54344728 0.00098907 0.00087599 0.00276111
C 0.67443497 7.88257916 0.00173042 -0.00219455 0.00329818 -0.00471801
C 7.22345383 6.86978980 0.02526250 0.00010246 -0.00062585 0.00169478
C 3.65330255 1.80725010 18.43020227 0.00815895 -0.00042756 0.00121292
C -7.24176914 5.18233884 21.97083184 -0.00122976 -0.00761773 0.00821250
C -7.49975313 0.39981432 21.06956187 -0.00237425 -0.00151894 -0.00162721
C -0.86608835 4.51758682 20.79774267 0.00211335 -0.00273432 -0.00573251
C -0.27572697 9.53563846 21.75032761 0.00260358 0.00251862 0.00368221
C -8.41593515 6.08650114 21.83647674 -0.00552070 0.00760580 -0.00240662
C -6.40199991 1.26836425 21.35586835 -0.00108695 0.00423438 -0.00014684
C 0.30531294 3.63287981 20.86771742 -0.00097576 -0.00307552 0.01039572
C -1.49022431 8.76045946 21.48499367 0.01331675 -0.00210157 0.00708411
C 3.31855052 13.45580109 5.19397395 -0.00299938 0.00102696 0.00343808
C 0.59401797 18.34433615 1.03004066 0.00595040 0.00319929 -0.00813699
C 7.20812072 15.61124992 0.92932512 0.00361890 -0.01062094 0.00521966
C 9.92492346 10.59861349 5.16853594 -0.00028989 -0.00130394 0.00173887
C 4.59023276 13.39589191 4.69462968 -0.00152371 -0.00345052 -0.00655749
C 12.42341227 18.29632654 1.63801604 -0.00006014 -0.00056034 -0.00307297
C 6.05468762 15.70709263 1.66959186 -0.00198551 -0.00297128 -0.00318462
C 37.43125010 10.90540308 4.36618413 -0.00065088 -0.00070915 -0.00526958
C 5.53608645 12.50997182 5.11136351 0.00415220 -0.00227178 -0.00099561
C 11.47052261 17.34559135 1.17594062 -0.00080793 -0.00121803 0.00861452
C 5.03610074 16.50759430 1.17519228 -0.00594826 -0.00151066 -0.00135751
C -1.23617273 11.76940324 4.73278086 0.00298437 0.00465369 0.00281209
C 5.30136514 11.63811846 6.21004653 -0.00522216 0.00127453 0.00004177
C 11.74222925 16.37962655 0.17029809 -0.00081067 0.00346167 0.00013030
C -6.86224136 17.24594469 24.32252047 0.00326400 -0.00238845 -0.00602601
C -1.41229884 12.55304378 5.92132427 -0.00232765 0.00422200 0.00362777
C 7.21800626 11.68203266 0.57071678 0.00203013 0.00361774 -0.00238741
C 9.68442070 16.53803894 5.37330123 0.00360366 0.00593959 0.00248894
C 3.21292086 17.26195953 5.68841537 -0.00617325 0.00498630 0.00150310
C 0.28359879 12.70169948 0.52723861 0.00363869 0.00340637 -0.00464132
C 6.19000572 12.50728778 0.10909578 0.00059020 0.00081724 -0.00709162
C -2.40396528 17.53079750 6.03288133 0.00377237 0.00251431 0.00304927
C 4.29261602 16.46914082 6.09520957 -0.00122035 -0.00592593 0.00776176
C 12.88720352 11.50678849 0.26149296 0.00047966 0.01242280 0.00257535
C 2.46859264 14.90693217 3.52543025 -0.00144003 -0.00644050 -0.00232214
C 1.63637460 9.97993811 2.75338016 -0.00343386 -0.00168818 -0.00315360
C 8.46113834 14.17023338 2.42693256 -0.00410505 0.00479997 0.00152742
C 8.52245096 19.38465161 3.45384222 0.00172674 0.00757629 -0.00177317
C 1.60497686 16.05935874 3.26041310 0.00202816 -0.00395528 -0.00599277
C 2.93653551 10.76154292 2.97403781 0.00005088 -0.00265192 0.00843107
C 9.63774568 13.18806300 2.54910833 -0.00057085 -0.00349931 0.00941553
C 7.30948905 18.52998978 3.30021450 0.00626508 0.00165603 0.00105984
C 0.03943332 13.35231404 11.17885758 0.00035256 -0.00407536 -0.00494972
C -2.55655951 18.30200502 7.22871733 0.00868063 0.00295373 -0.00293981
C 4.15739821 15.52032961 7.13624099 0.00037430 -0.00677329 0.00102256
C 6.84964062 10.67720762 11.24215312 0.00178217 0.00358327 -0.00961910
C 1.30727904 13.27196734 10.57342436 -0.00093144 -0.00453371 -0.00533056
C 9.28452772 18.08155439 7.60381471 0.00212071 0.00195627 -0.00489225
C 2.92876644 15.49301072 7.82495811 -0.00666572 0.00223131 0.00074299
C 34.38850653 10.94373022 10.42069215 -0.00320537 -0.00414188 0.00403852
C 2.34079069 12.48924340 10.96921964 -0.00448406 0.00494177 -0.00125118
C 8.26719130 17.30206896 7.14660638 0.00231676 -0.00036661 -0.00305551
C 1.81939365 16.25794867 7.40309319 0.00166860 -0.00045365 -0.00083305
C -4.19808636 11.73415130 10.79746892 0.00369467 0.00124419 -0.00130690
C 2.19208404 11.61996760 12.05964306 -0.00045803 0.00638334 0.00753919
C 8.45793116 16.45780008 6.03817120 -0.00102177 0.00269091 0.00135824
C 1.94922898 17.20103277 6.33346419 0.00432988 0.00406413 0.00285368
C -4.25894455 12.52405640 11.87402115 0.00673292 -0.00358003 0.00190258
C 4.02507648 11.76573550 6.78365173 0.00051258 0.00062024 -0.00173720
C 6.85217471 16.72707371 11.46488591 -0.00267333 0.00520570 -0.00261923
C 0.11951459 17.18639087 11.44560816 0.00172581 0.00902702 0.00971440
C -2.63848584 12.52064768 6.56827967 -0.00907283 0.00333535 0.00658845
C 3.02956660 12.64823929 6.28890163 -0.00212089 -0.00557001 0.00331572
C -5.22621273 17.58490887 12.06073363 -0.00745473 -0.00065002 -0.00071652
C 1.20771866 16.41406269 11.93514263 0.00233859 -0.00284181 0.00421797
C 9.61200726 11.48834045 6.22331702 0.00150224 0.00088169 -0.00161244
C -1.17586592 14.63801699 9.64682885 0.00310936 0.00292796 0.00094456
C -1.26872810 9.74905065 8.49223054 -0.01121298 -0.00183291 0.00198250
C 5.31451138 14.16874654 8.73388897 0.00034227 0.00533972 -0.00259278
C 5.57515988 19.24778033 9.42091240 0.00319942 -0.00188101 0.00024780
C -2.30269253 15.65889604 9.56681701 0.00047522 0.00799197 0.00268243
C -0.03604697 10.51216935 8.68082549 -0.00060645 -0.00450589 -0.00402364
C 6.61283375 13.46098660 9.02021905 0.01228420 0.00250201 0.00188567
C 4.39778856 18.32301221 9.31121192 0.00301146 -0.00304899 0.00493472
C -2.72659647 13.69245039 17.23172175 -0.00116967 -0.00112113 -0.00458689
C -5.46849058 18.44011361 13.15560336 0.00252808 0.00077642 0.00181798
C 1.14193545 15.60503294 13.07598846 0.00141839 -0.00007307 0.00560144
C 3.79192449 10.90167800 17.30578645 0.00181563 0.00413296 -0.00586584
C -1.50533051 13.60175438 16.52873710 0.00018797 -0.00188350 0.00345629
C 6.41344744 18.32649748 13.77836926 -0.00916562 -0.00034432 0.00087604
C -0.00866095 15.74846232 13.88679065 -0.00374682 -0.00447346 -0.00407511
C -8.11404251 10.86601192 16.68107476 -0.00250265 0.00904153 0.00239028
C -0.60218261 12.61013215 16.96935711 -0.00602681 0.00829382 -0.00375717
C 5.45315368 17.40394605 13.37777267 0.00421027 0.00658876 0.00669577
C -1.02978630 16.56725648 13.43240229 0.00073844 -0.00389165 -0.00134479
C -7.18596205 11.86648472 17.00403213 0.00172035 0.01050858 -0.00515167
C -0.84550108 11.81063219 18.13581340 0.00092195 0.01269040 -0.00309290
C 5.65108461 16.57209185 12.26206673 -0.00881468 -0.00348624 0.00360425
C -0.96512780 17.37006549 12.27481311 -0.00672938 0.00669560 0.00099909
C -7.27897617 12.67473722 18.14442100 0.00372128 -0.00496534 0.00150494
C 0.95454888 11.66128534 12.73587472 0.00133696 0.00417790 -0.00451084
C 3.85330166 16.70862393 17.59480341 -0.00392110 0.00390153 -0.00090919
C -2.65351318 17.47520579 17.75723238 0.00758878 -0.00035027 -0.00088086
C -5.47937003 12.48734461 12.67358668 -0.01069029 0.00362315 0.00406792
C -0.07820114 12.49616335 12.33925300 -0.00214325 0.00088904 0.00552091
C -8.24497393 17.43326714 18.01267565 -0.00584017 -0.00051442 -0.00423840
C -1.64555747 16.65395793 18.13922852 -0.01035716 0.00086532 0.00609172
C 6.62453675 11.53985897 12.24597312 -0.00773581 -0.00178284 0.00141105
C -3.94690072 14.98345428 15.48628743 0.00937989 -0.00626241 -0.00371105
C -4.44343796 10.04261216 14.81656670 0.00035533 -0.00026716 -0.00230476
C 2.41371968 14.23854285 14.64441376 0.00095841 0.00147898 0.00254921
C 2.70970945 19.11202648 15.61477191 0.00079513 -0.00214114 0.00154436
C -5.34501438 15.51669516 15.27314858 0.00284548 -0.00540898 -0.00334462
C -3.28133336 10.96577132 14.84408381 -0.00153307 -0.00621092 -0.00116361
C 3.47795939 13.17075055 14.75460576 0.01106113 0.00163002 -0.00689207
C 1.65354316 18.09273025 15.46777891 -0.00442709 -0.00312348 0.00169503
C -5.60863580 13.35505163 23.38847412 0.00144934 -0.00521945 0.00122255
C -8.45817169 18.17915094 19.17033541 0.00201553 -0.00222510 -0.00659108
C -1.77317869 15.76167073 19.14688943 0.00294783 -0.00283837 0.00856191
C 0.99283802 10.68315965 23.50707170 -0.00268239 0.00030366 0.00835482
C -4.39769623 13.35197547 22.70430566 0.00163923 -0.00191253 0.00230455
C 3.29652490 18.22549515 19.90030989 -0.00453631 0.00318318 -0.00305312
C -3.00768788 15.79130986 19.83078069 0.00157399 0.00429253 0.00705151
C -11.07339362 11.01695723 22.82538685 0.00613433 0.00704002 -0.00101232
C -3.36651711 12.57420662 23.18354835 -0.00746312 -0.00559351 0.00392674
C 2.38327850 17.24764144 19.49373556 -0.00617986 0.00463487 -0.00739573
C -4.13487648 16.54682842 19.42376112 -0.00487213 -0.00061074 0.00229866
C -10.20061568 12.05553812 23.13779285 -0.00531577 -0.00358021 0.00634994
C -3.53226350 11.76900756 24.35037816 0.00314338 -0.00196963 0.00368270
C 2.69777460 16.44651197 18.38754112 -0.00078773 0.00339025 -0.00567815
C -3.96365477 17.36498600 18.32378126 0.00703368 -0.00396562 0.00068596
C -10.48699629 12.85970787 24.21326074 0.00057851 0.00409425 -0.00090226
C -2.03973171 11.96982711 18.76886103 -0.00373339 -0.00190397 0.00110533
C 0.93583059 16.52695829 23.79670791 0.00002188 -0.00809172 0.00395146
C -5.57039863 17.21564593 23.69754263 0.00614302 0.00461084 0.00003735
C -8.56099709 12.67969005 18.80272829 -0.00405150 -0.00045137 -0.00660164
C -3.00183584 12.85221333 18.28285851 -0.00477154 -0.00534130 -0.00217700
C -11.18505644 17.56457868 24.23513445 -0.00398726 -0.00163009 0.00542614
C -4.51249437 16.48925297 24.18349345 0.00435512 0.00287558 -0.00579077
C 3.71748461 11.63668815 18.50657581 0.00472281 -0.00049918 -0.00155737
C -6.82565939 14.75238048 21.73957521 -0.00303954 0.00550529 0.00002106
C -7.34356389 10.17813423 20.96323640 0.00063522 -0.00151887 -0.00696266
C -0.51839803 14.32716162 20.73426768 -0.00610049 -0.00554820 0.00585459
C -0.44875240 19.17094043 21.85656008 -0.00118430 0.00251873 0.00307792
C -7.97693233 15.76632308 21.57532133 0.00671728 -0.00512655 -0.00710044
C -6.07435398 10.93250958 21.09588594 -0.00081715 -0.00104424 0.00819473
C 0.75641541 13.48737349 21.02873778 0.00266133 -0.00682115 0.00066650
C -1.59449081 18.17824760 21.86542430 0.00184927 0.00523072 0.00457634
C 3.15072813 23.26917161 5.05981955 -0.00626324 0.00072579 0.00133335
C 0.18196981 28.00752687 1.00465463 0.00277106 0.00310956 0.00544111
C 7.05953675 25.48127166 1.07845988 0.00553109 -0.00346081 0.00468915
C 9.88905113 20.58251560 5.04717541 -0.00064814 -0.00105795 -0.00209421
C 4.40402843 23.17629819 4.35343670 0.00626880 0.01025200 0.00253063
C 12.45548956 28.04699676 1.58147647 -0.00317039 -0.00031314 0.00232047
C 5.82550334 25.59395943 1.74923595 0.00392544 0.00161309 -0.00704433
C 37.36417591 20.52079529 4.35103935 0.00345719 -0.00740082 -0.00345827
C 5.35486645 22.24760104 4.71524001 -0.00321312 0.00059591 0.00077962
C 11.45559863 27.22699317 1.11969589 0.00700501 -0.00341052 -0.00214685
C 4.86150676 26.40805473 1.26193368 0.00592473 -0.00300520 -0.00967884
C -1.39224308 21.39374207 4.75572807 -0.00311260 0.00295988 0.00217559
C 5.16806235 21.37636950 5.81281498 -0.00399986 -0.00542902 0.00014099
C -0.40800148 26.40300442 24.34459298 0.00075624 0.00163417 -0.00012320
C 5.11366063 27.35835842 0.16578133 0.00882180 -0.00066225 0.00076483
C -1.64587229 22.23679403 5.96166586 -0.00105838 -0.00276274 -0.00268299
C 7.06327108 21.58943312 0.33691423 0.00442514 0.00249867 0.00101042
C 9.64627118 26.23149543 5.48263503 0.00647565 0.00429261 0.00326127
C 3.25480643 27.22979493 5.58530678 0.00117245 0.00160818 0.00194203
C 0.23765796 22.29675961 0.41819762 0.00001213 0.00240449 0.00237461
C 6.07393086 22.54275745 0.07139261 -0.00185852 -0.00031442 -0.00320769
C -2.43845658 27.31763746 6.08004561 0.00513796 0.00539991 -0.00092004
C 4.17929148 26.29702049 5.91287593 -0.00548388 -0.01054247 -0.00512891
C 0.67849620 21.52062417 24.30708172 0.00181543 0.00045672 0.00172677
C 1.85706547 24.67473086 3.44835011 -0.00456178 -0.00470327 0.00166199
C 1.92764081 19.69943271 2.55316969 -0.00002689 0.00517409 -0.00307568
C 8.26661818 23.84048296 2.46886979 -0.01099151 -0.00177121 0.00731300
C 8.40928197 28.94327429 3.78063979 -0.00538371 -0.00004689 0.00490428
C 0.52939966 25.47902562 3.42318945 -0.00398260 -0.00344950 0.00488399
C 3.10158361 20.63311309 2.52265998 -0.00198295 -0.00100453 0.00225422
C 9.36049381 22.81766796 2.40241070 0.00811465 0.00979600 0.00313568
C 7.29386083 27.98702278 3.72195844 -0.00137497 -0.00110549 0.00835444
C 0.10475128 23.12985977 11.20033674 0.00398441 0.00175641 0.00007657
C -2.69210053 28.15510069 7.22565022 0.00133730 0.00084886 -0.00066409
C 3.97707290 25.46942372 7.03567800 -0.00009987 -0.00395637 -0.00509221
C 6.75700877 20.52018165 11.08443423 -0.00241760 0.00039237 -0.00213714
C 1.28570545 23.06040577 10.44428423 0.00147802 -0.00313721 -0.00082141
C 9.31551851 27.78403404 7.72818192 0.00838754 0.00151729 0.00157397
C 2.71757246 25.62226476 7.68285357 -0.00305161 -0.00429091 0.00251685
C -5.11492361 20.77341010 10.58963831 -0.00423352 0.00080710 -0.00601580
C 2.27338435 22.19441318 10.91723068 -0.00685642 0.00525409 0.00052270
C 8.31080403 26.84826833 7.43989373 -0.00058030 0.00522156 0.00421112
C 1.71415780 26.47277807 7.19909620 0.00355672 -0.00319813 0.00476022
C -4.18641885 21.74575389 10.93358372 0.00030287 -0.00151807 0.00428719
C 2.15834891 21.31030674 11.98500249 -0.00516781 -0.00139048 0.00599983
C 8.45265345 26.11040066 6.19762736 0.00617871 -0.00253616 0.00223710
C 1.93912512 27.36029255 6.13967204 0.00500465 0.00296151 0.00396136
C -4.36521395 22.54014815 12.06994931 0.00032664 -0.00329452 -0.00076237
C 3.97098485 21.55650868 6.59135732 -0.00056953 0.00523269 -0.00170112
C 6.97746176 26.02127744 11.73165772 -0.00110005 0.00522051 0.00046124
C 0.39741591 26.99864766 11.57146631 -0.00103873 -0.00616799 0.00363655
C -2.91834269 22.09198887 6.58761496 0.00279645 0.00088350 0.00511801
C 2.96567299 22.37674154 6.13117833 -0.00492400 -0.00168675 0.00953609
C -5.37536651 27.12876801 12.21669911 0.00578950 -0.00116417 0.00057501
C 1.30102672 26.08481005 12.00300730 0.00459964 -0.00316170 0.00305675
C 9.64069778 21.39505793 6.09795084 0.00325086 -0.00447516 -0.00246803
C -1.02776692 24.59012416 9.61149106 -0.00472894 0.00180483 -0.00134645
C -1.37041693 19.68549802 8.78724316 -0.00206996 -0.00565676 0.00881142
C 5.12632437 24.02349381 8.66854972 -0.00131748 0.00083156 0.00417976
C 5.56277001 28.64778707 9.74647273 -0.00106767 -0.00688726 0.00679123
C -2.10888789 25.65375346 9.38341433 -0.00435894 -0.01183049 0.00544924
C -0.18439886 20.54429948 8.95092686 0.00365664 0.00084723 0.00165090
C 6.37749096 23.19019060 8.78390852 0.00150852 -0.00404417 -0.00054051
C 4.43895913 27.63754344 9.55186707 0.00598831 -0.00545246 0.00676982
C -2.61095840 23.15922882 17.36218149 0.01365663 0.00325226 -0.00629778
C -5.58318595 28.07275202 13.28855688 -0.00376744 0.00162304 -0.00950468
C 1.11303524 25.28870012 13.16407451 -0.00574453 -0.00030730 -0.00029087
C 3.79366527 20.57636206 17.13397084 -0.00212611 -0.00373873 0.00006608
C -1.41766429 23.09418980 16.63011572 0.00175709 -0.00559655 -0.00459251
C 6.57806822 27.73505486 13.99518937 0.00001126 0.00577964 0.00157313
C -0.02226525 25.60290200 13.94371899 -0.00009280 0.00352413 0.00360641
C -8.01038619 20.64774656 16.68803117 0.00204702 0.00432372 -0.00499804
C -0.27961248 22.30204602 16.97000622 -0.00397652 0.00548818 -0.00136535
C 5.63257914 26.77738475 13.68177629 -0.00075789 -0.00055985 -0.00949239
C -0.95724307 26.52552442 13.52052505 0.00274639 -0.00010317 -0.00166109
C -7.09327598 21.67053950 17.01901205 -0.00815284 -0.00067047 0.00286531
C -0.42310726 21.46759351 18.14299708 0.00585366 0.00348367 0.00384184
C 5.73707919 25.96104902 12.43196766 0.00626097 0.00219159 0.00198165
C -0.74148423 27.28514601 12.32784001 0.00313569 -0.00214347 -0.00593008
C -7.32610743 22.59322212 18.06657697 -0.00584176 -0.00376841 0.00175139
C 0.96868967 21.34240664 12.68991500 -0.00215379 -0.00365827 -0.00346995
C 3.76899870 26.40265835 17.50547775 0.00125973 0.00245772 0.00248120
C -2.71354482 27.12856302 17.89393229 -0.00149665 0.00027145 0.00417046
C -5.57213352 22.41542032 12.77457006 -0.00032691 -0.00056901 -0.00097306
C -0.00491081 22.28707563 12.36333295 -0.00351094 -0.00474019 -0.00341529
C -8.31424993 27.46026296 18.27265408 -0.00372070 0.00590365 -0.00669979
C -1.69203276 26.27586687 18.30265793 -0.00505008 0.00002596 0.00825280
C 6.63793125 21.29575793 12.26264353 0.00252403 0.00089281 -0.00328563
C -3.88325135 24.63660041 15.92305940 -0.00161379 -0.00029716 -0.00250936
C -4.23010956 19.71094250 14.81188862 -0.00105326 -0.00184805 0.00042078
C 2.40722365 23.88693236 14.61254803 -0.00047062 -0.00504581 -0.00099882
C 2.43741681 28.83133523 15.74006341 -0.00834300 -0.00184631 -0.00747680
C -5.27014893 25.30325863 15.77664406 -0.00382014 -0.00531883 0.00065532
C -3.05955023 20.58445475 15.09862981 0.00053383 -0.00020776 -0.00302682
C 3.56048151 22.98574459 14.70008735 0.00226832 0.00021810 0.00280562
C 1.06462607 28.19962281 15.60280242 0.00142257 0.00191731 -0.00538676
C -5.84177105 23.32224305 23.28583468 -0.00179308 -0.00073421 0.00636999
C -8.58058222 28.30848660 19.36234254 -0.00405726 -0.00717721 -0.00090889
C -1.76924021 25.50269156 19.43422600 0.00130684 -0.00479361 -0.00162972
C 0.84166315 20.62126540 23.24533193 0.00304242 0.00161133 0.00280363
C -4.70099889 23.15637705 22.48990121 -0.00427359 0.00123605 -0.00753056
C 3.42550628 27.85928401 19.84090058 0.00345498 0.00331314 0.00335692
C -3.03637407 25.44642578 20.10927355 0.00503018 -0.00706614 0.00618114
C 28.26135622 20.81970686 22.47286960 0.00370991 0.00207867 -0.00542614
C -3.77332675 22.20498977 22.76186473 -0.00035342 0.00557282 -0.00682400
C 2.38510245 27.10382274 19.33793516 -0.00504939 -0.00325835 -0.00263857
C -4.04949183 26.35500565 19.75901330 -0.00169765 -0.00294007 -0.00152999
C -10.42414985 21.69982799 22.89981536 -0.00477688 -0.00061859 -0.00108220
C -3.82016710 21.42294863 23.93961439 -0.00475745 -0.00323858 0.00133068
C 2.54851220 26.27926389 18.16203576 -0.00027510 0.00484156 0.00698563
C -3.92495518 27.16414310 18.59183678 0.00741458 -0.00129428 0.00067421
C -10.55327279 22.46313947 24.06297822 -0.00265251 -0.00304894 -0.00307378
C -1.66107090 21.47493710 18.82715016 0.00538864 0.00441150 0.00590467
C 0.83326871 26.46565556 23.61876779 0.00327053 -0.00362282 -0.00053937
C -5.68326332 27.24660756 23.86907990 -0.00862896 -0.00234544 0.00486775
C -8.60986210 22.52896824 18.72762564 0.00197334 0.00068732 -0.00030254
C -2.68940322 22.31508176 18.49589445 -0.00063367 -0.00422200 -0.00489467
C -11.60039027 27.18553320 24.25541396 -0.00317387 -0.00527001 -0.01100257
C -4.71014567 26.33161531 24.29402662 0.00588266 0.00224685 0.00241768
C 3.60305519 21.50313877 18.20798189 0.00841558 -0.00065385 0.00884763
C -7.15949911 24.82174740 21.87805166 0.00399053 0.00141159 0.00080127
C -7.31376353 19.60627786 20.80653978 -0.00298584 0.00234678 -0.00244358
C -0.47776630 24.04029597 20.89292788 -0.00384382 -0.00038319 -0.00372035
C -0.41519674 29.03412495 21.96271830 -0.00173965 0.00702574 0.00092143
C -8.46583283 25.61041401 21.90629033 -0.00489198 0.00010915 0.00079228
C -6.09573730 20.46997391 20.83001874 0.00093884 0.00397776 -0.00228645
C 0.85463053 23.30848651 20.95240494 0.00164545 0.00414952 0.00454339
C -1.52466519 28.10080220 21.82213828 0.00099588 0.00191465 -0.00148762
C 16.42218788 3.84162908 5.15715647 0.00393757 0.00778519 -0.00051334
C 13.75912089 8.50295249 1.05865532 -0.00282073 -0.00182208 0.00266838
C 20.26870510 5.89565127 0.84240637 0.00242779 0.00366167 -0.00371465
C 22.89299707 1.20372503 4.89212015 0.00125809 -0.00120359 -0.00380493
C 17.62565811 3.67427356 4.49101158 0.00689670 -0.00032935 0.00301254
C 25.62060897 8.54955287 1.77435074 0.00138858 -0.00217316 0.00260211
C 19.11829015 6.05092872 1.62215132 0.01035032 -0.00412611 0.00051941
C 10.83398959 1.36424839 4.37830554 -0.00664766 0.00706718 0.00039114
C 18.60688064 2.87367735 4.84642256 0.00680814 -0.00473013 -0.00161514
C 24.70263275 7.65270686 1.35919170 -0.00053822 -0.00003844 0.00239419
C 18.10730306 6.94202831 1.27174754 -0.01045911 -0.00289345 -0.00358420
C 11.82384235 2.27163674 4.68391497 0.00318599 -0.00249478 0.00144969
C 18.49728018 2.18288685 6.07583923 0.00847166 0.00693637 0.00592244
C 24.88543430 6.86609845 0.13014503 -0.00520163 0.00141663 0.00491828
C 18.25389079 7.68917464 0.09199012 0.00450702 0.00182657 -0.00583771
C 11.87927806 2.90446890 5.90914035 -0.00139915 -0.00783126 0.00025461
C 20.31806626 1.94946780 0.37178890 -0.00143762 0.00953103 -0.00441443
C 22.90400781 6.93150661 5.37086988 -0.00313766 0.00393497 0.00265649
C 16.38151860 7.81246614 5.60489977 0.00405440 0.00516856 -0.00805466
C 13.69691398 2.97550292 0.42085877 -0.00000727 -0.00130575 -0.00200395
C 19.28348423 2.87387290 0.01705241 0.00576967 -0.00338429 -0.00208478
C 10.96567474 7.37726641 6.05482138 0.00195187 -0.00022456 0.00820867
C 17.40298485 7.00250129 6.03081442 -0.00011176 0.00028029 -0.00060308
C 25.87711305 2.16054342 0.05546420 -0.00313135 -0.00586219 -0.00071840
C 15.22618450 5.10841041 3.44059551 -0.00540519 -0.00168637 -0.00111153
C 14.87259370 0.24834866 2.50144438 -0.00447778 0.00154927 -0.00045214
C 21.46490766 4.53874119 2.34911605 -0.00099252 -0.00295089 -0.00009417
C 21.95271983 9.32006722 3.36027691 0.00332192 0.00548745 -0.00262762
C 13.89189589 5.78407175 3.23357425 0.00028330 0.00464102 0.00619051
C 15.98263989 1.23539162 2.72323495 0.00030655 -0.00757874 0.00023473
C 22.76171332 3.79434520 2.49910862 -0.01165133 0.00228163 -0.00637467