2880
Time=94000.00000000 pbc="T T T" Lattice="39.49176533 0.00000000 0.00000000 0.00000000 28.92354232 0.00000000 -12.04467151 0.00000000 24.46940027" energy=-18394.66437101 virial="34.72839771 0.13916879 -72.84305072 0.13916879 41.19147360 8.37022847 -72.84305072 8.37022847 21.39891476" stress="0.00366968 0.00003989 -0.00270863 0.00003989 0.00406948 0.00023634 -0.00270863 0.00023634 0.00327338" Properties=species:S:1:pos:R:3:vel:R:3
C 3.14020846 3.69843570 5.19557912 -0.01082686 -0.00315882 -0.00153890
C 0.59485958 8.72195435 0.92820388 -0.00136439 0.00017493 0.00362883
C 6.98018527 5.94574861 0.82429340 0.00572356 -0.00343599 0.00700301
C 9.67720186 1.19939595 5.11900912 0.00275718 0.00768576 -0.00166856
C 4.41997768 3.65230929 4.57452645 0.00082444 -0.00850815 0.00198686
C 12.28120834 8.15378131 1.59095627 -0.00456432 -0.00285794 0.00710598
C 5.71351972 5.95975270 1.40585599 0.00576338 -0.00047274 0.00414136
C -1.92412638 1.05873229 4.52475440 0.00031549 0.00006385 -0.00091645
C 5.33520814 2.71572125 4.91588012 -0.00575350 -0.00431009 0.00487668
C 11.30248053 7.28776253 1.12442049 -0.00391563 -0.00001257 0.00100968
C 4.83412435 6.96141266 1.11283681 0.00225577 -0.00383863 0.00697586
C -1.00466920 1.94138908 5.01166668 0.00313838 -0.00357293 0.00997628
C 5.26400799 1.97962171 6.08618871 -0.00482478 -0.00546388 -0.00078257
C -0.62818676 6.55788563 24.37988912 0.00052059 -0.00809735 -0.00238375
C 5.07586344 7.81872176 0.06119230 -0.00140919 0.00456790 -0.00556776
C -1.30352958 2.86789924 6.11459509 0.00163199 -0.00377301 0.00322856
C 6.60649478 2.14203977 0.49221104 -0.00563803 0.00305342 0.00077030
C 9.70403973 6.78796205 5.43347374 0.00372755 -0.00150337 0.00001106
C 3.08566175 7.58295630 5.66640732 0.00182051 -0.00236618 0.01146971
C 0.32581074 2.87882518 0.77926606 -0.00248367 -0.00350884 -0.00413686
C 5.62841484 3.03692025 0.02250619 -0.00025179 0.00151927 -0.00246782
C -2.34437435 7.61165720 6.18851942 -0.00081455 -0.00531593 0.00026925
C 4.17477632 6.87626348 6.15035307 0.00050431 -0.00115148 0.00016163
C 12.65461349 2.06731360 0.17398113 0.00501155 -0.00144860 -0.00482000
C 2.00100226 5.14173728 3.63281247 -0.00053370 -0.00494546 0.00191599
C 1.74685016 0.22672576 2.68363166 0.00008349 0.00060236 0.00085108
C 8.13870517 4.66793341 2.49987784 0.00311006 0.00165658 -0.00857745
C 8.71271417 9.48927731 3.33850465 0.00974365 -0.00151221 -0.00836181
C 0.89456520 6.22206778 3.72776420 -0.00288448 0.00358959 -0.00202013
C 2.82360867 1.18578288 2.90177656 -0.00380526 -0.00831467 0.00181143
C 9.17157014 3.64869312 2.84463050 -0.00134967 0.00381190 0.00471283
C 7.37439932 9.01719080 2.91424596 -0.00412446 -0.00227048 -0.00457648
C 0.06121965 3.72695472 11.24661127 0.00141113 0.00032009 0.00222114
C -2.58673727 8.48190672 7.25217540 -0.00507620 -0.00312574 -0.00058133
C 4.00359174 5.88757527 7.15702120 0.00258966 0.00271449 0.00198572
C 6.81063762 1.12073469 11.37975872 -0.00475448 -0.00680030 -0.00227506
C 1.25113340 3.56165150 10.48590184 0.00447735 -0.00418626 -0.00715234
C 9.48945164 8.47541829 7.60538505 -0.00066076 0.00032525 0.00536626
C 2.74438530 5.84154813 7.78619795 -0.00323573 -0.00750290 -0.00253940
C 34.20756113 1.46878241 10.61846788 -0.00251851 0.00459932 0.00014859
C 2.22166871 2.66838068 10.86982629 -0.00006497 -0.00189660 0.00299878
C 8.44106610 7.66102193 7.23938883 0.00649357 -0.00225673 0.00097567
C 1.75185999 6.78048654 7.45758366 0.00217300 0.00149508 -0.00177712
C -4.24716278 2.21200649 11.10383668 0.00585210 0.00363642 0.00694969
C 2.02622071 1.92516497 12.04234447 0.00172313 -0.00875314 -0.00243362
C 8.51482983 6.75031412 6.21242463 -0.00894949 0.00100393 0.00221318
C 1.86055209 7.60382843 6.30326669 0.00417945 -0.00055058 -0.00605087
C -4.31723049 2.98827967 12.29585541 -0.00538633 0.00075031 0.00727589
C 4.03548402 2.15062260 6.83550825 -0.00434224 0.00109953 0.00656081
C 6.79935356 6.71546384 11.64428293 0.00622317 0.00332097 0.00275958
C 0.15082010 7.58650103 11.67704208 0.00452544 0.00102527 -0.00555393
C -2.47683331 2.58660231 6.80529359 -0.00591010 0.00622867 -0.00135457
C 2.98147828 2.87598831 6.33063490 0.00209232 -0.00551302 -0.00375114
C -5.50967774 7.64805426 12.18762042 -0.00721878 0.00196032 -0.00368267
C 1.16948189 6.72383731 12.06808889 0.00585189 -0.00075245 0.00264684
C 9.57205041 2.01956344 6.25023772 -0.00652216 -0.00228680 -0.00642186
C -1.03508431 5.15007092 9.71349128 0.00498964 0.00054006 -0.00124581
C -1.40616607 0.27445738 8.78331713 0.00633349 0.00308240 -0.00319147
C 5.39790987 4.55687094 8.67795430 -0.00348983 -0.00696476 -0.00452346
C 5.47598825 9.30197332 9.66329980 -0.00053388 0.00367824 0.00459133
C -2.27719854 6.04908959 9.37486732 -0.00444822 -0.00362274 -0.01223015
C -0.07028846 1.01097507 9.11747292 0.00264732 0.00016886 0.00124808
C 6.72659496 3.92527673 8.99190051 -0.00462960 -0.00164366 0.00006461
C 4.39506099 8.26330016 9.45027908 -0.00055686 -0.00402311 -0.00524660
C -2.78862408 3.66199692 17.39825434 -0.00196246 0.00145964 0.00412238
C -5.74519462 8.49855443 13.24953280 0.00720834 0.00962362 0.00067097
C 1.09303141 5.91497714 13.20715928 0.00460330 0.00206071 0.00173462
C 3.75673264 0.96448918 17.51095776 -0.00469524 -0.00046244 0.00561936
C -1.52917299 3.52344347 16.75807790 -0.00171176 0.00740153 0.00024966
C 6.11490669 8.43791080 13.79906262 -0.00254036 -0.00171146 0.00053419
C -0.13055218 5.83917376 13.91089489 -0.00692367 -0.00916947 -0.00097773
C -8.16653414 1.15356669 16.84010147 0.00011742 0.00117551 -0.00209966
C -0.65269955 2.61579961 17.21735133 -0.00442124 0.00468914 -0.00334473
C 5.26979142 7.52369012 13.28000876 -0.00006832 -0.00218998 -0.00384294
C -1.13613365 6.69552467 13.53643688 -0.00530478 -0.00151847 -0.00425217
C -7.19898697 2.14215057 17.19795736 -0.00196470 0.00399729 0.00601787
C -0.98441080 1.83825143 18.34569670 -0.00088072 0.00767029 -0.00049024
C 5.47898617 6.68802630 12.16935565 0.00030895 -0.00305378 -0.00667696
C -1.01256609 7.66343961 12.50557324 -0.00096549 -0.00662415 0.00258887
C -7.40603369 2.94245763 18.33398961 -0.00258738 0.00346694 -0.00719097
C 0.83235196 2.05752508 12.75811225 -0.00037880 -0.00517925 0.00830645
C 4.04473233 6.88741375 17.57092543 -0.00223821 0.00549775 0.00273829
C -2.42222669 7.77515921 18.08964853 -0.00138274 -0.00040317 0.00617675
C -5.57287519 2.85073002 12.99659367 0.00640408 -0.01585193 0.00145439
C -0.17305912 2.96318044 12.40966773 0.00882521 -0.00254006 0.00419629
C -8.48876323 8.02460180 17.94677976 -0.00671730 -0.00613151 -0.00888986
C -1.60643230 6.71516045 18.32363803 0.00391139 0.00006496 -0.00059438
C 6.60461966 1.93550044 12.48132400 -0.00372200 -0.00461766 -0.00111272
C -3.86127180 5.21540331 15.89895283 -0.00784193 -0.00095524 0.00592261
C -4.50816441 0.35346068 14.81832040 -0.00440481 -0.00007990 0.00084445
C 2.16559502 4.22010358 14.60766983 -0.00730326 -0.00400069 0.00286514
C 2.70632851 9.31677149 15.67922909 0.00232173 -0.00469662 0.00148613
C -5.14555966 5.89985416 15.61471263 0.00129967 0.00542455 0.00224063
C -3.24365030 1.10889896 14.95551762 0.00207102 0.00031125 0.00306936
C 3.41791498 3.45325953 14.76448769 -0.00274921 0.00170262 0.00525675
C 1.54505367 8.38749223 15.54367006 -0.00105472 -0.00315266 -0.00334868
C -6.16888990 3.84717226 23.42158074 -0.00892191 0.00176934 0.00344786
C -8.73691677 8.77068631 19.14189964 -0.00278701 -0.00167603 -0.00455184
C -1.83005322 5.90403400 19.41582951 0.00037251 0.00065504 0.00266803
C 0.70669560 1.20638731 23.52915191 0.00471344 -0.00259479 0.00202533
C -4.93391425 3.77961352 22.81384123 -0.00194190 -0.00179995 -0.00093008
C 3.39596225 8.49578425 19.85645073 0.00160074 0.00546997 0.00405344
C -2.94651109 6.02209269 20.20821607 -0.00367506 -0.01425935 -0.00709899
C -11.21636356 1.39770810 22.97209219 -0.00204251 0.00001413 0.00135859
C -3.99657584 2.84006867 23.16225739 -0.00101445 0.00026360 -0.00022834
C 2.54770326 7.46794587 19.40237886 -0.00635155 0.00623995 0.00297808
C -3.92004200 6.94546292 19.78503081 -0.00549564 0.00499613 -0.00002674
C -10.24356080 2.30210675 23.38277262 0.00117120 -0.00322676 -0.00752034
C -4.28186383 1.94727884 24.26010175 0.00036187 -0.00349261 -0.00644083
C 2.81854332 6.72464769 18.20848020 0.00236017 -0.00628928 0.00431001
C -3.60864020 7.90883505 18.75158931 -0.00047065 -0.00068524 0.00203894
C 1.63226488 3.02921756 0.05854514 0.00250733 -0.00313799 -0.00704235
C -2.28169526 1.92646146 18.98204993 0.00065087 -0.00055963 0.00179872
C 0.55997380 6.76204020 23.68181710 -0.00681795 0.00230992 -0.00344214
C -5.66400479 7.86330361 23.99566399 0.00731900 0.00303516 -0.00038941
C -8.68723289 2.93157702 19.00843677 -0.00097990 0.00123011 0.00510039
C -3.17496171 2.83989074 18.43332517 -0.00064052 0.00238386 0.00595636
C -11.31008966 7.91814493 24.24913984 -0.00269188 0.00085507 -0.00102185
C -4.80776931 6.82171384 24.23416775 0.00510720 0.00539575 -0.00021402
C 3.61051761 1.81329319 18.58702602 -0.00034023 0.00073797 0.00391224
C -7.26694260 5.28943857 21.75001039 -0.00557070 -0.00473359 0.00733410
C -7.38848835 0.40741342 21.07686963 -0.00411030 0.00095343 0.00393555
C -0.65574114 4.32709208 20.84110254 0.00978147 0.00480106 0.00179766
C -0.41645360 9.64874763 21.76400972 -0.00407748 0.00534160 -0.00514271
C -8.41104342 6.14663250 21.45123536 -0.00163965 -0.00230796 -0.00253971
C -6.16404794 1.20900784 21.21235773 -0.00111865 0.00507447 0.00032482
C 0.65415591 3.68136496 20.99618237 -0.00297775 -0.00567519 0.00723756
C -1.55554510 8.61333768 21.52698771 0.00773512 0.00437726 -0.00814718
C 3.26878389 13.36355907 5.20071565 -0.00551816 0.00122276 -0.00122717
C 0.54748330 18.11478460 0.88659317 -0.00344310 -0.00239554 -0.00936530
C 7.26738349 15.63047033 0.94596065 -0.00324113 0.00180907 0.00338941
C 9.89345626 10.72049371 5.05573685 -0.00304707 -0.00166564 -0.00498903
C 4.48931983 13.40241880 4.60435393 0.00288580 0.00881740 -0.00342846
C 12.38841129 18.19529333 1.87130671 0.00054191 0.01006174 0.00040447
C 6.03523018 15.66090304 1.50973262 0.00329790 -0.00381981 -0.00206203
C 37.24366525 10.55981448 4.47377981 0.00680486 -0.00154856 -0.00372896
C 5.52830893 12.48503074 4.96942426 -0.00019428 -0.00183939 -0.01068930
C 11.41410027 17.34376045 1.34463463 -0.00842627 0.00110455 -0.00426197
C 5.02915467 16.54224964 1.03609244 0.00470636 -0.00362088 0.00599636
C -1.19166112 11.42691243 4.85265089 0.00126029 -0.00226449 0.00679258
C 5.30899093 11.55750364 5.97288018 -0.00379907 -0.00702071 0.00078370
C 11.63406367 16.60773791 0.15232278 0.00140278 -0.01096104 -0.00160555
C -6.87035785 17.35360945 24.39935064 0.00884907 0.00355481 0.00418591
C -1.35974427 12.31635433 5.89711089 -0.00204768 -0.01092810 0.00763473
C 7.08173581 11.88328948 0.48062629 -0.00283712 -0.00302607 0.00712927
C 9.62259331 16.51905187 5.47161899 0.00768884 -0.00126436 -0.00565068
C 3.00984441 17.06216581 5.32427142 -0.00605018 0.00464867 0.00333137
C 0.49414224 12.54511722 0.48449228 0.00395488 0.00546788 0.00287551
C 6.12480602 12.70003427 0.00649221 -0.00110261 -0.00321361 -0.00067650
C -2.51579664 17.31205780 6.03662758 -0.00014075 0.00318886 -0.00103813
C 4.08496922 16.37131443 5.74819053 0.00410024 -0.00550398 0.00365946
C 12.71729074 11.41724641 0.31405103 -0.00064479 -0.00575869 0.00367320
C 1.96855945 14.59556220 3.46368360 0.00278286 0.00009505 -0.00835653
C 2.05841570 9.91804483 2.51560936 -0.00323768 -0.00494653 -0.00224614
C 8.38056401 14.09302208 2.52377391 0.00149596 -0.00126071 -0.00514618
C 8.61247665 19.21405519 3.58511562 -0.00139666 0.00505695 -0.00343778
C 0.63568363 15.27229654 3.26313565 -0.00039923 0.00204065 -0.00351716
C 3.13683201 10.98976899 2.49973785 0.00488493 -0.00792266 0.00648482
C 9.54742894 13.15884376 2.84159559 -0.00153371 0.00470839 0.00482181
C 7.52761254 18.27351908 3.37346408 0.00253729 0.00780823 -0.00361221
C 0.25065952 13.44398266 11.12154711 0.00015995 0.00960611 -0.00400426
C -2.75188931 18.20162535 7.12871039 -0.00448087 -0.00047281 0.00007513
C 4.01731220 15.65405033 6.93794475 0.00200896 0.00144816 0.00141314
C 6.53171558 10.85005635 11.20070736 0.00011669 0.00260276 -0.00534182
C 1.47018660 13.29179074 10.44825372 -0.00155888 0.00503970 0.00094640
C 9.15093910 18.01219184 7.83659990 -0.00146877 -0.00743252 0.00321213
C 2.77456361 15.67226306 7.62136983 -0.00364454 -0.00575591 -0.00394198
C 34.30964627 10.87128791 10.52422661 -0.00479542 0.00842451 -0.00389382
C 2.41922564 12.35517651 10.93859487 0.00758683 -0.00693212 -0.00293220
C 8.25673574 17.03960455 7.43774944 0.00518056 -0.00682856 0.00721916
C 1.74743092 16.52365027 7.22317286 0.00037042 0.00006204 -0.00010400
C -4.19613961 11.79526648 10.83051563 0.00228317 0.00210693 0.00369147
C 2.13412374 11.47558026 11.97812003 -0.00038876 0.00039148 0.00387787
C 8.46247556 16.25532089 6.26653763 0.00065359 -0.00093172 0.00040979
C 1.83536826 17.22714616 6.04492521 0.00119366 0.00232248 -0.00139757
C -4.37384600 12.62043793 11.91527802 0.00193043 -0.00451565 -0.00827593
C 4.04312656 11.55866002 6.54861820 0.00596237 -0.00589798 0.00265720
C 6.72823198 16.27374312 11.66734790 0.00232886 0.00307122 -0.00471398
C 0.02528923 17.47178048 11.63751997 -0.00748357 0.00461937 0.00173957
C -2.62508531 12.31020016 6.57745310 0.00223697 -0.00643932 0.00140346
C 3.03388111 12.45483472 6.18601253 -0.00191971 0.00205816 0.00548810
C -5.66108796 17.28388273 11.95562375 0.00661975 0.00362257 -0.00519047
C 1.03243335 16.56628117 11.89025525 0.00452572 0.00467763 0.00066893
C 9.72615915 11.53026339 6.22900922 -0.00005467 0.00620358 -0.00254153
C -0.79034304 14.74498385 9.51805610 -0.00720147 -0.00181472 0.00542802
C -1.47663852 9.85304492 8.84183899 0.00908828 -0.00311447 -0.00493937
C 5.19865238 14.35919914 8.68137800 -0.00300178 -0.00285881 -0.00831598
C 5.48878648 18.86288831 9.76009853 -0.00221788 0.00205415 -0.00517660
C -1.80678342 15.70515159 9.20977262 -0.00487957 0.00059911 0.00085597
C -0.36584586 10.94640743 9.07765836 0.00360766 -0.00338643 0.00237917
C 6.54397383 13.65805766 8.96252862 -0.00195758 -0.00303760 0.00443030
C 4.31146864 17.86445332 9.72341476 0.00452702 0.00168182 -0.01127168
C -2.85374206 13.49599885 17.17390893 -0.00289611 -0.00323963 0.00151331
C -5.81901562 18.13759104 13.03437304 -0.00307521 0.00266894 -0.00650267
C 0.87807514 15.73622851 13.06507033 -0.00587681 0.00410695 0.00054437
C 3.81893867 10.79032032 17.37290226 0.00054313 0.00084658 -0.00474676
C -1.67912526 13.39119612 16.52265172 -0.00403221 -0.00484971 0.00856323
C 6.32703423 17.81043017 13.88424462 -0.00290050 0.00416344 0.00203497
C -0.34059727 15.81804509 13.76141704 -0.00685606 0.00600519 0.00250206
C 31.12777514 10.82505151 16.73573935 0.00611608 -0.00494782 0.00639820
C -0.78401528 12.35602695 16.78773583 -0.00066825 0.00107293 0.00348162
C 5.30339818 17.01412557 13.42145785 -0.00494724 -0.00463387 -0.00214771
C -1.30279988 16.80992739 13.51056666 -0.00957617 -0.00591833 -0.00192808
C -7.38066075 11.66766230 17.11467502 0.00731749 0.00832202 -0.00363037
C -1.05365140 11.54305660 17.88100425 0.00387403 -0.00029965 -0.00031589
C 5.47274999 16.17904010 12.21987284 0.00062882 0.00230995 -0.00379416
C -1.15649241 17.70085777 12.46019042 0.00254191 -0.00319493 -0.00389175
C -7.43335205 12.53750042 18.20683352 -0.00132891 0.00509336 0.00527525
C 0.92192248 11.67313438 12.67412288 0.00163349 0.00011616 -0.00426432
C 3.80274553 16.47083796 17.86871579 0.00347115 0.00923762 0.00042449
C -2.75280162 17.24409241 17.66535671 -0.00373523 0.00242134 0.00151985
C -5.56499715 12.52008135 12.65512071 -0.00023912 -0.00382245 -0.00081246
C 0.09787976 12.62711771 12.31876101 -0.00645687 0.00339701 -0.00025057
C -8.49098148 17.36850584 17.95761275 0.00494412 0.00036521 0.00469098
C -1.76463287 16.39629739 18.15499724 0.00499403 0.00944480 0.01016909
C 6.30804259 11.65640150 12.28820314 -0.00376947 -0.00185278 -0.00222489
C -4.25007395 14.83424695 15.66799701 -0.00442481 -0.00078058 -0.00135453
C -4.51220578 9.72520569 14.89590672 0.00248228 -0.00455475 -0.00401820
C 1.99642982 14.25222015 14.60639762 0.00053833 0.00487149 0.00146771
C 2.79918039 18.85560526 15.90354964 -0.00071282 0.00323009 -0.00015549
C -5.55422487 15.51816756 15.52252403 -0.00402196 0.00382906 -0.00330582
C -3.40414330 10.70801559 14.94789870 -0.00080139 0.00853609 0.00102531
C 3.03993086 13.20432475 14.77907407 0.00055905 -0.00775629 0.00562214
C 1.59009914 17.97652410 15.68417828 -0.00081608 -0.00208876 0.00334208
C -5.61884468 13.55686166 23.40169878 0.00411954 0.01080101 0.00271728
C -8.66254211 18.24496995 19.07370680 -0.00507874 0.00824409 -0.00637563
C -2.05894113 15.63980280 19.28428241 -0.00343083 0.00345899 0.00107842
C 0.84104147 10.78944039 23.53457957 0.00171505 -0.00048416 -0.00108508
C -4.40259841 13.44739529 22.76047470 -0.00543003 -0.00687597 -0.00527106
C 3.22534515 18.02509125 20.09287611 -0.00458779 -0.00343912 -0.00004925
C -3.32777959 15.58435368 19.83822554 -0.00012346 0.00672606 0.00297777
C 28.28951650 10.89621099 22.69642922 0.00144027 -0.00792922 0.00233656
C -3.43023839 12.54898210 23.18506776 -0.00111245 -0.00452697 -0.00071457
C 2.32560145 17.02428714 19.72228210 0.00778346 -0.00059963 -0.00479004
C -4.28817139 16.57189691 19.36900480 -0.00008945 -0.01014968 0.00566059
C -10.33782059 11.88869624 22.99479635 -0.00044258 -0.00727630 -0.00073658
C -3.65857989 11.75941792 24.32734151 -0.00200969 0.00225030 0.00065340
C 2.56992710 16.27857480 18.57160496 -0.00070351 0.00011944 -0.00128970
C -4.06087648 17.35767565 18.22389938 -0.00247047 -0.00306972 0.00216180
C -10.38208505 12.59035789 24.19619317 0.00961264 0.00628917 -0.00918335
C -2.08185665 11.87914595 18.73978128 0.00348531 -0.00044133 -0.00081084
C 0.80804804 16.64214104 24.02991389 -0.00551684 0.00683162 -0.00595694
C -5.60704759 17.21843793 23.78491633 0.00062114 -0.00410802 -0.00438737
C -8.65943159 12.50192199 18.90665007 0.00306575 0.00146736 0.00340921
C -3.06765136 12.75001488 18.37567791 -0.00002825 -0.00740162 -0.00177991
C -11.38281181 17.31508896 24.23981572 -0.00177249 0.00224871 -0.00021831
C -4.59904965 16.51202449 24.29218913 0.00413034 -0.00294059 -0.00245608
C 3.43229991 11.67402961 18.35781511 -0.00221041 -0.00802383 0.00643948
C -6.72080406 14.89568857 21.70255337 -0.00239761 -0.00361617 -0.00204970
C -7.45718528 9.89947321 20.79761977 -0.00110731 -0.00295763 0.00863520
C -0.99547839 14.43800956 21.10982846 0.00175093 0.00076981 -0.00061382
C -0.36116707 19.02419026 21.95833465 0.00524879 0.00380280 -0.00337442
C -7.73337184 15.97722029 21.51562385 -0.00259533 -0.00557425 -0.00540149
C -6.16442245 10.66774601 21.06433112 0.00129059 -0.00538226 -0.00687609
C 0.03761602 13.41963175 21.44545642 -0.00494881 0.00358504 -0.00686711
C -1.55788143 18.11772267 21.85931599 -0.00268557 -0.00483334 -0.00084961
C 3.16605710 22.69409262 5.31577890 0.00271837 0.00330981 0.00602828
C 0.51150565 27.77440168 1.05201073 -0.00184517 0.00535984 0.00645315
C 7.11752700 25.18280304 0.91965050 -0.00405141 0.00444367 -0.00467900
C 9.78535144 20.58089431 5.22643071 0.00380796 -0.00023987 -0.00481540
C 4.34883889 22.49844025 4.55369143 -0.00078375 0.00673437 0.00726061
C 12.24775944 27.68681967 1.73260606 -0.00453897 -0.00336625 -0.00027616
C 5.91622586 25.21498864 1.64800782 -0.00007292 0.00143504 -0.00145070
C 37.06122188 20.42303820 4.52174772 0.00130607 -0.00636162 0.00063244
C 5.30689145 21.63677823 4.95859562 0.00957448 -0.00436168 0.00022332
C 11.25747437 26.90262873 1.19683064 0.00093259 0.00149984 0.00159956
C 4.87832852 26.01218087 1.25692960 0.00308029 -0.00285727 -0.00113667
C -1.44030800 21.34191681 4.79685475 0.00635243 0.00652882 -0.00638196
C 5.10839720 20.84484066 6.06131690 0.00351770 0.00705990 -0.00868194
C -0.59415111 26.25802811 24.41278869 0.00506040 -0.00183921 -0.00127185
C 5.02078922 26.85032370 0.08947758 0.00109543 0.00293968 0.00183839
C -1.61408545 22.19461277 5.92683256 0.00096368 0.00277276 0.00193117
C 7.28887653 21.19168618 0.56380350 0.00201837 -0.00192389 -0.00215183
C 9.73494013 26.36058505 5.47613344 0.00053954 0.00332303 -0.00231782
C 3.30140260 26.78505052 5.78424858 -0.00072405 0.00175416 0.00187531
C 0.76357422 21.90896236 0.84017828 -0.00243110 -0.00336348 -0.00577422
C 6.24330592 22.06163765 0.34102424 0.00429000 0.00814225 -0.00203727
C -2.25383577 27.06302056 6.14180315 0.00160160 -0.00049060 -0.00687810
C 4.23587665 25.84617313 6.18144712 -0.00102495 0.00374798 0.00895373
C 12.58814983 21.44625633 0.07306261 0.00272646 -0.00515207 -0.00141111
C 1.95270230 24.34559607 3.81915984 -0.00424283 -0.00480783 -0.00221638
C 1.84687609 19.38478888 2.49390983 -0.00246954 -0.00342412 -0.00568324
C 8.25850118 23.65624257 2.46240375 -0.00652687 -0.00175161 0.00415908
C 8.52402257 28.71258193 3.47799949 -0.00254078 -0.00048470 -0.00307368
C 0.66317662 25.10622002 3.84320722 0.00312493 -0.00268236 -0.00152681
C 3.02381072 20.30525873 2.75816491 -0.00306041 -0.00083888 0.00188837
C 9.43826101 22.76968690 2.67296021 0.00286399 0.00611336 0.00085402
C 7.41637522 27.76833172 3.34813815 0.00011291 0.00129018 0.00174505
C 0.23940825 23.05921373 11.31790284 -0.00524537 0.00575414 -0.00649018
C -2.57098641 27.86772558 7.19983508 0.00146323 0.00362732 0.00047716
C 3.98175359 25.01748684 7.24185511 0.00204012 0.00214322 0.00541381
C 6.62685302 20.30219124 11.25622609 -0.00389736 -0.00008779 0.00501037
C 1.54304858 23.08541232 10.71097559 0.00132724 -0.00236797 0.00484815
C 9.01951788 27.81540705 7.78029944 0.00171804 -0.00302864 0.00064732
C 2.76511911 25.19454634 7.94802443 0.00284119 -0.00320726 -0.00246895
C 34.22206404 20.41468960 10.37549923 -0.00172949 0.00865292 -0.00605877
C 2.53128615 22.14763229 11.11511551 0.00856300 -0.00040615 -0.00741493
C 8.10345300 27.04122154 7.19582705 0.00472802 0.00213429 0.00114226
C 1.84786806 26.09159731 7.54449404 -0.00327799 -0.00075362 0.00120922
C -4.22324466 21.25941170 10.88998561 -0.00401423 0.00644129 -0.00265252
C 2.26782186 21.24378525 12.16304100 0.00578381 -0.00063237 -0.00174998
C 8.41622854 26.26178453 6.05391120 0.00033627 -0.00379272 -0.00070626
C 2.07067089 26.89263527 6.42493604 -0.00309008 0.00680084 -0.00103164
C -4.40980479 22.03410686 12.02990575 0.00738712 -0.00249646 -0.00093669
C 3.87157834 20.83068515 6.73627186 0.00273924 0.00135241 0.00389383
C 6.65259430 26.05231529 11.69536264 0.00697550 0.00141763 0.00346194
C 0.24119734 26.81838867 11.78395757 -0.00377452 0.00552809 0.00217572
C -2.83253492 22.18341812 6.57999216 0.00291931 0.00355069 0.00404451
C 2.93811245 21.73738837 6.29806778 -0.00916195 -0.00661610 -0.00863947
C -5.61024586 27.07344489 12.14199358 -0.00489228 -0.00123153 0.00374924
C 1.20563268 26.04314374 12.33917168 0.00811444 0.00643780 -0.00215853
C 9.54367501 21.36446414 6.34323640 -0.00294100 -0.00176425 -0.00155290
C -0.99066717 24.59592385 9.71716890 -0.00478314 0.00106063 -0.00227480
C -1.56526391 19.53176572 8.72491617 -0.00751009 0.00394931 -0.00018880
C 5.37132070 23.71494567 8.82787326 -0.00117250 -0.00297179 0.00384239
C 5.69830402 28.51781432 9.79712386 0.00253751 0.00445013 -0.00553635
C -2.25076892 25.38454380 9.75681715 -0.00392132 0.00475204 -0.00000426
C -0.28524893 20.28826408 8.75979949 0.00263612 0.00013723 0.00002755
C 6.68052478 22.91651538 8.95947821 0.00047009 -0.00311296 0.00445213
C 4.51208598 27.60278623 9.67213706 0.00301028 -0.00103395 0.00009169
C -2.82019382 23.08905039 17.49546987 0.00420845 -0.00607931 0.00150232
C -5.71719981 27.81657977 13.31706708 0.00379074 0.00157350 -0.00089906
C 0.95213395 25.13653570 13.32972695 0.00101440 -0.00973711 -0.00293869
C 3.86069754 20.38663869 17.40157010 0.00243872 0.00239994 -0.00864436
C -1.65229483 22.97225237 16.72296879 0.00393854 -0.00080832 -0.00328862
C 6.37891091 27.42871469 14.09977642 -0.00114007 0.00309199 0.00110888
C -0.30785409 25.12134966 13.93881440 -0.00221888 -0.00420808 -0.00516082
C 31.16008279 20.48650221 16.70782044 -0.00318880 -0.00018914 0.00372789
C -0.71925842 22.05171017 17.01017003 -0.00032927 0.00714540 -0.00356307
C 5.38611377 26.55183510 13.66104346 0.00236241 0.00130508 -0.00732334
C -1.26676417 25.99017523 13.39104150 -0.00238437 0.00340000 -0.00055703
C -7.35259349 21.39113979 17.09576199 0.00212990 0.00228815 -0.00574053
C -0.85675226 21.22296262 18.12421258 -0.00165006 0.00000838 0.00039208
C 5.38476252 25.97045799 12.38532970 0.00200517 -0.00447343 0.00364631
C -1.08576592 26.80091515 12.27063343 -0.00377401 0.00152542 -0.00019182
C -7.41403549 22.08104908 18.28251595 0.00721269 0.00006617 -0.00511635
C 1.01725522 21.29932876 12.83648837 0.00927590 -0.00567698 0.00161827
C 3.68731004 25.86806692 17.95665916 0.00083795 0.00130685 0.00499355
C -2.82985489 26.83377923 17.90499725 -0.00066320 -0.00283802 -0.00440525
C -5.71533380 22.02991866 12.64951181 -0.00138885 0.00107676 0.00767278
C 0.03443383 22.23712334 12.46390746 -0.00474515 0.00873137 -0.00353843
C -8.29624146 27.03851184 18.35955785 0.00055858 -0.00094097 -0.00129499
C -1.88354506 26.05778070 18.50560234 -0.00578434 -0.00763753 -0.00491198
C 6.55256198 21.18804390 12.31646079 0.00072369 0.00521970 0.00133064
C -4.11550829 24.35691372 15.82469120 -0.00597068 -0.00547748 0.00158514
C -4.63260611 19.50059064 14.59888155 0.00198743 -0.00076779 0.00108535
C 2.06303756 23.81569576 15.04362606 0.00090316 -0.00328163 0.00161986
C 2.42948575 28.63067864 15.86511552 0.00140157 -0.00110712 -0.01102780
C -5.13701970 25.38204481 15.59982304 -0.00370084 0.00197299 -0.00624616
C -3.55120639 20.51356977 14.78334234 -0.00038850 0.01070480 -0.00014661
C 2.99329983 22.70860509 15.28448226 0.00179716 0.00398230 0.00486066
C 1.08018428 28.03562091 15.68155243 0.00255326 0.00912935 -0.00857326
C -5.72811011 22.89896974 23.67713398 0.00059771 -0.00441993 0.00212867
C -8.44625478 27.93029787 19.46012212 0.00133973 0.00406743 0.00422750
C -2.06427928 25.24846466 19.61391651 0.00033856 -0.00490520 -0.00372189
C 0.79846331 20.50334522 23.51947633 -0.00142049 -0.00325406 0.00355277
C -4.57307458 22.83174965 22.88334862 -0.00019752 0.00351640 -0.01071160
C 3.45445662 27.64433671 20.17509278 -0.00021572 -0.00833026 -0.00242540
C -3.36324407 25.35481833 20.20541471 -0.00191159 -0.00214222 -0.00826821
C -11.00587345 20.44323817 22.94020700 0.00201611 -0.00285822 -0.00037972
C -3.54550745 22.00165741 23.12179528 0.00134143 0.00102904 -0.00284797
C 2.47215975 26.76125366 19.81852840 0.00315505 -0.00200138 0.00671006
C -4.30295303 26.14652084 19.67464299 0.00444212 0.00432864 -0.00914894
C -9.91227018 21.10453551 23.45218098 0.00484564 0.00473663 -0.00502132
C -3.56296903 21.21762584 24.26949426 -0.00713724 0.00469554 -0.00095942
C 2.52387297 25.88072334 18.68693409 -0.00120748 -0.00442229 0.00590223
C -4.15066607 26.94220630 18.43411696 0.00004888 -0.00432778 0.00834188
C 2.04922070 21.95630141 0.18989114 -0.00392133 0.00659184 -0.00590552
C -2.00910135 21.26891610 18.93859904 -0.00025676 0.00198279 0.00167503
C 0.69161337 26.31915133 23.80550137 0.00021020 -0.00213959 0.00207756
C -5.87258397 26.78871091 23.82961729 0.00433611 0.00295788 -0.00228469
C -8.67747920 21.97120851 19.03072830 -0.00519034 -0.00560990 0.00331062
C -2.99021247 22.16886515 18.57972940 -0.00638764 -0.00255107 0.00230793
C -11.32793192 27.03310224 24.39959294 -0.00043044 -0.00682150 0.00345553
C -4.88069191 25.95938656 24.19373476 0.00278813 0.00358494 -0.00202056
C 3.65705361 21.18278431 18.50445235 -0.00440643 0.00080197 -0.00357476
C -7.21819762 24.15809351 22.14672278 -0.00612565 0.00799940 0.00131888
C -7.31905235 19.36443149 20.77161951 0.00242113 0.00112640 -0.00318851
C -0.94361867 23.76269034 21.06516577 0.00433114 0.00220930 -0.00020028
C -0.41584877 28.75908944 21.93776165 0.00012144 -0.00299237 0.00192731
C -8.55083368 24.84180016 22.12375133 0.00638352 -0.00326497 0.00594934
C -6.14619725 20.23075975 21.07632373 -0.00454650 -0.00695982 0.00231496
C 0.24958346 22.86863663 21.23094944 0.00348421 0.00536551 -0.00512473
C -1.57601691 27.83810470 21.68499953 0.00232619 -0.00061378 -0.00583556
C 16.42966303 3.53036385 5.05669433 -0.00086216 0.00363415 -0.00436947
C 13.50346144 8.27574170 0.88194317 0.00140783 -0.00419465 0.00143793
C 20.06443570 5.77985108 0.80407897 -0.00276909 -0.00186388 -0.00096115
C 22.96242485 1.31093347 5.00946820 -0.00143159 -0.00409432 0.00401816
C 17.60013246 3.38808438 4.33398815 -0.00073826 -0.00358166 -0.00278423
C 25.51309039 8.47039916 1.61353559 -0.00242589 0.00784411 -0.00094667
C 18.85387278 5.88708027 1.52865112 0.00430711 0.00044695 -0.00371506
C 10.93076382 1.08590442 4.48173923 0.00173827 0.00006804 0.00181412
C 18.50443222 2.41968997 4.78963973 -0.00640837 -0.00533859 -0.01049156
C 24.59227530 7.50694593 1.26592841 -0.00212809 -0.00205434 0.00293911
C 17.84906535 6.77154670 1.15934540 0.00741318 0.00809545 0.00017738
C 11.96066275 1.91619049 4.94582635 0.00936897 -0.00013138 0.00446199
C 18.26010439 1.73249630 5.98414204 -0.00189902 -0.00352124 0.00572583
C 24.76323018 6.79928076 0.07334564 0.00086778 0.00378693 0.00126636
C 18.02605897 7.56914930 0.02332645 0.00602585 -0.00141271 0.00132982
C 11.82353816 2.77961192 5.99382693 0.00072221 0.00670510 0.00251544
C 19.84308227 1.90411245 0.26720291 -0.00491054 -0.00522115 0.00374689
C 23.09181862 6.66559108 5.66280467 0.00315697 0.00111410 0.00105437
C 16.54414050 7.50195201 5.42128356 -0.00172114 0.00708987 -0.00076579
C 13.64614323 2.87074803 0.65983681 0.00006910 0.00168539 0.00361172
C 6.84023818 2.77435178 24.30744975 -0.00172844 -0.00196756 0.00963843
C 10.77797507 7.60664228 5.80596900 0.00105301 -0.01018509 0.00328205
C 17.44687350 6.52425299 5.83579011 0.00055204 -0.00129652 -0.00162807
C 25.55298194 2.04741975 0.21604387 0.00313197 0.00419070 -0.00184424
C 15.49849384 5.01546477 3.39035715 0.00103424 -0.00877296 -0.00223260
C 14.71911350 0.11767846 2.69863583 0.00285354 -0.00306076 -0.00028104
C 21.23456843 4.51888079 2.43252363 -0.00857232 -0.00005386 -0.00281156
C 21.64087043 9.19487602 3.48588169 0.00918648 -0.00154817 -0.00478308
C 14.43546706 6.01672317 3.11470707 -0.00197670 0.00205408 0.00121910
C 15.82522697 1.03059094 2.96175770 -0.00092715 -0.00151595 0.00493718