1920
Time=61000.00000005 pbc="T T T" Lattice="25.46714505 0.00000000 0.00000000 0.00000000 25.71653878 0.00000000 0.00000000 0.00000000 32.91476798" energy=-12252.38729119 virial="-43.91133641 -3.96046790 5.90349165 -3.96046790 -55.20565542 1.35638357 5.90349165 1.35638357 -44.70660774" stress="0.00007202 -0.00019148 0.00020502 -0.00019148 -0.00036051 0.00011267 0.00020502 0.00011267 0.00011327" Properties=species:S:1:pos:R:3:vel:R:3
O 5.48704258 3.11054322 6.76033740 0.00118925 -0.00150906 -0.00032515
O 2.93297209 3.47826013 15.20272760 0.00150721 0.00384527 0.00512748
O 1.74271362 10.23620154 1.28951633 0.00395929 0.00195979 0.00333557
O 6.63968209 9.45918916 9.73806750 -0.00027236 -0.00358160 0.00255389
O 2.77825884 10.69995047 9.37767308 0.00028938 0.00301287 -0.00087680
O 5.61344548 9.23441763 1.41519952 -0.00061917 -0.00603512 -0.00495873
O 7.12438587 2.67958593 15.16605094 -0.00246739 -0.00176477 -0.00408524
O 1.22072130 3.97566899 7.25909561 0.00217430 -0.00227612 -0.00455727
O 6.34126789 1.28955163 17.24449004 0.00513049 0.00341444 0.00238076
O 2.12981111 5.50910147 9.19428691 0.00331034 0.00159421 -0.00266387
O 2.10652329 12.09055898 7.30516058 -0.00087907 0.00155820 0.00619405
O 6.30940583 7.90423449 32.36172532 -0.00082080 0.00036680 -0.00555285
O 1.67932059 11.60471757 32.05528066 0.00132307 -0.00313105 -0.00242434
O 6.71839154 7.99725297 7.57871609 0.00314294 -0.00409397 0.00796280
O 6.27274348 1.38034135 8.87271825 -0.00000529 -0.00394477 -0.00004686
O 2.21301127 4.96227703 17.61433381 -0.00427859 -0.00590486 0.00149877
O 5.98097377 3.42519440 23.17754277 -0.00140538 -0.00535220 -0.00060034
O 2.58136373 3.41577169 31.94678829 -0.00082142 0.00380076 -0.00158912
O 1.38713447 10.14031763 17.67938015 0.00895801 0.00262324 0.00378185
O 6.71438749 9.40022297 26.22113469 0.00304052 -0.00624963 0.00281173
O 2.97180359 10.18821588 26.11974779 -0.00364796 0.00084891 -0.00114070
O 5.88886990 9.51234501 17.90250579 -0.00444797 0.00437382 0.00033242
O 6.52206628 2.78331303 31.63617556 0.00094949 -0.00320418 -0.00140019
O 1.48532600 4.01472661 23.83121244 0.00605078 -0.00189945 -0.00961483
O 6.66137897 1.34213106 0.73065257 0.00448049 -0.00031757 0.00662246
O 1.72932379 5.31629916 25.97600843 0.00112257 -0.00032003 -0.00381627
O 2.24055776 11.55326073 23.92489234 -0.00328594 -0.00056148 -0.00135484
O 5.77996766 7.81180261 15.87787788 0.00357230 -0.00280772 0.00445978
O 2.38357851 11.47835720 15.72213399 0.00135428 0.00104530 0.00027047
O 6.46374472 7.90504458 24.14465419 -0.00040116 0.00148731 0.00547009
O 6.27902561 1.54160727 25.32972208 -0.00300112 -0.00074078 -0.00006110
O 2.49278138 4.90831773 1.00803946 0.00462765 -0.00307153 -0.00113126
O 6.16787881 15.42985594 6.95505229 -0.00532557 0.00399209 -0.00457513
O 2.53806394 16.28183819 14.81348136 -0.00084227 -0.00234888 0.00350512
O 1.40862506 22.65362742 1.88011291 0.00029739 -0.00117447 -0.01037550
O 7.19619014 21.89996513 9.13043157 -0.00206221 -0.00320084 0.00424003
O 2.87259805 22.94822537 9.57189207 0.01012689 -0.00338203 -0.00202921
O 6.36265602 21.85686956 0.75254244 -0.00131074 -0.00228411 -0.00290131
O 6.48270938 15.53507984 15.10105408 0.00038725 -0.00133537 -0.00207998
O 1.16616893 16.25903894 6.23646290 0.00156233 -0.00231699 -0.00628939
O 6.06800371 14.17562287 17.21801618 0.00089500 0.00847120 -0.00228950
O 1.65553591 17.76794146 8.50462422 -0.00264301 -0.00339926 -0.00063673
O 2.34421005 24.70378947 7.59072304 0.00083369 -0.00322724 -0.00195353
O 6.40089126 20.16540779 31.72698671 0.00284379 -0.00688406 -0.00571982
O 1.49046387 24.18248683 32.47852490 -0.00054754 0.00531187 0.00924909
O 6.55332138 20.53092442 7.11976986 -0.00609476 -0.00085268 0.00300466
O 6.85529353 14.00972617 9.01354352 0.00644159 0.00304033 -0.00126595
O 2.10453938 17.93972053 16.90192051 -0.00409030 -0.00127633 0.00959611
O 6.06430797 15.29032701 23.48802468 0.00463702 -0.00585745 0.00573146
O 2.53195806 16.53082402 31.27949430 0.00189958 0.00553076 -0.00093558
O 1.80965769 22.80155050 18.06570427 0.00016865 0.00252888 0.00181693
O 6.57282768 22.00488674 25.66929032 0.00061652 -0.00301480 0.00234976
O 2.41751724 23.15043922 25.93832049 0.00667335 -0.00156191 -0.00107140
O 5.85039094 22.06369095 17.39525615 -0.00561222 -0.00590990 -0.00241704
O 6.89022315 15.06107025 31.49908473 -0.00092586 0.00493394 0.00616298
O 1.81444450 16.42055118 23.32031150 0.00541843 0.00451953 -0.00271525
O 6.45578010 13.93111101 0.80853050 0.00320740 -0.00238338 -0.00101969
O 2.08449948 18.14852132 25.15033741 -0.00098253 -0.00089752 0.00208244
O 2.20610021 24.89201346 24.03141878 0.00083097 -0.00237150 -0.00619085
O 6.52317507 20.59434026 15.39410862 0.00034033 0.00111124 -0.00012184
O 2.03307621 24.16405927 15.91253791 -0.00182990 -0.00236905 0.00003640
O 6.40000953 20.45911735 23.57098518 0.00222436 -0.00456391 -0.00408292
O 6.82495978 13.84636975 25.44201698 0.00553748 0.00019654 -0.00022563
O 2.36950070 18.25952541 0.29257085 -0.00397959 -0.00117618 -0.00033734
O 14.20415056 2.68383593 7.15788192 0.00380678 -0.00097052 0.00048338
O 11.93665220 3.78143440 15.15385767 0.00216965 0.00258724 -0.00193307
O 10.37383477 10.15618913 1.31460185 0.00917068 0.00540998 0.00002279
O 15.24916375 8.92388944 9.31058987 0.00358481 -0.00842818 -0.00098513
O 11.54486520 10.21797330 9.87593118 0.00135107 -0.00233045 -0.00989349
O 14.15302207 9.17616474 1.60065607 -0.00187081 0.00155767 0.00021046
O 15.15750445 2.85771994 15.31828980 -0.00041756 0.00482562 -0.00125817
O 10.20934387 3.72000569 7.31488861 0.00249254 -0.00165050 0.00638828
O 14.81663501 1.28253912 17.64876270 0.00479259 0.00098178 0.00366749
O 9.94262388 5.39967875 9.17074266 0.00227584 0.00126705 0.00133995
O 11.00063013 11.26642039 7.55919182 -0.00260143 0.00398227 0.00170310
O 13.98469104 7.68894803 32.35609646 -0.00080038 -0.00172364 -0.00330774
O 10.97031543 11.71899512 32.24881689 -0.00002348 -0.00445838 -0.00380844
O 14.60211848 7.27723688 7.52433497 0.00410302 0.00398244 -0.00429887
O 14.55453778 1.30904193 9.12906070 -0.00118336 0.00030763 -0.00109246
O 11.12172114 5.03258082 17.33440210 0.00122495 0.00506827 0.00250076
O 14.37713984 2.93685536 23.71274652 0.00017583 -0.00340550 0.00475172
O 11.21885338 3.71054847 31.68329059 -0.00547634 0.00452879 0.00671556
O 10.57519374 10.06264399 17.89996320 0.00239867 -0.00040842 0.00234785
O 15.36907295 9.44996494 26.33684613 0.00247392 0.00062766 -0.00110515
O 11.40258245 10.60669709 26.01611059 0.00298908 0.00491093 -0.00335882
O 14.43880652 8.84672143 17.75069972 0.00193505 0.00340296 0.00110081
O 14.91706251 2.70210474 31.94613579 0.00424483 0.00185411 -0.00035780
O 10.11602662 3.51123122 23.56871935 -0.00579544 0.00154224 0.00029304
O 14.66647793 1.02640095 1.06403233 0.00048161 0.00119494 -0.00245419
O 10.35456269 5.19702107 25.62176070 -0.00306234 -0.00104007 0.00459054
O 10.40578109 11.72404765 23.86208441 -0.00386542 0.00200042 0.00096368
O 15.19471295 7.83484136 15.57752371 0.00006990 -0.00853149 -0.00016380
O 10.71396967 11.65231489 15.77271860 0.00218691 0.00282409 -0.00054869
O 14.94413459 7.96447154 24.02152045 -0.00262086 -0.00242503 -0.00477028
O 14.80434523 1.22769930 25.57824346 0.00242769 0.00098600 -0.00603345
O 10.94333474 5.23094746 0.90284554 0.00446860 -0.00528662 -0.00201084
O 14.42064316 15.39798998 7.05543099 -0.00243577 -0.00546026 0.00589569
O 10.80766594 16.27606230 14.72240376 0.00778472 -0.00127576 0.00142858
O 10.23283411 23.08059548 1.39599032 -0.00646479 -0.00261324 -0.00033311
O 15.59482057 21.95850444 9.33250743 0.00009956 -0.00232602 -0.00154960
O 11.42392079 22.34588281 9.73531590 0.00293122 -0.00318761 0.00015810
O 13.78089248 21.93895800 1.11592244 -0.00225769 -0.00897830 -0.00972717
O 15.39610388 15.42231500 15.32471111 0.00049119 -0.00341479 0.00257626
O 10.51711968 16.19853788 6.50572230 -0.00530835 0.00293205 -0.00098962
O 14.99475532 13.88812133 17.26051708 -0.00335672 0.00036322 -0.00191800
O 10.18073121 17.83879445 8.53129433 0.00223482 0.00253774 0.00241118
O 10.24267837 24.40224910 7.59579133 0.00124523 0.00562984 0.00115555
O 14.64460687 20.82283151 31.79725251 -0.00054848 -0.00120401 0.00137366
O 10.30502737 24.45504455 32.04697255 -0.00258944 0.00303242 -0.00531527
O 15.13835816 20.55919383 7.11037931 0.00002130 0.00583247 -0.00422131
O 15.25118143 14.16758653 9.19912196 -0.00282415 -0.00058397 -0.00043462
O 10.81865036 17.69117055 16.84308980 -0.00245817 -0.00732965 0.00007841
O 13.67476362 15.52123289 23.21966769 -0.00061561 -0.00348972 -0.00257860
O 10.83232180 16.50266122 31.44535700 0.00148360 0.00435022 -0.00478229
O 10.45346696 22.71063545 17.72702100 -0.00662051 0.00146024 0.00102996
O 15.68711549 21.78338562 25.52619945 -0.00109700 0.00687862 -0.00950286
O 10.72524420 22.77664594 26.10032719 0.00478172 -0.00824391 -0.00244386
O 14.61910560 21.93565289 17.24060899 0.00102148 -0.00569250 -0.00392055
O 14.97189482 15.58143424 31.59215914 0.00569187 0.00265747 -0.00042445
O 9.93512958 16.22053364 22.97838608 -0.00445836 0.00733751 -0.00165052
O 14.47218629 14.17028391 1.03616911 0.00161899 -0.00103761 0.00001355
O 9.89680506 17.66400858 25.13022014 0.00248231 -0.00292308 -0.00417558
O 10.84673526 24.22151345 23.93925417 0.00037911 0.00371090 -0.00257558
O 15.14570856 20.23783139 15.44343093 -0.00818109 0.00387061 -0.00043077
O 10.40040049 24.49059389 15.75624993 -0.00324192 -0.00186109 0.00352084
O 14.92350519 20.75304823 23.36585853 0.00577002 -0.00046724 -0.00398896
O 14.57712861 14.25479005 25.28149063 0.00971296 -0.00124783 -0.00199879
O 10.43108856 18.15018837 0.47636900 0.00009174 0.00260979 -0.00190992
O 23.08133068 2.74081804 7.21207861 0.00303724 0.00217277 -0.00227675
O 20.25265794 3.64453839 15.14289119 -0.00283863 0.00054279 0.00109528
O 18.20532676 10.13636422 1.58154834 0.00160123 -0.00372547 0.00317716
O 23.60106725 9.47792834 9.55375170 0.00628324 -0.00414485 0.00538750
O 19.64024546 10.19597622 9.43990203 0.00575527 -0.00176652 0.00546570
O 22.83018969 9.52486017 1.51067236 -0.00338025 0.00356687 0.00025989
O 24.10679107 2.73674966 15.01288927 -0.00291483 0.00590414 -0.00015197
O 18.90555195 3.54906535 7.23214448 -0.00185195 0.00381214 -0.00282529
O 23.68157176 1.23569039 17.08828132 0.00407656 0.00454613 -0.00072266
O 19.33346718 5.24694294 9.22856136 0.00806052 -0.00217468 -0.00188641
O 19.22699901 11.88244409 7.69851134 0.00494163 -0.00222510 0.00218156
O 23.09636989 8.07376411 32.29904969 0.00516341 0.00230953 0.00544131
O 18.33419365 11.41454805 32.39869884 -0.00095886 0.00788240 -0.00095636
O 23.59766259 7.84820058 7.54431989 0.00030307 0.00779821 -0.00320632
O 23.48534801 1.00641621 8.97256768 -0.00319899 -0.00261748 0.00471930
O 19.76018859 4.96856813 17.54957645 0.00249209 -0.00147616 -0.00308757
O 22.93198655 2.69496849 23.45890104 -0.00395967 0.00214999 0.00102994
O 19.16258943 3.58163854 31.52527751 -0.00100159 -0.00105373 0.00191517
O 18.64682585 10.07537552 17.88965773 -0.00176553 -0.00321483 0.00077857
O 23.93979384 9.10351107 25.93810537 -0.00691727 -0.00582551 -0.00331031
O 19.20258139 10.21422445 26.07583585 -0.00540849 0.00417774 0.00040636
O 22.74517722 9.49581457 17.83707837 -0.00081182 0.00039955 0.00370586
O 23.89867980 2.72833252 31.81556941 0.00163253 0.00229096 0.00107352
O 18.44663081 3.69164808 23.58752093 -0.00375449 -0.00893882 0.00163591
O 23.50121974 1.31020621 1.01735610 -0.00381548 0.00484802 0.00308824
O 19.19658793 5.31965001 25.47574405 -0.00408323 0.00414999 0.00644030
O 18.94620868 11.84698834 24.01082903 0.00332523 0.00685733 0.00338320
O 23.24986323 7.90322951 15.83839469 -0.00052478 -0.00489507 -0.00146169
O 19.10518577 11.52735911 15.73050340 -0.00079638 -0.00322090 0.00735842
O 23.10283914 7.82609130 23.99742369 -0.00319652 -0.00304806 -0.00032765
O 22.91970128 1.48733145 25.65780036 0.00554867 -0.00226970 -0.00455741
O 19.46127082 4.85145945 0.97638552 0.00547110 -0.00193902 -0.00631634
O 23.38981549 15.39834331 6.95432946 0.00113321 -0.00241740 -0.00529737
O 19.31115986 16.77058265 14.76239014 -0.00044234 -0.00350516 0.00037349
O 18.45412308 23.02130692 1.20631165 0.00176382 -0.00124014 -0.00289096
O 24.14005698 21.84737803 9.03900031 -0.00024769 -0.00226844 -0.00510851
O 19.94554778 22.68516620 9.59649214 -0.00208171 -0.00205471 -0.00050890
O 22.89091062 22.10150427 1.08070020 -0.00257602 0.00202463 -0.00141064
O 24.03051099 15.36523460 15.37395435 -0.00316690 -0.00464237 -0.00080563
O 18.42480267 16.45122971 6.30277547 -0.00549113 0.00288676 0.00042166
O 23.31252464 14.18804716 17.50270562 0.00138564 0.00448147 -0.00481018
O 19.30839497 17.73985497 8.35499974 0.00040414 0.00283902 0.00108884
O 19.31994147 24.01672705 7.46327379 -0.00324457 -0.00585837 0.00162102
O 23.43738536 20.48249557 32.07351060 -0.00555635 -0.00291761 0.00541696
O 19.09463164 24.73392228 32.15420224 -0.00689287 -0.00028947 0.00230633
O 22.94178785 20.31448613 7.18796653 -0.00021830 -0.00045582 -0.00150181
O 23.85427540 14.20407133 9.20966426 0.00492505 0.00247965 -0.00389681
O 19.25501224 18.01239915 17.07954992 -0.00510446 -0.00168561 0.00552482
O 22.85947138 15.45352688 23.62320024 -0.00438109 -0.00229528 -0.00839927
O 19.15183788 16.35549632 31.12929930 0.00058527 0.00078342 -0.00311853
O 18.71271949 22.78389060 18.11064032 -0.00081489 0.00567420 0.00152479
O 24.04535636 21.83844250 25.88950706 0.00320457 -0.00378073 0.00025605
O 19.75234771 23.07219557 26.19695263 0.00235992 -0.00141450 0.00318291
O 22.75236965 21.86999115 17.71299007 0.00501807 0.00795527 0.00792710
O 23.90502034 15.89103956 31.66762529 -0.00152266 0.00119833 0.00317671
O 18.14843279 16.82971736 23.19369088 0.00066970 0.00540041 0.00291252
O 23.46126434 14.23747636 0.64539623 -0.00086667 0.00454334 -0.00191797
O 18.96241697 18.27900320 25.12724036 0.00072021 0.00412495 0.00045120
O 19.26733990 24.65396466 24.17861599 0.00099439 0.00299929 0.00643770
O 23.24647422 20.70873974 15.50920722 0.00256039 0.00208209 0.00257966
O 19.41006107 23.95551890 15.90643388 -0.00036746 0.00097642 -0.00632206
O 23.48450426 20.42081693 23.86632850 0.00712618 0.00551140 0.00352003
O 23.13807840 13.87115633 25.65841243 -0.00088450 -0.00211288 -0.00261662
O 19.26936223 17.86415310 0.30126648 -0.00290871 -0.00425782 0.00159443
N 7.70331568 12.75370461 2.34107445 -0.00243114 0.00135847 -0.00725034
N 1.15536343 6.51917377 11.00257839 0.00060855 -0.00197842 0.00132020
N 3.33815510 0.19991588 5.96062361 0.00606121 0.00627433 0.00147439
N 5.40801740 6.40764210 14.16613674 0.00605229 -0.01456985 -0.00020372
N 1.13889998 25.38988309 14.27434545 -0.00406803 -0.00522544 -0.00166325
N 7.27800204 6.54467424 5.89600827 0.00081509 -0.00471523 0.00337885
N 5.23356861 13.12432464 10.31605722 0.00312019 -0.00581130 -0.00315668
N 3.34758184 6.35747347 2.63502767 0.00155445 0.00064851 -0.00010620
N 7.25965439 12.90846759 18.67297006 0.00020158 0.00596718 -0.00442454
N 0.65873287 6.31716406 27.74001592 -0.00071652 0.00423094 0.00403227
N 3.11800022 0.26108295 22.19828821 0.00211372 0.00824203 0.00291374
N 5.03773058 6.80629568 30.77756009 -0.00408435 -0.00064631 0.00450313
N 1.18671407 25.71149007 30.76978319 -0.00230331 -0.00129359 0.00633329
N 7.47571763 6.63159298 22.48736795 -0.00463589 -0.00239205 -0.00133519
N 5.22535263 12.82482039 26.80284219 -0.00583662 0.00031114 -0.00133862
N 3.49169346 6.07682676 19.09152237 0.00237517 -0.00447279 -0.00149236
N 7.60726876 0.19981080 2.51753961 0.00505702 0.00374641 0.00199411
N 1.13086811 19.10836597 10.28568153 -0.00270426 0.00097292 -0.00328293
N 3.42584323 13.03350815 5.64886817 -0.00443063 -0.00131536 -0.00369033
N 5.20812932 19.58726488 13.79701680 0.00164256 0.00765131 -0.00035657
N 0.78514640 12.50167131 14.34402388 0.00478484 0.00318934 0.00483216
N 7.37397880 19.09589826 5.54660770 -0.00904505 0.00099595 0.00693906
N 5.38690270 0.13194128 10.60098802 0.00229165 -0.00071371 0.00039599
N 3.15591035 19.37933856 2.18735744 -0.00305205 0.00301358 -0.00644762
N 7.53458827 0.22619627 18.98390712 -0.00395435 0.00023599 0.00125204
N 1.05425100 19.35373889 26.81386734 0.00568261 -0.00158719 0.00269470
N 3.04737775 12.92541573 22.24579108 0.00386291 0.00431271 -0.00590600
N 4.89091585 19.30904947 30.25220766 0.00162981 0.00434766 -0.00427462
N 0.83381737 12.93206763 30.38947128 -0.00469075 0.00573298 -0.00218431
N 7.54645717 19.34565571 21.86428251 0.00168382 -0.00272845 0.00049006
N 5.10809831 0.37732740 26.91702213 0.00558063 0.00545568 -0.00115358
N 3.11455960 19.22611101 18.57384953 0.00107012 0.00106444 -0.00032620
N 16.03796323 13.01613457 2.30694873 0.00303709 -0.00272362 -0.00302979
N 9.00993961 6.25136384 11.07578487 -0.00755443 -0.00925892 -0.00153819
N 11.49492671 25.68901981 6.11612020 -0.00313935 0.00527082 -0.00904319
N 13.74104229 6.68809371 14.21800253 -0.00131300 0.00158134 -0.00198595
N 9.67193815 25.70866000 13.94402180 -0.00055080 0.00312502 -0.00484127
N 16.11449566 6.59847820 6.04818880 0.00227211 0.00125671 0.00549324
N 13.81447324 12.92759334 10.57185031 -0.00135898 0.00075673 0.00159130
N 11.76655261 6.35284220 2.67203792 0.00039409 -0.00072776 -0.00579261
N 16.25708038 12.99277567 19.00659163 -0.00069145 -0.00011602 -0.00261115
N 9.46564243 6.44018676 27.37526492 0.00258451 0.00011007 -0.00081853
N 11.79554945 25.58413246 22.37388465 0.00198894 -0.00304552 -0.00117659
N 13.47106496 6.32353094 30.59056774 -0.00030989 -0.00050249 0.00342554
N 9.05247970 25.71062537 30.54325159 0.00405941 -0.00278679 -0.00041457
N 15.91119605 6.57329161 22.49273765 -0.00130661 0.00271080 0.00022974
N 13.60186856 12.92358979 26.83018456 0.01012916 0.00172466 -0.00436145
N 11.84556058 6.50710205 18.99185390 0.00221039 -0.00422115 0.00246217
N 15.89997187 0.02778833 2.64236276 -0.00560734 0.00098268 0.00462613
N 9.60529298 19.28598810 10.24743484 0.00174556 -0.00449563 -0.00695358
N 11.85593555 12.62291819 5.92628428 0.00546607 0.00586198 -0.00339435
N 13.77035302 19.31075360 13.86301493 0.00328008 -0.00869992 0.00287424
N 9.46528884 12.67216437 14.19121154 -0.00683778 0.01508703 -0.00225194
N 16.17516610 19.47303036 5.36015793 -0.00072625 -0.00413969 0.00350859
N 14.17878876 25.40703764 10.73587306 0.00506725 0.00269557 0.00131512
N 11.71007012 19.24574885 2.02213484 0.00080107 0.00181396 -0.00132147
N 16.12236914 0.15945533 19.22955673 -0.00363270 -0.00061042 0.00112988
N 9.38174608 19.10286278 26.79582198 0.00118427 -0.00039835 0.00958415
N 11.40068626 13.16302762 22.37192440 0.00727676 0.00487343 -0.00121650
N 13.48763798 19.68391060 30.14666395 -0.00351962 -0.00087062 0.00248677
N 9.86267869 12.92636910 30.69343584 0.00194333 0.00415797 0.00100814
N 15.81130444 19.19978977 21.86625018 0.00294804 0.00200545 0.00400731
N 13.70189321 0.06592488 27.23647228 0.00238679 -0.00805653 0.00443486
N 11.54343003 19.10362752 18.48568119 0.00749091 -0.00505106 -0.00381277
N 24.28072701 12.82340619 2.13703082 0.00501831 -0.00095709 -0.00148378
N 18.12933473 6.39451930 10.82630174 -0.00134911 0.00017733 -0.00054833
N 20.24528620 25.23419589 5.83622226 0.00050344 -0.00371606 0.00325186
N 22.55518171 6.53730031 14.15294644 0.00027380 -0.00048945 0.00035538
N 18.30969407 25.15537263 14.22015818 -0.00797218 0.00604085 0.00344558
N 24.25292824 6.42827903 5.90552964 -0.00344428 -0.00767546 0.00057458
N 22.46014729 13.02542360 10.61801673 0.01235650 0.00606632 0.00159715
N 20.33779704 6.21556434 2.63646718 -0.00520320 0.00491131 0.00191663
N 24.36828550 12.91558322 19.01922609 -0.00102995 -0.00455142 -0.00056530
N 17.89407408 6.48947694 26.98467935 0.00907047 0.00117290 0.00399487
N 20.55102112 25.69418990 22.61499866 0.00388401 0.00019465 0.00511069
N 22.12366888 6.73329522 30.62501793 0.00116564 0.00343185 -0.00501814
N 17.85520836 0.05121909 30.50913292 0.00066165 0.00679182 -0.00403699
N 24.42174983 6.71632357 22.43918861 -0.00550447 -0.00356143 -0.00097590
N 21.72038525 13.19106342 27.34964462 0.01385122 -0.00007478 -0.00248118
N 20.27738250 6.49954900 19.15278705 -0.00680993 -0.00720777 0.00363381
N 24.43248262 25.65960306 2.54103829 -0.00389828 -0.00077716 -0.00424092
N 18.20946313 19.03506460 9.84551438 -0.00301030 -0.00263907 -0.00020778
N 20.31945675 12.75713132 5.92683455 -0.00093169 0.00316225 -0.00439777
N 22.41931247 19.47279316 13.79797951 0.00282794 0.00175949 -0.00708008
N 18.02123209 12.77615829 14.14416255 -0.00940363 -0.00387452 0.00595933
N 24.24105324 19.17983664 5.64058520 -0.00257844 -0.00389145 0.00054279
N 22.51475991 25.52140722 10.65592534 0.00180729 0.00093607 0.00520121
N 20.03375339 19.29354616 1.94888421 -0.00393881 -0.00531800 0.00316495
N 24.42232604 0.04188904 18.93548106 0.00344736 -0.00463916 0.00140631
N 17.72699998 19.41104487 26.72959620 0.00103388 -0.00278543 -0.00514757
N 20.12557626 12.93361015 22.46346244 0.00466241 -0.00265245 0.00188537
N 22.24708555 19.39366590 30.50262406 0.00319226 -0.00596080 0.00000809
N 18.14821837 12.86061556 30.68774952 0.00125690 0.00236625 -0.00079493
N 24.67208815 19.29715546 22.26352779 0.00422205 0.00210033 -0.00276632
N 22.03363110 0.21953732 27.31488579 -0.00373216 0.00691518 -0.00015744
N 20.54386524 19.02094034 18.70873396 -0.00287274 -0.00498145 -0.00738563
C 7.26020500 0.61766367 4.91957366 0.00181350 -0.00527781 -0.00639443
C 1.10270488 5.92713998 13.34424301 0.00002635 0.00151443 -0.00175157
C 3.36315265 12.69442425 3.30376797 0.00307486 0.00203319 -0.00135684
C 5.24295775 6.84024970 11.81605501 -0.00669022 0.00825356 0.00070485
C 0.85400058 12.68527191 11.94126196 -0.00186138 0.00005301 -0.00386749
C 7.41287429 6.94950579 3.59565352 0.00240304 0.00113110 0.01113423
C 5.21780252 0.46040182 12.94394608 0.00235591 -0.00133697 0.00135805
C 3.12066095 6.26814970 5.06878207 -0.00141011 0.00274107 0.00203821
C 6.79914793 1.37217026 5.89235903 0.00253306 -0.00041568 0.00224640
C 1.51861314 5.19192388 14.40488491 0.00925026 -0.00040806 0.00436551
C 3.07690653 11.96561941 2.18903192 -0.00007992 0.00315978 0.00394419
C 5.62265741 7.56453653 10.71030739 -0.00727971 -0.00048360 0.00217509
C 1.46151628 12.27185819 10.71569610 0.00374737 -0.00030834 0.00068049
C 7.03849097 7.60737939 2.45265478 -0.00398478 0.00688459 -0.01013999
C 5.76936632 0.96197421 14.09444858 -0.00378526 0.00514179 0.00097686
C 2.66792720 5.62879592 6.23168054 -0.00334415 0.00039272 0.00420399
C 6.10796557 2.57021542 5.69876632 0.00172089 0.00040264 -0.00093387
C 2.36933919 4.11918283 14.14860691 0.00840318 0.00660467 -0.00175836
C 2.31039535 10.80603949 2.31976433 0.00116575 -0.00342715 0.00828970
C 6.32954251 8.80696641 10.86431647 -0.00139208 -0.00388221 -0.00171445
C 2.17386391 11.08837867 10.55665219 -0.00005967 -0.00736994 -0.00723747
C 6.09728957 8.72760432 2.51953148 0.00286312 -0.00296994 -0.00118053
C 6.60259578 2.12351409 14.03928613 0.00212161 0.00276912 -0.00148653
C 1.88485603 4.41277516 6.16755499 0.01066187 0.00079465 -0.00287659
C 5.89353988 2.97021454 4.36622802 -0.00697104 -0.00401630 -0.00015834
C 2.57127858 3.68584233 12.82952736 0.00113831 0.00134089 0.00503708
C 2.08425055 10.29873238 3.62925214 -0.00264439 -0.00201635 0.00691516
C 6.52992319 9.30091532 12.14595810 0.00177949 -0.00195453 0.00358216
C 2.42199137 10.40703992 11.73370414 -0.00146262 -0.00057398 -0.00094961
C 5.96479411 9.33710497 3.78660796 0.00263594 0.00045134 0.00085289
C 6.78737604 2.72467606 12.81319906 0.00256570 0.00497563 0.00138280
C 1.79466231 3.78928199 4.89127621 -0.00085659 0.00098040 0.00246458
C 6.49919805 2.24464184 3.37066364 -0.00270501 0.00515867 0.00053879
C 2.01069666 4.34381224 11.74106416 -0.00013593 -0.00543183 -0.00605062
C 2.40897622 11.02335205 4.72549743 -0.00172887 0.00314482 0.00259182
C 6.11727079 8.59649294 13.24916112 0.00459227 0.00994029 0.00214929
C 2.00300352 10.88436488 12.98006558 -0.00274089 0.00532327 0.00608066
C 6.36206565 8.67049188 4.91584866 0.00545990 -0.00351003 -0.00091884
C 6.31035558 2.17855715 11.63200281 -0.00031992 -0.00170642 -0.01444993
C 2.21324538 4.40436800 3.73129249 0.00123763 0.00713739 -0.00162471
C 7.13311560 0.99778080 3.57508578 -0.00322403 -0.00527883 0.00448511
C 1.42784644 5.60418599 12.01547385 0.00526974 -0.00459862 -0.00260083
C 3.04716215 12.25403839 4.59740539 -0.00509372 -0.00137920 -0.00693577
C 5.64150801 7.25249811 13.14393451 0.00140457 0.00367049 0.00127385
C 1.20286363 12.02989566 13.10910035 0.00038594 0.00351833 0.00242482
C 6.99719522 7.35797224 4.89041414 0.00770462 -0.00213232 0.00088932
C 5.62835640 0.94360530 11.68130895 0.00049939 -0.00321412 0.00228148
C 2.89527339 5.68832744 3.74446759 -0.00396556 0.00520340 -0.00101822
C 7.11386144 0.31724293 1.25211575 0.00347828 -0.00467082 -0.00857784
C 1.55996336 6.46910811 9.69996191 0.00165608 -0.00096054 -0.00189348
C 2.79296387 12.97212265 6.82967587 -0.00213304 0.00088577 -0.00653118
C 5.66462380 6.65810621 15.49341897 0.00520613 0.00533913 0.00514059
C 1.66569291 12.44700005 15.47297226 -0.00210702 -0.00267437 -0.00722224
C 7.00360992 6.84784302 7.24501638 -0.00230222 -0.00673403 -0.00403725
C 5.82514728 0.31372621 9.32507394 0.00002134 -0.00348671 -0.00586488
C 2.82168372 6.04276102 1.37452029 0.00203729 0.00626044 -0.00339227
C 7.05729495 12.03766400 16.52873383 -0.00308412 0.00407079 -0.00606167
C 1.34240608 7.69805483 8.96347491 -0.00404608 0.00407357 0.00429098
C 2.83655744 1.29466914 8.03422895 -0.00723346 0.00477618 -0.00483343
C 5.63723009 5.60923872 0.00949134 0.00611662 -0.00112365 -0.00210781
C 1.50257475 0.72647228 0.13900978 0.00244058 0.00306655 0.00133543
C 6.85632787 5.71899731 8.19395371 -0.00095865 -0.00010215 -0.00105659
C 5.74705643 12.01830864 8.13250340 0.00251402 -0.00541272 -0.00005710
C 3.03536845 7.13328331 16.96818585 -0.00079364 0.00189809 -0.00578547
C 7.41743498 0.56963472 21.33147823 0.00167461 0.00651250 0.00860216
C 0.91564893 5.84055796 30.06467329 0.00127153 0.01095850 0.00278269
C 3.19868881 12.55639453 19.76155822 -0.00519110 0.00278430 0.00473427
C 4.94225132 7.09050135 28.40089697 -0.00609491 -0.00393209 0.00024739
C 0.68540793 12.40953883 27.96073438 0.00099872 -0.00670999 0.00336472
C 7.53181953 7.07153542 20.06033997 0.00058766 0.00709071 -0.00366972
C 5.17519811 0.40254949 29.29559821 -0.00123812 0.00029949 0.00040476
C 3.20087749 6.18232729 21.54776569 0.00193275 0.00139229 0.00013622
C 7.14117279 1.46216600 22.35439326 -0.00166593 0.00339078 0.01154522
C 1.25510605 5.12012591 31.09580322 -0.00368852 0.00199220 -0.00618061
C 2.77492725 11.74706889 18.70919902 0.00162131 -0.00142084 -0.00460046
C 5.23322714 7.84849390 27.27821137 -0.00070755 -0.00391036 0.00145821
C 1.21379857 11.71785618 26.88820931 -0.00220724 0.01134740 0.00213145
C 7.15356323 7.79043606 18.91837296 -0.00237518 -0.00421216 0.00494287
C 5.49209369 1.01878799 30.45735538 -0.00608283 0.00764844 0.00098495
C 2.77600668 5.59199795 22.71801863 0.00756289 -0.00191098 -0.00249464
C 6.40831635 2.63866840 22.13575884 0.00093749 0.00446349 0.00289857
C 2.10917360 3.99122271 30.90932886 0.00337687 0.00613717 -0.00051937
C 1.92603516 10.70402520 18.83008632 -0.00383757 0.00191522 -0.00343463
C 6.21501263 8.85142607 27.36194889 0.00729396 0.00312175 0.00052923
C 2.16612842 10.71289067 27.09393731 -0.00499357 -0.00158796 0.00318089
C 6.25140019 8.88265400 19.01315856 0.00115508 -0.00939740 0.00267556
C 6.09562120 2.28935888 30.51302495 0.00539098 0.00672908 -0.00423192
C 2.01656125 4.42565479 22.68843401 -0.00332090 0.00092708 -0.00404075
C 6.19588453 3.07486800 20.82704595 0.00689314 -0.00238070 -0.00372028
C 2.39743526 3.66119099 29.58579981 0.00731981 0.00014934 -0.00615329
C 1.61267717 10.26837944 20.14991783 -0.00214547 -0.00274176 -0.00735832
C 6.50185420 9.41013042 28.58112581 -0.00371503 0.00606918 -0.00551310
C 2.20671429 10.14843020 28.35353784 0.00098048 -0.00186460 -0.00406369
C 5.97129814 9.32690935 20.33751965 0.00402583 -0.00063128 0.00210911
C 6.42979789 2.87906486 29.26331998 -0.00697143 0.00052120 0.00161108
C 1.82698018 3.78558561 21.41825609 -0.00625701 0.00879287 0.00926650
C 6.50646935 2.24131460 19.75146265 -0.00712696 -0.00427066 0.00344086
C 1.96654831 4.41272980 28.52569951 0.00020649 -0.00490468 -0.00557491
C 2.20681746 10.93110731 21.22279856 -0.00142139 0.00407710 0.00877490
C 6.14100961 8.72832085 29.69525257 0.00522720 -0.00035004 -0.00631016
C 1.60724790 10.76652297 29.45103137 -0.00402860 0.00392605 -0.00165822
C 6.45287084 8.68478053 21.48047496 0.00003353 -0.00122035 -0.00282575
C 6.13368340 2.25742622 28.07673197 -0.00467720 -0.00204781 -0.00098481
C 2.27912102 4.35194790 20.26095357 0.00265995 -0.00233640 0.00474682
C 7.08591008 1.00300787 20.02715908 0.00377325 -0.00318456 -0.00068654
C 1.26494150 5.56330835 28.70877240 0.00067382 -0.00105477 -0.00205509
C 2.87715871 12.13239712 21.08799921 0.00254824 -0.00432672 -0.00700576
C 5.31225591 7.57690030 29.64119134 -0.00569511 -0.00765974 0.00222339
C 1.05532247 12.07441977 29.32167113 0.00121503 0.00653489 -0.00135106
C 7.13084068 7.47460693 21.39613365 0.00386661 -0.00285037 0.00452602
C 5.48281085 1.02567636 28.05593845 0.00184377 0.00030978 0.00462241
C 3.01514802 5.50474413 20.29028744 -0.00126651 0.00322731 0.00061830
C 7.09994640 0.39167658 17.67241120 -0.00389569 0.00706555 0.00355934
C 1.23414963 6.32271324 26.49907997 0.00089735 0.00442304 -0.00265387
C 2.69118383 12.62968940 23.52379414 0.01486897 -0.00238585 -0.00236542
C 5.67044597 6.86294240 31.94835370 -0.00518022 -0.00472421 -0.00160839
C 1.35573149 12.73094135 31.64597380 -0.00011593 0.00680698 -0.00716725
C 6.99143273 6.88135764 23.70431438 0.00480227 -0.00898837 -0.00292577
C 5.67476451 0.49930054 25.63485674 -0.00692129 -0.00355929 -0.00116984
C 2.84676920 5.93641439 17.91445271 -0.00606411 -0.00296355 0.00685388
C 7.15135598 11.78464366 0.19862245 0.00260379 -0.00766137 -0.00329651
C 1.20243837 7.70119518 25.89876793 0.00321684 -0.00609401 0.00169355
C 2.93004395 1.37479608 24.37412152 -0.00195060 0.00410991 0.00195944
C 5.87318009 5.39540900 16.31233106 0.00259718 0.00511761 0.00159821
C 1.88817610 0.83196050 16.21456137 0.00411957 0.00293098 -0.00299372
C 7.02004847 5.67197860 24.64943056 0.00228398 0.00036075 -0.00331501
C 5.81437152 11.92211230 24.51954166 0.00705048 -0.00633736 0.00108609