1920
Time=33000.00000001 pbc="T T T" Lattice="25.70716777 0.00000000 0.00000000 0.00000000 25.57367915 0.00000000 0.00000000 0.00000000 32.80915897" energy=-12250.83418214 virial="-48.28496074 -28.79776445 -22.67891053 -28.79776445 -3.85292108 19.40631832 -22.67891053 19.40631832 -26.62668824" stress="-0.00014885 -0.00134970 -0.00102137 -0.00134970 0.00207839 0.00092059 -0.00102137 0.00092059 0.00088212" Properties=species:S:1:pos:R:3:vel:R:3
O 5.85169835 2.90891291 6.65970617 -0.00002011 0.00225317 0.00207530
O 2.89089279 3.79020074 15.39031155 0.00775924 0.00699707 -0.00763104
O 1.49990433 10.22442094 1.11147667 -0.00156182 0.00541951 -0.00687982
O 6.56852179 9.26636585 9.68509419 0.00743077 -0.00052811 -0.00880956
O 2.75281045 10.07862125 9.42110410 0.00640121 -0.00561622 0.00557880
O 6.58958107 8.95396909 1.36656898 -0.00183067 -0.00420864 -0.00067858
O 6.78909492 2.52922551 14.91226920 0.00147366 0.00994628 -0.00222077
O 1.43439683 3.63925607 7.17418516 0.00511997 -0.00647905 0.00294610
O 6.32536994 1.08451966 16.99081126 0.00046186 -0.00424737 0.00603954
O 2.00373696 5.23773255 9.28034092 0.00564489 -0.00035365 -0.00208293
O 2.09146753 11.52165280 7.30000438 -0.00262311 0.00439507 0.00036294
O 6.98704318 7.39502866 32.04049960 0.00038383 0.00301878 -0.00115674
O 2.33874913 11.67064404 31.92079545 0.00165945 -0.00657963 -0.00319784
O 6.47988724 7.76780581 7.50062801 -0.00027824 0.00054621 0.00588197
O 6.02782176 1.25323718 8.73243165 0.00178729 0.00120150 0.00002616
O 2.04677929 4.96243387 17.64802279 0.00254138 -0.00187330 -0.00795678
O 5.94783770 3.09979871 22.98133881 -0.00169511 -0.00079131 0.00633818
O 2.91424021 3.55700031 31.52835318 -0.00175498 0.00191449 -0.00439862
O 1.95030523 10.10325140 17.48851512 0.00170719 0.00720460 0.00457033
O 7.51880964 9.35737666 26.17696418 -0.00709498 -0.00103036 0.00199861
O 2.34941749 10.16170957 25.59294276 0.00216973 -0.00295602 0.00378189
O 5.80998161 8.69258939 18.02556356 0.00016789 -0.00153857 0.00415549
O 7.10838651 2.71385814 31.45618157 0.00033193 -0.00352878 -0.00207963
O 1.08930080 3.78043117 23.67467944 -0.00213958 -0.00812454 -0.00172661
O 6.72723026 1.12259798 0.62177043 0.00087397 0.00688397 -0.00473827
O 2.03758566 5.22076702 25.58451377 -0.00299042 0.00036538 0.00916635
O 1.82739754 11.79407951 23.66429058 0.00115607 0.00342296 0.00366804
O 6.52957083 7.53689023 15.85536122 -0.00001082 0.00044278 0.00107732
O 2.25131163 11.70251817 15.44313395 0.00175235 0.00063960 0.00248864
O 6.64683554 7.83350867 24.16444878 0.00578301 -0.00492946 -0.00094453
O 6.23384418 1.60003155 25.00574217 -0.00085276 -0.00280537 -0.00068987
O 2.50290016 5.03776754 0.90051215 -0.00037311 0.00070715 0.00356587
O 6.02415212 15.69443604 6.85999890 0.00062793 0.00570638 0.00410728
O 2.64268121 16.86488579 14.89531287 -0.00277547 -0.00163982 -0.00201842
O 1.41596796 22.91838217 0.95270976 -0.00188019 -0.00683863 0.00438687
O 6.79877603 22.22860613 9.72130452 0.00273506 0.00220061 0.00399931
O 2.64339865 22.97698377 9.29444705 0.00029748 -0.00894009 0.00040275
O 6.07669386 21.87496856 1.16573870 0.00497834 0.00034816 -0.00058261
O 6.57993975 15.38698568 15.13048241 -0.00090554 -0.00669851 -0.00231503
O 1.50884412 16.43236897 6.61184153 -0.00251084 -0.00289298 -0.00140112
O 6.65920617 13.82559853 17.11347460 0.00615966 0.00489192 0.00000419
O 2.05860748 17.86965839 8.78228370 0.00398939 -0.00073719 -0.00423102
O 2.13034387 24.12740175 7.06094567 -0.00528208 0.00043288 0.00307321
O 6.94923899 20.26161041 32.14970448 0.00490603 -0.00252623 0.00658980
O 2.12506788 24.17664103 31.72322702 -0.00653021 0.00639764 0.00156334
O 6.44732329 20.68156568 7.54944520 -0.00333019 -0.00318525 0.00086534
O 6.58573078 14.11604612 8.94013195 0.00445029 -0.00401184 0.00393976
O 1.93142686 18.11188225 17.16014643 -0.00225567 -0.00320180 0.00221579
O 5.67299837 15.93987755 23.33642879 0.00395148 0.00551831 0.00174580
O 3.04297293 16.50515993 31.45186690 0.00286462 0.00194572 -0.00354356
O 1.15181658 23.23142402 17.31191535 0.00152882 0.00168810 0.00409630
O 6.73867758 21.93982641 25.94760763 0.00127060 -0.00395611 -0.00151975
O 3.07162382 22.88381839 25.77842959 0.00451367 0.00145286 0.00561596
O 5.72396767 21.97103225 17.80306470 -0.00476738 -0.00272883 0.00271822
O 7.98980402 15.62395777 31.33058257 -0.00031439 0.00164507 0.00010911
O 1.60887505 16.20035830 23.21420073 -0.00215251 0.00358635 -0.00005305
O 7.03064616 14.14872259 0.85737796 -0.00421859 -0.00010608 0.00258529
O 2.13031088 17.75243171 25.13314761 0.00177674 0.00184946 -0.00209358
O 3.26243582 24.00985131 23.40884081 -0.00373690 -0.00003631 -0.00163652
O 6.20314540 20.43795836 15.84515000 0.00072477 -0.00195630 -0.00011081
O 2.32680958 24.82443957 15.27712149 -0.00527986 -0.00078174 0.00090569
O 6.17465204 20.25178842 24.03782137 -0.00048019 0.00223977 0.00739719
O 6.18870170 14.09017806 25.43326356 0.00218248 -0.00750450 0.00692765
O 2.21065680 17.85116287 0.48950684 -0.00063299 -0.00282605 -0.00410566
O 14.05109918 2.71646849 6.61653137 0.00318768 -0.00026073 0.00226583
O 11.52019458 3.49934857 15.22780540 -0.00601066 0.00178331 -0.00093626
O 10.11181391 10.25728770 1.62057197 -0.00672321 -0.00203037 0.00543327
O 15.03985222 9.43340822 9.07539380 0.00100487 0.00619934 -0.00059675
O 10.73821005 10.09909958 9.84049200 0.00548619 0.00256671 0.00034739
O 14.24838098 9.02722571 1.02624227 -0.00296296 -0.00049617 -0.00071980
O 15.39065701 3.06533168 15.04022826 0.00276531 -0.00652295 0.00112752
O 9.61574024 4.09796462 6.88775600 -0.00569477 -0.00009459 0.00593973
O 14.98598536 1.41708839 17.05039648 -0.00017060 -0.00131949 0.00246260
O 10.50184448 5.21021248 9.14904679 -0.00411862 0.00043997 0.00391430
O 10.46242657 11.73847564 7.75316639 -0.00455981 0.00217270 0.00418284
O 14.93084651 7.71912867 31.88639790 -0.00127546 0.00132737 0.00358306
O 11.32916449 11.56580734 32.30493793 -0.00201411 -0.00226790 -0.00654348
O 15.27639980 7.70777361 7.13816907 -0.00455658 -0.00856062 -0.00340911
O 14.40993519 1.51472728 8.85697825 0.00650066 0.00010669 0.00692170
O 10.93520406 5.07287267 17.06609455 0.00728858 0.00317265 0.00423770
O 14.65069006 2.63827392 23.29110525 0.00109901 0.00375042 0.00578780
O 11.38270411 3.73279466 31.58347763 0.00233137 -0.00110011 0.00132569
O 10.38968986 9.70007748 18.37830303 0.00541299 0.00052874 -0.00375474
O 15.36027839 9.06103811 25.40013140 -0.00121198 -0.00023775 0.00059933
O 10.83793903 10.08896517 26.17231101 -0.00355435 0.00371411 -0.00301133
O 14.02959875 8.65948114 17.73966677 0.00733045 -0.00683465 -0.00200825
O 15.94380534 2.65729078 31.60550213 -0.00425476 -0.00293153 0.00277639
O 9.64765151 3.78878110 23.10674114 -0.00322309 0.00381098 0.00037416
O 15.23730819 1.11154769 0.70515236 0.00151114 -0.01139886 0.00650876
O 10.67060673 5.22134699 25.19775804 -0.00514093 -0.00030980 -0.00527057
O 10.90116487 11.79094979 24.36524754 -0.00071244 0.00777699 -0.00379903
O 14.76186803 8.07959552 15.43997564 -0.00168358 -0.00221604 0.00051190
O 10.23615588 11.11603229 16.21895493 -0.00108826 -0.00449080 -0.00215351
O 14.70406409 7.35249824 23.57682472 0.00009899 -0.00443508 0.00222342
O 14.94643253 1.13210916 25.37821891 -0.00185363 -0.00239363 -0.00312577
O 10.58172427 4.95738859 0.82452908 0.00146121 -0.00026010 0.00087127
O 14.32977190 15.47161939 7.15355269 0.00445782 0.00192071 -0.00407680
O 10.75832661 16.39456810 15.42353418 -0.00133669 0.00884548 -0.00753293
O 10.38540802 22.84348414 1.29701686 0.00051507 -0.00165842 0.00965699
O 15.34051583 21.84899823 9.28388513 -0.00529112 -0.00181956 0.00092923
O 11.08480240 22.90776201 9.20872468 -0.00070524 0.00099607 0.00074656
O 15.35214236 21.58157735 0.80557893 0.00004084 0.00707510 -0.00214619
O 15.61253710 15.38384879 15.66461470 -0.00024940 0.00049672 -0.00332019
O 9.86702930 16.97100992 7.28009850 0.00338664 -0.00275857 0.00252284
O 15.08591435 13.88230277 17.70853480 -0.00191601 0.00365491 0.00559691
O 10.59661850 18.26378565 9.39956444 0.00444442 0.00512927 0.00049365
O 10.62987255 24.52192874 7.33037434 -0.00271075 -0.00260331 0.00107618
O 15.60794843 20.31808326 31.28867337 -0.00275654 0.00026492 -0.00451716
O 10.85836551 24.49085124 31.97832385 0.00323161 -0.00028965 -0.00120190
O 14.45011899 20.57889908 6.98954317 0.00388984 -0.00351784 -0.00379531
O 14.54852501 14.24920741 9.43939130 -0.00475874 0.01143453 0.00107301
O 10.74155359 18.14379934 17.22347026 0.00339538 0.00091215 -0.00113018
O 14.52543710 15.57120588 23.81861629 -0.00455536 -0.00649522 -0.00510243
O 11.75467479 16.63739286 31.63928664 0.00142780 0.00007835 -0.00210693
O 10.02411150 22.99011173 17.50144783 0.00552474 -0.00539543 0.00002557
O 15.52623017 21.83655758 25.36187254 0.00311653 -0.00241714 -0.00012488
O 11.43253979 23.10680285 25.77681827 -0.00158654 -0.00039158 0.00152394
O 14.46222531 21.68562421 17.23965905 -0.00682005 0.00014373 -0.00363303
O 15.75689411 15.23804043 32.08415633 -0.00607924 0.00369778 -0.00047505
O 10.28756239 16.53416331 23.39810155 -0.00693058 0.00144456 0.00686781
O 14.71348527 13.64648321 1.24924528 -0.00130356 -0.00248716 -0.00059002
O 10.52802504 18.10885680 25.67917377 0.00608294 0.00184315 0.00155453
O 10.63187218 24.52810274 23.64395645 0.00553281 0.00545706 0.00236328
O 15.04496568 20.17801764 15.18726839 -0.00197677 -0.00267003 0.00739255
O 10.72595065 24.23594101 15.43207195 0.00545480 0.00093691 0.00444504
O 14.89629085 20.35015749 23.42676697 -0.00575258 0.00269937 0.00486029
O 15.23588444 14.11780101 25.87959942 0.00118857 -0.00255878 0.00361251
O 11.50386502 17.78409957 1.13925918 -0.00550479 -0.00156619 0.00067998
O 23.40795884 2.81079652 6.63455362 0.00650183 -0.00136146 0.00415357
O 19.73682711 3.50398336 14.95177593 0.00078484 0.00119870 0.00438265
O 19.09616007 9.59573485 1.53024698 0.00145706 -0.00089125 0.00215886
O 23.66277918 9.36439208 9.24479993 0.00601491 -0.00180333 0.00215199
O 19.22170955 10.21019886 9.85737634 -0.00232626 0.00164161 -0.00209029
O 22.96970337 8.86004390 1.35681368 -0.00296262 -0.00470713 0.00316158
O 23.81204499 2.26646100 14.71515549 0.00186297 0.00369409 0.00645954
O 18.30509904 3.88746764 6.76789628 -0.00226986 0.00499362 0.00183128
O 23.25710013 1.28204852 16.99584909 -0.00293461 0.00093670 -0.00115055
O 18.79409735 5.42246091 8.85354301 0.00604816 0.00139597 0.00672811
O 19.04322300 11.56704718 7.70662504 0.00420925 0.00164520 0.00015610
O 23.28835644 7.63270849 32.02704446 -0.00084196 -0.00025258 -0.00421543
O 19.19242528 11.40444580 32.55205079 0.00026671 -0.00176242 -0.00165101
O 23.40827550 7.33744486 7.41942385 -0.00036528 0.00006948 -0.00044306
O 23.68666322 1.03999598 8.57500661 -0.00337905 -0.00034858 0.00847772
O 19.81957189 4.98516970 17.11184033 -0.00223818 0.00201053 0.00257652
O 22.95119484 2.91974294 23.15932863 -0.00021918 0.00379523 0.00914913
O 19.91837281 3.67699649 31.33438341 -0.00118608 -0.00615406 -0.00254152
O 18.96070022 9.64774133 18.27207561 0.00658812 0.00404719 0.00159509
O 24.21275171 9.36995812 25.88900603 -0.00328509 -0.00118286 -0.00122681
O 20.16025973 10.02326397 26.29036172 0.00266156 0.00351125 -0.00183014
O 23.53129379 8.84080828 17.65479694 -0.00897312 0.00254561 0.00328202
O 23.81299348 2.72237330 31.41479983 -0.00144860 0.00141032 -0.00319445
O 19.10969076 3.43693168 23.31552119 0.00253907 -0.00266430 -0.00390209
O 23.61264967 1.11410739 0.55738310 0.00477684 0.00181977 0.00122444
O 19.46676507 5.09829533 25.22027260 -0.00266744 -0.00264123 -0.00290661
O 19.58591402 11.53554631 24.41329596 -0.00301044 0.00039521 0.00180711
O 23.64100136 7.66937487 15.42622577 0.00469635 0.00024223 0.01007943
O 18.71779243 11.14097067 16.10549315 0.00028047 -0.00194867 -0.00089831
O 23.75282447 7.51342189 23.87839166 0.00147136 -0.00085672 0.00553218
O 23.25241148 1.16805329 25.07427992 0.00181628 -0.00221983 -0.00110266
O 19.22692035 5.06234912 0.54440876 -0.00470587 0.00274506 -0.00056116
O 22.89975445 15.55889383 6.49320924 0.00923624 -0.00107880 0.00215636
O 19.73675227 16.21906862 14.98232275 0.00027439 0.00533239 -0.00291036
O 19.21856422 22.83306724 0.84666869 -0.00033415 0.00185291 0.00017149
O 24.23246277 22.49845490 9.58295788 -0.00307352 -0.00058259 0.00586032
O 19.40695464 23.06540851 9.30091649 0.00082737 0.00124556 -0.00167046
O 22.98928002 21.48591430 1.26112048 0.00050743 -0.00115797 -0.00265402
O 23.74710876 15.41423624 14.90945970 -0.00315293 0.00388137 -0.00319022
O 18.62132961 16.66292999 7.19853203 -0.00012607 0.00038868 0.00048627
O 24.15782620 14.14538067 17.17277032 0.00232544 -0.00311092 0.00268007
O 19.12326107 18.22722448 9.14424519 0.00241406 -0.00561798 -0.00166510
O 19.45205548 24.58037964 7.30454158 -0.00449717 0.00006311 -0.00142482
O 23.67330009 19.93369027 32.02908146 0.00382833 0.00706501 0.00237393
O 19.43223857 24.49499761 31.80047932 0.00120360 0.00697539 -0.00100014
O 24.17218092 20.57834850 7.54588447 0.00183954 0.00038516 -0.00693693
O 23.16802786 14.17274068 8.62732688 -0.00558411 0.00430505 -0.00209880
O 19.32791214 17.91072792 17.00600499 -0.00118454 0.00046812 0.00529286
O 22.60417211 15.49883894 23.10445182 -0.00141996 0.00784637 0.00345565
O 19.58363833 16.70314070 31.58329449 0.00359205 0.00128577 -0.00162053
O 18.33675468 22.78984273 17.58740171 0.00077170 -0.00211670 0.00136690
O 24.31830477 21.86151219 25.99386284 0.00759774 0.00390201 0.00279169
O 19.93491889 22.99632039 25.64410167 -0.00624397 -0.00014777 -0.00062456
O 22.82252125 22.01725413 17.59820015 -0.00108453 0.00668024 -0.00356254
O 24.22305306 15.10039227 31.49331685 -0.00114255 0.00272364 0.00160016
O 18.77977361 16.26803325 23.19452029 0.00281638 0.00201942 -0.00398710
O 23.45407260 13.81710234 0.70962533 0.00618828 -0.00896915 0.00168498
O 19.34076172 17.97014965 25.24125070 -0.00297228 0.00242400 -0.00035057
O 19.10356961 24.17701036 23.66023072 -0.00664350 -0.00276500 0.00650657
O 23.10112630 20.40706322 15.63377264 0.00085090 0.00287492 0.00791201
O 18.71616077 24.21093321 15.53854009 0.00168307 -0.00855928 -0.00565005
O 23.82738618 20.32514943 23.65402314 -0.00379972 0.00013038 -0.00187749
O 23.46266823 14.18701498 25.17668432 -0.00393467 0.00758829 0.00405107
O 19.17835881 17.89580439 1.06748937 -0.00586587 -0.00128204 0.00075333
N 7.85429900 12.85306369 2.57828268 0.00319551 0.00245551 -0.00041307
N 0.69017709 6.22884604 10.88085840 0.00324112 0.00213388 -0.00236485
N 3.31099452 25.28673767 5.48387591 -0.00072586 -0.00081329 -0.00027225
N 5.19349388 6.55676125 14.28578097 -0.00442921 -0.00273738 -0.00662892
N 0.74052386 0.08738518 13.89237523 -0.00187600 -0.00279717 0.00163513
N 7.38884198 6.23379980 6.04996197 0.00372602 0.00445955 -0.00008290
N 5.34556684 12.90690596 10.44653050 -0.00533041 -0.01170455 0.00455496
N 3.28052182 6.32397041 2.69081713 -0.00215526 0.00286287 0.00053762
N 7.58005322 12.88535164 19.01867961 -0.00691928 -0.00058322 -0.00034704
N 0.78256768 6.30970763 27.16070623 -0.00109699 -0.00379610 0.00052775
N 3.45208388 25.54960777 21.80639174 -0.00046209 0.00500572 0.00172755
N 5.24909982 6.77216617 30.64034153 -0.00045283 0.00056465 0.00153513
N 1.09759158 25.56042619 30.18736794 -0.00115803 0.00102606 0.01487100
N 7.66963504 6.42387748 22.68316589 -0.00300765 -0.00216575 -0.00438911
N 5.51014612 12.88859930 27.26254427 0.00142181 -0.00379062 0.00321742
N 3.49175077 5.85826455 19.18398114 0.00150180 0.00492816 -0.00438131
N 7.66304977 25.45625299 2.34230993 -0.00559489 0.00228789 -0.00474022
N 0.93891604 19.19624851 10.29170536 0.00056268 0.00629254 0.00682597
N 3.54899405 12.43209613 5.88267576 0.00690282 0.00259382 -0.00069291
N 5.04400403 19.37431644 14.13201380 -0.00466659 0.00209024 -0.00244479
N 1.05465452 12.91663410 13.88095485 -0.00540965 0.00753621 -0.00223406
N 7.37421778 19.31796571 5.89106240 0.00338953 0.00073961 0.00321763
N 5.31800041 25.38925490 10.39526047 0.00152574 0.00924217 -0.00594169
N 3.18043043 19.13108819 2.11329679 0.00371158 0.00724164 -0.00283396
N 7.40134409 0.03573030 18.69395472 -0.00480694 -0.00177277 -0.00127041
N 1.21773742 18.98902342 26.85053298 -0.00387690 -0.00597538 -0.00053421
N 3.22899428 12.78595054 22.16722655 0.00157154 0.00196563 0.00291799
N 5.69952842 19.10417441 30.59204527 0.00963073 0.00537251 0.00503104
N 1.25959449 12.93795384 30.39237254 -0.00915957 -0.00293073 0.00323747
N 7.48195096 19.35740282 22.36340814 0.00546370 0.00610308 0.00076015
N 5.32653626 0.41363443 26.72851394 0.00410100 0.00467745 -0.00249370
N 3.28538748 18.93215223 18.84441632 -0.00059011 -0.00099892 0.00126198
N 16.09972697 12.68516978 2.70527926 -0.00581119 0.00404729 -0.00219247
N 9.33911705 6.20118146 10.88855087 0.00329728 -0.00004633 -0.00214350
N 11.93322750 0.01835806 5.83368820 0.00083039 -0.00377946 -0.00889939
N 13.85243465 6.81807822 13.76635520 -0.00116328 -0.00498352 -0.00284147
N 9.28147332 25.21408810 13.99439567 0.00295860 -0.00031249 0.00321645
N 16.12476083 6.41391345 5.47940992 0.00239721 0.00747514 0.00371209
N 13.57833212 12.99968490 11.12341287 0.00165762 -0.00260367 0.00504212
N 12.10696445 5.82260904 2.24222468 -0.00296747 0.00250153 0.00863827
N 16.04988090 12.64391331 19.44836255 0.00554367 -0.00191919 0.00165654
N 9.52785981 6.16424603 26.94439353 -0.00431342 -0.00417396 -0.00755732
N 11.88458889 0.06692681 22.11534449 -0.00740369 0.00311735 -0.00810853
N 13.76654459 6.80604750 30.16696453 0.00329515 -0.00108382 0.00524592
N 9.34400604 25.24362049 30.43844147 0.00206829 -0.00055142 -0.00145158
N 16.19000874 6.38369856 22.10913182 0.00029339 -0.00148386 -0.00507070
N 13.75775488 13.17774815 27.33649798 0.00542367 -0.00314234 -0.00738398
N 11.96760031 6.28046916 18.79586081 -0.00312920 -0.00939593 0.00109180
N 16.28357545 0.01134084 2.38399813 0.00026595 -0.00244805 0.00600613
N 9.18361284 19.19362517 10.86665560 -0.00340015 -0.00020613 0.00598336
N 11.95737534 12.68813550 6.20747229 -0.00532248 -0.00250625 -0.00512254
N 13.40173146 19.38826658 13.82421014 -0.00727745 -0.00263707 -0.00307071
N 9.39688241 12.61837542 14.59836260 0.00230059 0.00124371 -0.00043788
N 16.11108373 19.46175857 5.87816988 -0.00186549 0.00780462 -0.00219182
N 13.56369029 0.21348663 10.60308342 -0.00123751 0.00493209 -0.00300281
N 12.36847677 19.04526187 2.87023689 0.00298373 -0.00182886 0.00647611
N 16.20451541 0.23995185 18.67706399 -0.00374234 0.00678067 -0.00558348
N 9.56515567 19.33342661 27.29876154 -0.00666062 -0.00743797 -0.00370626
N 11.73955781 13.02436168 22.69367496 0.00367666 -0.00381832 -0.00058068
N 13.94881080 19.35720967 30.03576241 0.00505454 0.00307790 -0.00135927
N 10.33777434 13.00959017 30.90224958 0.00294744 0.00290831 -0.00850483
N 16.37841673 19.37825447 21.94947763 -0.00560747 0.00262717 0.00428314
N 13.56158392 0.32556425 27.12175398 0.00510330 -0.00539044 -0.00156743
N 11.80410819 19.42530046 18.81834717 0.00030264 -0.00019653 0.00119639
N 24.73703967 12.69211243 2.24861871 0.00620496 -0.00275733 -0.00124411
N 17.84933049 6.52076624 10.63517372 -0.00555021 0.00159555 0.00150959
N 20.53437386 25.55476100 5.48741385 -0.00722465 -0.00081330 -0.00091683
N 22.63081938 6.37916172 13.84463614 -0.00311860 -0.00364848 0.00045700
N 17.66673733 25.40414324 13.93193500 0.00220631 0.00216903 -0.00426934
N 24.75630291 6.19203029 5.91914470 0.00189009 0.00545333 0.00112460
N 22.46841513 12.72545467 10.23436230 -0.00064906 -0.00360840 0.00040963
N 20.41584558 6.04925152 2.13606851 -0.00619203 -0.00270039 0.00099030
N 24.61840997 12.72927822 18.84632010 0.00353846 0.00083711 -0.00144042
N 18.21709437 6.20696856 26.75726237 -0.00257150 0.00222882 -0.00164783
N 20.50606366 25.17385900 22.17489114 -0.00115694 0.00428699 0.00744558
N 22.75034906 6.31764493 30.27655679 -0.00384823 0.00477892 0.00332107
N 18.22722558 0.14214103 30.24117918 0.00725943 0.00155964 0.00225575
N 24.72538756 6.12869575 22.41661155 -0.00188646 -0.00415429 -0.00070068
N 22.95071848 12.59784921 26.75422845 -0.00818127 0.00468907 -0.00502924
N 20.43278265 6.38763875 18.76680889 -0.00034838 -0.00435132 -0.00124914
N 24.55486458 25.40861316 2.13351414 0.00161322 0.00280968 0.00171526
N 18.00474078 19.34631826 10.75479706 -0.00204003 -0.00348366 -0.00378920
N 20.20704477 12.62564665 6.00455106 -0.00316918 -0.00020669 -0.00401977
N 22.36564225 19.37506467 13.78269346 -0.00296019 -0.00410561 0.00060377
N 18.04201097 12.75777361 14.63808365 0.00693376 -0.00993315 0.00542027
N 24.94813149 19.24527582 5.91227289 0.00120144 0.00303833 0.00190599
N 22.13118037 25.55758832 9.91988271 0.00768025 0.00578374 -0.00325770
N 20.53705897 18.92756544 2.52691767 0.00054660 -0.00382389 -0.00148942
N 24.54436114 0.22650485 18.52928412 0.00141106 -0.00572343 -0.00358239
N 18.12111190 19.13714633 26.80270049 0.00241327 0.00074774 -0.00712329
N 20.57447573 12.81565610 22.65443915 -0.00358181 -0.00161700 -0.00010696
N 22.57238880 18.88808117 30.37519663 0.00252794 -0.00121258 -0.00188983
N 18.33189848 12.63040977 30.80819073 0.00087861 -0.00677489 0.00264083
N 25.03907248 19.35280846 21.99982823 -0.00231314 0.00319525 0.00361087
N 22.47224477 25.41042734 26.82892073 0.00288382 0.00202783 -0.00519617
N 20.35895066 19.11184637 18.66167808 0.00183377 -0.00738163 -0.00256155
C 7.65644911 0.27087228 4.75981357 0.00286116 0.00111364 -0.00131825
C 0.86329157 6.01355994 13.27166841 -0.00124604 0.00517928 0.00019583
C 3.56779404 12.20953654 3.41531453 -0.00163869 -0.00234979 -0.00507457
C 5.04252842 6.92675465 11.99314661 -0.00123071 0.00587024 0.00599177
C 0.97984023 12.53093847 11.47378976 0.01114477 0.00206855 -0.00514093
C 7.81762852 6.50617434 3.71687318 -0.00241772 0.00410883 -0.00578076
C 5.17499349 0.13050298 12.70611181 -0.00228611 -0.00110688 -0.00768634
C 3.29297675 5.91945077 5.00855129 -0.00274709 0.00884464 -0.00066322
C 7.22912313 1.03130913 5.85149297 0.00306982 -0.00123121 -0.00216512
C 1.36044700 5.34249446 14.39205447 -0.00270805 -0.00401474 0.00542298
C 3.04765014 11.68384354 2.24680785 0.00297954 -0.00188843 0.00373615
C 5.45791038 7.50200084 10.85107629 -0.00662907 -0.00190822 -0.00220563
C 1.35218323 11.77557509 10.42488127 -0.00371645 -0.01351287 0.00396317
C 7.63068784 7.13318875 2.55829035 -0.00241049 0.00128532 0.00262346
C 5.43881418 0.85039600 13.86408137 0.00492069 0.00664572 -0.00105550
C 3.03085240 5.12984797 6.12034250 -0.00322003 -0.00209759 -0.00001187
C 6.40748991 2.19713995 5.60098479 -0.00749690 0.00084197 0.01194946
C 2.28606735 4.31667223 14.28119201 0.00514566 -0.00209715 0.00517476
C 2.09691625 10.61246200 2.23957683 0.00234356 0.00430240 0.00667152
C 6.26412706 8.69092412 10.88087400 0.00550747 -0.00187349 0.00544363
C 2.20010015 10.61912862 10.50681498 -0.00674957 -0.00342995 -0.00086874
C 6.88560990 8.40328411 2.51359212 0.00420144 0.00203290 -0.00632127
C 6.27183222 2.00594285 13.80396730 0.00225549 0.00602538 -0.00299588
C 2.08380355 4.06694514 6.03752915 -0.00425649 0.00552971 -0.00184511
C 6.31176844 2.69049009 4.29124078 -0.00270618 0.00555836 -0.00490877
C 2.45777721 3.69516486 13.01454364 -0.00263384 0.00105400 0.00465764
C 1.84509581 9.98059345 3.49240157 0.00138286 -0.00996246 0.00520010
C 6.66919328 9.20255486 12.14169522 0.00019858 -0.00100094 -0.00085474
C 2.44840717 10.18060449 11.84217891 0.00058214 0.00043142 -0.00622804
C 6.47267802 8.93393510 3.73924639 0.00272829 -0.00848100 -0.00463966
C 6.45905557 2.60168654 12.52016876 -0.00071389 -0.00292231 -0.00629253
C 1.87554104 3.50218681 4.76831468 0.00649113 -0.00681583 0.01056996
C 6.72128509 1.94019978 3.28348466 -0.00754317 -0.00313498 -0.00184612
C 2.01146959 4.34302865 11.90925520 -0.00454843 -0.00377204 0.00228238
C 2.36805881 10.54373687 4.66754693 0.00172299 -0.00227704 -0.00524379
C 6.28463172 8.50140120 13.33722418 0.00505192 0.00924994 0.00546861
C 2.11779701 10.90028974 12.94200683 0.00285286 -0.00022212 -0.00108376
C 6.66730658 8.26113174 4.99398421 -0.00216209 -0.00121565 0.00304271
C 6.14256601 1.98724558 11.34216975 -0.00079705 -0.00595670 -0.00426915
C 2.21662820 4.24903360 3.62396973 -0.00326091 0.00009715 0.00448656
C 7.40418860 0.71883256 3.46074113 -0.00129066 -0.00221409 -0.00955243
C 1.18580500 5.48043740 12.04590642 0.00880171 -0.00581978 -0.00379398
C 3.15751647 11.70402360 4.69781236 -0.00310686 -0.00146187 -0.00519819
C 5.51874581 7.36979425 13.22357466 -0.00613003 0.00563631 0.00351732
C 1.40096175 12.12753393 12.79638827 -0.00310311 -0.00034867 0.00394178
C 7.33617310 7.01467440 4.94652830 0.00576244 0.01103821 0.00945848
C 5.57124826 0.63875485 11.46541446 -0.00264887 -0.00236845 -0.00266254
C 2.95635994 5.50113958 3.75089772 -0.00477673 0.00411267 0.01060758
C 7.17994377 0.09927451 1.09522648 0.00277681 -0.00125693 -0.00050954
C 1.22060714 6.07684117 9.65113525 -0.00760415 0.00097457 0.00503434
C 2.85039768 12.45407295 7.00127315 -0.00038545 0.00028351 -0.00654757
C 5.79439274 6.58738288 15.50589982 -0.00950697 0.00019468 -0.00234139
C 1.68129957 12.76142455 15.12993214 -0.00492436 0.00945165 0.00825993
C 6.85382989 6.62565125 7.27668082 -0.00311077 -0.00209671 -0.00759881
C 5.68134342 0.12931470 9.07521688 -0.00102576 0.00859371 -0.00315485
C 2.93604416 6.15076598 1.34565717 -0.00706415 -0.00837081 0.00065258
C 6.99829528 11.49324259 17.12396984 0.00123822 -0.00232222 -0.00288214
C 1.04769066 7.34067003 8.75043160 -0.00291103 -0.00184839 -0.00211158
C 2.76369693 0.82353419 7.56204596 -0.00857143 0.00508642 0.00037564
C 5.92531536 5.34450867 32.61200318 -0.00198376 -0.00211731 0.00546697
C 1.24567854 0.73759841 32.42243510 -0.00474043 0.00795524 -0.00095589
C 6.68526500 5.54621576 8.38948578 0.00389436 0.00348945 -0.00936415
C 5.95250549 11.94168951 8.35310884 0.00152115 0.00544739 -0.00332579
C 3.00084649 7.10841071 17.12550074 0.00256171 -0.00152502 -0.00272886
C 7.65920690 0.54621050 21.00563888 -0.00255546 -0.00006725 -0.00218183
C 1.08611346 6.01674284 29.61305752 0.00243871 -0.00885417 -0.00328828
C 3.60794511 12.37624689 19.85377494 -0.00026130 0.00067971 -0.00731816
C 5.30654931 7.14879449 28.20455168 -0.00273612 -0.00687430 -0.00211597
C 0.97644428 12.56530988 28.01639887 0.00195709 0.00075302 -0.00414700
C 7.75874444 6.64139677 20.31978724 0.00392003 -0.00250846 0.00313142
C 5.30538126 0.53800796 29.14771402 0.00180737 0.00050937 0.00775217
C 3.33608699 5.76344410 21.64822036 -0.00034753 0.01215029 -0.00467684
C 7.20001003 1.29869176 22.11579210 0.00673343 -0.00115096 0.00220053
C 1.49390753 5.27601806 30.69978005 -0.00240372 -0.00209496 0.00129091
C 3.37661287 11.72209464 18.72034607 0.00436156 0.00403526 0.00043291
C 5.81352694 7.77904556 27.10377084 -0.00445058 -0.00539992 0.00702951
C 1.28779097 11.90017629 26.88836728 0.00439912 0.00280817 0.00669335
C 7.30752715 7.20604682 19.17909977 -0.00402340 -0.00511148 -0.00460930
C 5.71636321 1.15952706 30.33365793 0.00041484 0.00740836 0.00316208
C 2.80441702 5.21693114 22.72807488 -0.00650080 0.00650242 -0.00097950
C 6.54235966 2.52390356 21.92534789 -0.00446821 0.00287827 -0.01278031
C 2.25631199 4.12037333 30.47228053 -0.00382986 0.00212685 -0.00431929
C 2.40666537 10.64362969 18.65800253 -0.00284953 0.00077523 0.00042061
C 6.81279614 8.81839225 27.23957859 0.00443933 -0.00212151 0.00192490
C 2.11856836 10.76828258 26.84213785 -0.00605842 -0.00401179 0.00254626
C 6.43875727 8.34943236 19.15587543 0.00363415 0.00521938 -0.00035152
C 6.57296696 2.21901923 30.31639386 -0.00276328 0.01078037 0.00670546
C 1.91546679 4.06839890 22.64333913 -0.00335286 0.00747302 -0.00334046
C 6.37468572 2.98845074 20.62289138 0.00560126 0.00089431 -0.00166108
C 2.37747472 3.72195025 29.21690406 0.00140006 0.00568194 0.00180151
C 2.01957889 10.13043838 19.91691333 -0.00044636 0.00068891 0.00083578
C 7.12991716 9.17636591 28.54406490 0.00176724 -0.00170776 -0.00208409
C 2.49717492 10.21973784 28.10885431 0.00284160 -0.00046597 0.00384220
C 6.22177459 9.00197876 20.44571444 0.00455913 0.00193412 -0.00271181
C 6.73254065 2.82163470 29.08362007 0.00104880 -0.00270800 0.00507578
C 1.79829916 3.47313104 21.39221687 0.00683460 -0.00445936 -0.00140758
C 6.68042111 2.22660204 19.50180605 -0.00251240 0.00178665 -0.00222361
C 1.90233076 4.35637493 28.13437791 -0.00645353 0.00397175 -0.00088009
C 2.26372447 10.86563773 21.10590819 0.00637981 0.01025316 0.00429025
C 6.58109491 8.58351280 29.61986292 0.00393191 -0.00060492 0.00170497
C 2.22415309 10.87318371 29.31058113 -0.00564733 -0.00119392 -0.00042379
C 6.75296188 8.46987461 21.60604499 0.00134516 -0.00442100 0.00118698
C 6.22512509 2.40053256 27.91374820 0.00579117 0.00490708 -0.00040338
C 2.41849175 4.02869707 20.30647987 0.00367630 0.00098740 0.00671048
C 7.28565776 0.94398741 19.69627411 -0.00890602 0.00510132 0.00280636
C 1.23446585 5.59272031 28.25745967 0.00481575 -0.00136124 0.00959096
C 2.96493815 12.03986284 21.02302123 0.00542144 0.00334890 -0.00224433
C 5.67161745 7.48951729 29.52803732 0.00029659 -0.00065447 -0.00194761
C 1.48990852 12.07955721 29.26840147 0.00029084 -0.00562614 -0.00715384
C 7.39980520 7.20412955 21.57370650 -0.00116733 -0.00176630 -0.00850464
C 5.62006495 1.11810804 27.93157382 -0.00319767 0.00036573 -0.00105196
C 3.06902732 5.23041241 20.38709290 0.00550386 -0.00227872 -0.00257766
C 6.80801675 0.04557841 17.43636180 -0.00179697 -0.00209387 0.00952697
C 1.33186584 6.18670151 25.94838702 -0.00063982 0.00253438 -0.00538528
C 2.69245319 12.65534045 23.40077019 -0.00153084 0.00019243 0.00074994
C 6.09237898 6.58756083 31.72521029 -0.00582352 -0.00294580 0.00088653
C 1.70941774 12.72640319 31.65892578 0.00047716 -0.00107009 -0.00334186
C 7.10799656 6.72699647 23.88550193 -0.00031454 0.00024337 -0.00127337
C 5.90950599 0.52051438 25.47712533 0.00428181 0.00207760 -0.00248304
C 2.87583019 5.85170734 17.96598562 0.00569792 0.00293902 -0.00316696
C 7.71000713 11.97651977 0.33586328 0.00866357 0.00121640 -0.00601592
C 1.10369642 7.38754563 25.08451335 -0.00231829 0.00006423 0.00544297
C 3.22992244 0.80698007 23.99808150 -0.00359321 -0.00101307 -0.00165793
C 5.66815509 5.39545929 16.37781965 -0.00186107 0.00663172 0.00956532
C 1.21100280 1.09280452 16.00424202 0.00365230 0.00082625 -0.00294425
C 6.98908156 5.47530711 24.76333681 -0.00199764 0.00175968 -0.00144089
C 5.84665867 11.79299286 25.04760790 -0.00349119 -0.00251861 -0.00446865