1920
Time=19999.99999999 pbc="T T T" Lattice="25.62819042 0.00000000 0.00000000 0.00000000 25.71456132 0.00000000 0.00000000 0.00000000 32.79900113" energy=-12251.60714591 virial="-41.50119377 -5.59285118 -14.92054358 -5.59285118 -54.33485764 -20.64810923 -14.92054358 -20.64810923 -36.50300200" stress="0.00026746 -0.00024852 -0.00073123 -0.00024852 -0.00040406 -0.00093653 -0.00073123 -0.00093653 0.00042767" Properties=species:S:1:pos:R:3:vel:R:3
O 5.92999415 2.81123109 7.01093922 0.00393174 -0.00264863 -0.00006753
O 2.74982133 3.25154942 15.10297552 0.00124344 -0.00310863 0.00319649
O 1.49038332 10.07835407 1.16982773 0.00488127 -0.00143711 0.00228593
O 6.90929903 9.27237134 9.51353008 0.00113669 0.00300426 0.00270094
O 2.65139668 10.39935866 9.50495881 0.00100193 0.00352797 -0.00628951
O 5.92773330 9.15045960 1.06126169 0.00090849 0.00528624 -0.00951534
O 6.86997138 2.56924243 15.68097007 0.00428838 -0.00095338 0.00286579
O 2.01121515 3.59068801 6.96255021 0.00409525 -0.00813148 0.00488414
O 6.15112840 0.98377573 17.50821319 -0.00155026 0.00531302 0.00676551
O 2.27963488 5.08019068 9.08405320 0.00259435 -0.00145343 -0.00016740
O 2.26792976 11.69961037 7.16385027 0.00346185 -0.00061835 0.00216543
O 6.39520828 7.29537927 31.88664349 -0.00197901 0.00308564 -0.00115076
O 2.23689533 11.42019468 31.91738958 -0.00467173 -0.00423356 0.00615155
O 6.76185663 7.62972442 7.29048262 -0.00152887 -0.00357068 0.00357106
O 6.61737978 1.63086382 9.32161016 -0.00233217 -0.00046752 -0.00094461
O 2.46289243 4.93845920 17.09868829 0.00022867 -0.00473691 0.00407121
O 5.36249348 2.67878780 23.30775787 -0.00400405 -0.00411401 0.00355937
O 2.76013997 3.54287854 31.23092547 -0.00329947 0.00034873 0.00316885
O 1.83351932 10.10572953 17.52381493 0.00047762 -0.00570139 0.00456277
O 6.92817816 9.19482037 25.82936769 0.00303068 0.01012303 -0.00304127
O 2.98692019 10.11574812 25.81973851 -0.00057476 -0.00402245 -0.00735192
O 5.67412011 9.20492895 17.64820592 -0.00322526 0.00843155 0.00383282
O 7.17945618 2.52760897 31.37556639 0.00203763 0.00450659 -0.00003200
O 1.28998102 3.57799740 23.19276986 0.00225652 0.00157368 -0.00508187
O 6.73260680 1.32142583 0.90763920 -0.00629055 0.00278892 -0.00423978
O 1.71971671 5.10869602 25.29186156 -0.00274513 0.00301569 0.00437961
O 2.58427390 11.17930343 23.71706316 0.00472188 0.00344918 0.00150524
O 5.92219695 7.59281964 15.68789803 -0.00434214 0.00476285 0.00064642
O 2.19362297 11.89885694 15.68780953 -0.00301791 0.00325439 0.00074306
O 6.24922823 7.69650756 23.81211644 -0.00128168 -0.00165227 0.00117564
O 6.07080351 1.20580189 25.28813069 0.00255718 -0.00165391 -0.00178604
O 2.21749314 4.98454074 0.77936899 0.00227721 0.00545234 0.00247670
O 6.22993675 15.35688503 6.75952733 0.00108376 0.00038250 -0.00414087
O 2.60335325 16.07733347 14.98564760 0.00061956 0.00426106 0.00386132
O 1.62333929 23.15535762 1.80762990 0.00735426 -0.00046867 -0.00437399
O 7.14632640 22.06934833 9.04401248 -0.00312413 -0.00284555 0.00338688
O 2.71719297 22.89702907 10.01476655 -0.00291457 -0.00011455 0.00144668
O 5.74493636 22.03369878 1.03799985 0.00375258 -0.00784887 -0.00136762
O 6.77479539 15.54682153 14.91699388 -0.00182428 0.00511582 -0.00117529
O 1.31482605 16.74955429 6.66462384 -0.00252095 0.00373480 -0.00521814
O 6.40021142 13.95147517 16.92447068 -0.00625451 -0.00108896 -0.00215023
O 1.88200407 17.83155750 8.93029755 -0.00325089 0.00582840 0.00071549
O 2.63180984 24.57349724 7.98246394 0.00137689 0.00322886 -0.00464944
O 6.22190807 20.42922183 31.83883508 -0.00032816 0.00766041 0.00020115
O 1.95490693 24.63853553 32.46620847 0.00067542 0.00685385 -0.00059902
O 6.47331340 20.45387546 7.12884175 0.00295808 0.00425565 -0.00011733
O 6.53935598 13.67646853 8.86331721 -0.00212331 -0.00036319 0.00516053
O 2.65111959 17.87040657 16.97008424 0.00160024 -0.00004634 0.00805513
O 5.41989328 15.58233871 22.96381689 -0.00072403 -0.00014706 -0.00028447
O 2.25248594 16.58272199 31.48519321 0.00137880 0.00459546 -0.00468358
O 1.23476589 22.84873926 18.02879157 0.00336496 -0.00073373 -0.00015667
O 6.88071256 22.16906626 25.83922253 -0.00104944 -0.00122587 0.00102011
O 2.14980599 22.51678005 26.45597125 -0.00060633 0.00685057 -0.00124920
O 5.51406257 22.06806256 17.61770804 0.00056696 -0.00312457 0.00094815
O 6.42211912 15.62893948 31.39279794 -0.00236509 -0.00165495 0.00807150
O 1.44861896 16.89220796 23.23236203 0.00741641 -0.00465157 0.00014084
O 6.39534318 13.73438603 0.42329983 0.00093816 0.00194339 0.00292109
O 1.98550350 18.23333185 25.41094777 0.00138723 -0.00409744 -0.00033190
O 1.96660053 24.35530509 24.13931205 -0.00207068 0.00241034 0.00556461
O 5.54089957 20.59727313 15.48427157 -0.00275189 0.00494594 0.00162479
O 1.66349422 24.38243238 16.24903587 0.00772023 -0.00156754 -0.00363537
O 6.69955413 20.62954344 23.80255175 0.00307528 -0.00161336 0.00303608
O 5.61831105 14.18535726 25.18187319 -0.00293127 -0.00209044 0.00124636
O 2.00500729 18.24153377 0.66916052 -0.00255279 0.00054682 -0.00153489
O 14.73450016 2.49327585 7.55107128 -0.00601617 -0.00660876 0.00100212
O 11.45584089 3.71139545 15.20429138 -0.00449372 0.00326251 0.00367294
O 10.61695774 10.42719956 0.88738977 -0.00701958 0.00339219 -0.00142157
O 15.50339574 8.98748291 8.98456862 0.00587328 0.00520873 -0.00050162
O 11.14494604 10.29559363 9.54098030 0.00440256 -0.00033795 -0.00280454
O 14.58842147 9.69516424 1.18859006 -0.00054519 -0.00832805 0.00322409
O 15.47327457 2.58597711 15.44968930 0.00840682 -0.00787034 -0.00082099
O 10.23306864 3.88908176 7.05859371 0.00393866 0.00303337 -0.00284613
O 15.78394810 1.03635189 17.55831616 -0.00062597 -0.00342813 0.00311127
O 10.68523121 5.54789427 9.08625766 -0.00220191 0.00123391 -0.00227147
O 10.55592271 11.55380214 7.34781338 -0.00628741 -0.01008769 0.00247518
O 14.88112496 7.94206221 32.01411667 -0.00254976 0.00104928 -0.00142106
O 11.08279979 11.92022650 31.69657499 -0.00204019 0.00338219 -0.00747132
O 14.57375686 7.38046295 7.25449092 0.00570827 0.00031973 -0.00162989
O 15.18418909 0.83971128 9.40591512 0.00302093 -0.00177860 -0.00426925
O 10.70110277 5.11139041 17.26737960 0.00159478 0.00031853 -0.00340232
O 14.11533210 2.79565815 23.60273623 0.00128001 -0.00139836 -0.00069073
O 11.33360849 3.64082580 31.44358895 0.00016863 -0.00241639 0.00231353
O 10.21535598 10.33481713 17.53200385 0.00173055 0.00541024 0.00102022
O 15.44743042 9.26313608 25.72512791 -0.00312581 0.00474953 -0.00547003
O 11.33640209 10.31015424 25.48086190 0.00226914 0.00056186 0.00397730
O 14.81013224 9.21991192 17.23024411 0.00008297 -0.00036065 0.00348372
O 15.23325656 3.06059441 32.10599918 0.00764952 -0.00310225 -0.00608700
O 10.01475173 3.50854715 23.31476656 0.00067823 -0.00644020 -0.00400365
O 14.87956567 1.11759508 1.14220653 0.00250310 -0.00136061 0.00009647
O 10.61699075 5.17339002 25.25290583 -0.00092392 0.00884271 -0.00150955
O 10.66542301 11.89480263 23.60205142 0.00472351 0.00334568 -0.00034822
O 15.42689155 7.65615367 15.26579543 -0.00314023 -0.00059180 0.00761413
O 11.04930805 11.81979265 15.69224557 -0.00137591 -0.00287825 -0.00519300
O 15.12107658 7.67808283 23.53484072 0.00559144 0.00736472 -0.00313422
O 14.49746547 1.60752866 25.95364715 0.00793339 -0.00347038 0.00428377
O 10.73478313 5.11905696 0.75924697 -0.00515821 -0.00199492 -0.00389370
O 15.25155333 15.47962314 6.79535705 -0.00232592 0.00325940 0.00133722
O 11.41207479 16.73859942 15.02579511 -0.00580466 0.00250782 0.00300468
O 10.10257818 23.04704799 1.33057135 0.00038453 0.00612976 -0.00132808
O 15.86953000 21.92708981 9.33756403 -0.00228426 0.00826274 -0.00483360
O 11.11077068 22.93529307 9.52774912 0.00289961 -0.00199972 0.00004227
O 14.26247134 21.91570595 1.20626206 0.00691966 0.00028624 -0.00109808
O 15.42207362 15.56401791 14.96685716 -0.00039726 0.00192986 -0.00506505
O 10.28812449 16.47592149 6.76099809 -0.00407974 -0.00345904 0.00315147
O 14.73000268 14.22509097 16.90767922 0.00512148 -0.00439648 -0.00372796
O 10.75411164 18.05371058 8.69284607 0.00488258 0.00087100 0.00023645
O 10.63352245 24.48092776 7.42657957 0.00396429 -0.00174386 -0.00007677
O 14.94260890 20.58015349 31.85863931 -0.00078421 -0.00564946 -0.00285469
O 10.45814877 24.58348953 32.15098860 -0.00074270 0.00264241 0.00333150
O 14.67078908 20.45606457 7.45467546 0.00096056 -0.00135804 0.00420661
O 15.08156579 13.95415800 8.82936656 0.00210819 -0.00253268 -0.00676372
O 10.79331688 18.22747699 17.04346228 0.00197352 0.00214341 0.00362240
O 14.77117024 15.90079243 23.06001886 0.00271501 0.00201046 0.00674116
O 11.01236881 16.64853953 31.46514227 0.00161302 0.00243763 -0.00262954
O 10.10185925 23.05160790 17.66260117 0.00170085 0.00362934 -0.00311612
O 15.32970731 22.26125331 25.85269876 0.00364405 0.00525284 -0.00048222
O 10.87229376 22.54205821 25.96285303 0.00153684 -0.00419402 0.00335143
O 14.86235143 21.82002117 17.50006332 0.00272073 0.00137417 -0.00334551
O 15.29892097 15.82971796 31.19358323 -0.00734905 0.00012194 0.00405410
O 9.97644872 16.40993111 23.00950908 0.00005895 0.00550435 -0.00605656
O 14.85193005 14.38158299 0.29097615 -0.00567392 -0.00183286 -0.00572450
O 10.19948997 17.81417782 25.13976199 -0.00665031 0.00684779 0.00376061
O 10.90472477 24.25518231 23.89491038 -0.00152676 0.00000959 0.00028605
O 15.36466363 20.22594906 15.40453469 -0.00422573 -0.00754058 0.00352543
O 10.83108528 24.43624161 15.63718443 -0.00127468 -0.00895656 -0.00402719
O 15.09091258 20.61401806 23.79356006 -0.00234927 -0.00694231 -0.00190575
O 14.83914270 14.16640112 25.02374178 -0.00177464 0.00155956 0.00728789
O 10.77399644 18.23594172 0.73923225 0.00791936 0.00091087 -0.00412620
O 22.73084566 2.71781702 7.15123990 0.00215317 -0.00116191 0.00164147
O 19.85656512 3.41577075 15.28846250 0.00177716 -0.00048253 -0.00686818
O 18.57948773 10.31446366 0.84331328 -0.00160159 -0.00019884 0.00025067
O 24.06331995 8.89092015 9.37354965 0.00194519 0.00256032 0.00822821
O 19.93597106 10.08122817 8.95158803 -0.00216751 -0.00082384 0.00021248
O 22.62739955 9.31014103 1.55122093 -0.00090292 -0.00551724 -0.00670990
O 24.35294629 2.80852471 15.21434548 -0.00199165 0.00567544 0.00098951
O 18.76594474 3.68202653 7.15685983 -0.00426160 -0.00336130 0.00190177
O 23.95800222 1.35363362 17.28218149 0.00361018 0.00039892 -0.00089229
O 18.97417353 5.30854527 9.21889484 -0.00496793 0.00127891 0.00364067
O 18.84151151 11.52699958 7.04889266 0.00278425 -0.00519621 0.00318828
O 23.10344315 7.87184801 32.33777963 -0.00316962 -0.00139287 0.00197827
O 19.29962393 11.78785579 31.82291077 -0.00374139 -0.00342736 -0.00514362
O 23.39400119 7.39186790 7.49048995 0.00120667 -0.00056018 0.00579441
O 23.37732146 1.33699285 9.19500563 0.00183554 0.00245358 0.00454063
O 19.54296061 4.56533978 17.62348624 0.00874892 -0.00078590 -0.00331888
O 22.96567098 2.82648405 23.45082589 0.00451186 -0.00377734 -0.00037166
O 19.22623126 3.78063907 31.71440518 0.00772232 0.00162235 -0.00491358
O 18.32217013 10.31732585 17.33048784 0.00162189 0.00101214 -0.00059921
O 23.85189219 9.58526968 26.17811309 -0.00361453 -0.00186536 0.00310898
O 19.86695631 10.60164293 25.57372309 -0.00289161 -0.00079515 -0.00755757
O 22.82931606 9.14841144 18.14114098 0.00043422 0.00018848 0.00227815
O 23.87008346 2.90774338 31.86552307 0.00609548 -0.00370492 0.00704496
O 18.95435852 3.58581380 23.75384953 -0.00310113 -0.00011772 0.00574541
O 23.92912965 1.13028617 0.98538518 0.00083137 0.00079460 -0.00470539
O 19.66754578 5.30169110 25.56535532 -0.00368452 0.00064728 -0.00562727
O 19.13833994 11.55924118 23.33657026 -0.00916529 -0.00368092 0.00326888
O 23.15361783 7.67768066 15.83106054 -0.00022674 0.00281956 0.00173170
O 18.70005887 11.47250295 15.04644593 0.00280689 -0.00352327 -0.00270871
O 24.05318530 7.70428186 24.15908135 0.00288575 0.00093554 -0.00536893
O 23.04282412 1.14315797 25.53057643 -0.00032365 -0.00453130 -0.00088459
O 18.75537273 5.27423161 1.01587802 -0.00491247 0.00128221 0.00324102
O 22.69385427 15.75943763 6.67315723 -0.00086998 -0.00105554 -0.00455346
O 19.64950628 16.69709186 15.16581711 -0.00108088 0.00269094 0.00228758
O 18.72199763 23.06946975 1.45111543 -0.00314662 -0.00606698 0.00131214
O 24.45421623 21.84640036 9.55197960 0.00350250 0.00675045 0.00311593
O 19.87970215 22.86429506 9.85956464 -0.00296042 0.00129116 -0.00041921
O 23.21947102 22.13508971 1.52616524 -0.00255571 0.00187055 -0.00097687
O 23.59738512 15.43026821 14.82070558 0.00196447 -0.00213465 0.00266701
O 18.56971934 16.29933482 7.19187505 -0.00231674 -0.00021895 -0.00791021
O 23.54165397 13.95309968 16.80055669 -0.00029816 0.00358951 0.00139964
O 19.18250596 18.03417915 9.15929284 -0.00388692 -0.00213357 -0.00192594
O 19.64489161 24.44744160 7.59673007 -0.00339073 -0.00960682 0.00033855
O 23.84153794 20.44903202 32.22844418 -0.00496091 -0.00510030 0.00071258
O 19.13052016 24.61919575 32.31367187 -0.00428973 -0.00062109 -0.00592062
O 23.50411177 20.47628392 7.45551109 0.00118241 -0.00488623 -0.00576203
O 23.56528607 13.80793236 8.56730718 -0.00110549 0.00783632 0.00101493
O 18.95535283 18.04943758 17.45723090 0.00147386 0.00198038 -0.00032540
O 23.24535488 15.69299776 22.97951536 0.00441944 -0.00343879 0.00045236
O 19.97987709 17.17132752 31.79658004 -0.00297871 -0.00569452 -0.00601766
O 19.09893892 22.89152691 17.91016836 0.00359984 0.00288607 0.00259306
O 23.80755545 21.91547881 26.11429716 -0.00265746 -0.00812598 -0.00529564
O 19.64756157 22.70360863 26.23040024 0.00153461 0.00566152 -0.00353037
O 22.67157225 21.98011527 17.65663566 0.00361818 -0.00052994 -0.00217953
O 23.55872550 15.73585608 31.21309888 -0.00161030 0.00376668 0.00140941
O 19.23346633 16.22976612 23.60873894 0.00363183 0.00308064 -0.00792337
O 23.77144018 14.16103082 0.54390292 -0.00164997 -0.00148638 -0.00152236
O 19.34467494 18.03893452 25.42734325 -0.00062386 -0.00359391 0.00140618
O 18.99124968 24.45625979 24.05732370 -0.00247735 0.00248462 0.00555002
O 23.04377948 20.46011457 15.60709153 0.00314201 0.00527634 -0.00103859
O 19.50170983 24.50038943 16.01993856 -0.00131679 0.00044738 0.00366731
O 23.28696320 20.49469724 23.85046599 0.00121067 -0.00433707 -0.00627836
O 23.81486020 14.12393547 24.92664444 -0.00068709 0.00299007 -0.00132526
O 19.01398536 18.58871205 1.29654245 0.00325769 0.00300026 -0.00321829
N 7.11500788 12.52893380 2.14190831 0.00003797 0.00300547 -0.00206093
N 1.05719532 6.28484633 10.72352142 -0.00759947 -0.00747974 0.00180013
N 3.29277445 0.28240605 6.34419391 -0.00191069 -0.00513475 0.00233148
N 5.00505470 6.42887926 13.97440999 -0.00948242 0.00149338 0.00202638
N 0.89176177 25.70396044 14.51885878 0.00187910 -0.00374495 0.00258818
N 7.64863430 6.45613777 5.61333600 -0.00446010 0.00113618 -0.00615154
N 5.20127336 12.69457539 10.47499213 0.00126550 -0.00131166 -0.00155683
N 3.10340702 6.30994407 2.33149046 -0.00345627 0.00256807 -0.00589097
N 7.62677217 12.98345090 18.63204281 -0.00215219 0.00010864 -0.00326749
N 0.87715229 6.42556406 26.93592319 0.00366898 -0.00198226 0.00132538
N 3.41487399 25.28717105 22.58123335 -0.00601511 0.00006413 -0.00031498
N 5.05480687 6.42114098 30.28556226 -0.00937581 -0.00396305 0.00608640
N 0.93348445 0.11007915 30.70103192 -0.00481719 -0.00186330 0.00566044
N 7.35917576 6.57448948 22.11278661 -0.00516236 0.00209380 0.00063399
N 5.36470243 12.57727325 26.80158389 0.00750115 0.00260577 -0.00191143
N 3.14753010 6.27023940 18.77793625 -0.00122625 0.00164845 -0.00156033
N 7.42304417 25.69599962 2.60315785 0.00037612 -0.00276111 0.00067176
N 1.07561731 19.09673792 10.55378126 -0.00268769 -0.00464232 -0.00249749
N 3.30965236 12.98695312 5.59918430 0.00418301 0.00067006 0.00331277
N 5.24913209 19.38111326 13.49932710 -0.00059986 0.00535663 0.00394096
N 1.24933163 13.17487098 14.07522090 -0.00512801 0.00305594 0.00417793
N 7.81232396 19.60672479 5.51500526 -0.00006345 -0.00159222 0.00097049
N 5.44887745 0.24301851 10.83295520 0.00111757 0.00032439 -0.00486334
N 3.34829995 19.28543042 2.17135221 0.00180900 0.01099119 -0.00462501
N 7.68324956 0.25838559 18.97306452 -0.00414259 -0.00272285 -0.00329916
N 0.87348642 19.54447136 27.01602439 -0.00245345 0.00446944 -0.00371560
N 3.14017443 12.79613898 22.20953731 -0.00051081 -0.00284623 0.00069924
N 5.15040890 19.32403753 30.12575622 0.00437795 -0.00485222 -0.00532069
N 1.12892723 12.59888710 30.31199452 0.00690517 0.00055233 0.01089667
N 7.63802286 19.43294624 22.06782281 -0.00127899 0.00293199 0.00279489
N 5.35764601 25.61101676 27.05510144 0.00491800 0.00942802 0.00178638
N 3.12736519 19.41781325 18.66432506 -0.00281324 -0.00361778 -0.00101287
N 15.84120922 12.99087426 1.82640117 -0.00359521 -0.00121959 -0.00089559
N 9.33764769 6.27433004 10.83116900 0.00261169 -0.00133891 0.00619922
N 11.79939837 25.64357038 5.82449425 -0.00254514 -0.00230874 -0.00522839
N 13.83164661 6.79653107 13.80770145 0.00461726 -0.00237897 0.00402355
N 9.80031371 0.07045106 14.07349116 -0.00046295 0.00108523 -0.00304114
N 15.89782509 6.59672859 5.55789223 -0.00199213 0.00014381 0.00193755
N 13.74205873 12.88569616 10.36722652 0.00089923 0.00549484 -0.00010796
N 11.87895987 6.31849523 2.31828959 -0.00254369 -0.00316746 0.00445013
N 16.04241798 13.11743156 18.48154007 -0.00243531 -0.00343629 0.00291067
N 9.65047272 6.39475279 26.83814404 0.01048905 -0.00376159 -0.00200175
N 11.43634780 0.08129451 22.38719629 0.00106194 -0.00202460 -0.00236102
N 13.75067658 6.79352790 30.43388070 -0.00024373 -0.00185778 -0.00082251
N 9.81399381 0.06738198 30.34628054 -0.00142702 0.00001709 0.00497676
N 16.08155913 6.41726171 21.94092320 -0.00107808 -0.00039605 -0.00851170
N 13.75156300 13.04348501 26.64538756 0.00330295 0.00091474 0.00018290
N 11.92141952 6.16054915 18.92453282 -0.00094832 -0.00548539 -0.00753600
N 15.87749074 25.65864164 2.74230369 -0.00553714 0.00926129 0.00277808
N 9.49208999 19.01733500 10.41745977 -0.00131088 -0.00096083 0.00218256
N 11.59566380 12.89613561 5.80998667 0.00229135 -0.00277856 -0.00163669
N 13.78923764 19.41971607 13.94361536 -0.00034254 0.00116293 0.00553878
N 9.58702801 12.80317709 14.26150444 -0.00315321 -0.00028615 0.00315004
N 16.16656640 19.63694357 5.83408502 0.00192162 -0.00436976 -0.00530245
N 13.88667486 25.44108229 10.91188230 0.00531811 0.00354031 -0.00782215
N 11.80634009 19.49201158 2.36747022 0.00138678 -0.00412264 -0.00084750
N 16.03237702 25.54874283 19.47393728 -0.00870868 0.00325343 0.00329060
N 9.23080462 19.09561680 26.71052988 0.00132692 -0.00487772 0.00115422
N 11.82582206 13.02343898 22.01152735 -0.00731931 0.00206767 0.00583657
N 13.36359806 19.71478563 30.28753872 -0.00248534 0.00485192 -0.00101300
N 9.50913562 12.55976858 30.19892409 0.00339919 0.00348722 0.00120035
N 16.15035323 19.32761822 22.24722185 0.00922871 0.00773579 -0.00563517
N 14.08088467 0.04029550 27.57072675 -0.00551603 0.00262502 0.00380063
N 12.01997609 19.23725909 18.69616641 -0.00295135 0.00009062 0.00102151
N 24.61512866 13.02842655 2.23974824 -0.00601488 -0.00206465 -0.00199115
N 17.97456665 6.29564073 11.01963369 0.00657935 0.00181880 -0.00861280
N 20.45209714 25.68413964 5.86159521 -0.00124907 0.00370188 0.00048087
N 22.54726978 6.44660536 14.02409217 -0.00002890 0.00646569 -0.00533014
N 18.13411081 25.53936428 14.47295920 0.00196371 0.00056793 -0.00593524
N 24.64134968 6.40789047 5.77392980 0.00679035 -0.00080763 0.00360735
N 22.31853804 12.75136890 10.11506637 0.00718414 0.00033881 0.00092214
N 20.03113350 6.34905236 2.52958553 0.00534852 0.00386665 -0.00320869
N 24.39068682 12.66097522 18.49690696 -0.00190909 -0.00332461 -0.00333679
N 18.15488244 6.47531429 26.90424383 0.00353300 0.00431338 0.00633121
N 20.28440274 25.59065487 22.57563595 0.00129097 0.00597254 0.00688108
N 22.40963185 6.58188838 30.59806721 -0.00585329 0.00533688 0.00002802
N 18.25400478 0.22881199 30.64711215 -0.00047397 0.00231949 0.00080761
N 24.60470092 6.27554453 22.42705830 0.00514033 0.00103121 0.00403700
N 22.79163631 12.79572809 26.45133671 -0.00472971 0.00038601 -0.00054895
N 20.40367043 6.14812086 19.04677095 -0.00008559 0.00161830 0.00471455
N 24.48656212 25.61953177 2.84138363 -0.00163057 -0.00259361 0.00831499
N 17.92622473 19.30456411 10.62669151 -0.00303330 0.00753820 0.00060094
N 20.37162139 12.49899389 5.59086712 0.00790480 0.00792257 0.00002975
N 21.83335078 19.47972082 13.84852901 0.00680672 -0.00649663 -0.00275948
N 17.73842934 12.60035883 13.35610324 -0.00112133 -0.00912055 0.00632626
N 24.74237105 19.23365959 5.92369158 -0.00251957 0.00632904 0.00345521
N 22.47351038 0.08343535 10.83422038 0.00582294 0.00302333 -0.00300006
N 20.38465368 19.41705673 2.91011225 -0.00295369 -0.00224765 -0.00822718
N 24.84526414 0.13718571 19.05136133 -0.00147253 0.00168080 0.00618619
N 18.02046412 19.07241071 26.96319190 0.00196823 0.00218426 -0.00657966
N 20.53791272 12.57225049 21.84541219 -0.00438782 0.00376517 0.00022765
N 22.30237074 19.40091282 30.81102829 0.00282277 0.00428655 -0.00053432
N 18.11715353 12.99558420 30.21902329 0.00269940 0.00032125 -0.00296136
N 24.45106093 19.35788623 22.19919276 0.00299245 -0.00348741 0.00379253
N 22.30834186 25.68567449 27.36584878 -0.00003259 0.00096793 -0.01289502
N 20.25042825 19.12724141 18.93835678 -0.00689276 0.00070275 0.00095005
C 7.63870684 0.63881788 4.88402083 -0.00736874 0.00502304 0.00160826
C 1.12900442 5.89231580 13.09273780 -0.00307968 0.00242317 -0.00177315
C 3.25294085 12.55804470 3.21340535 0.00363630 0.00075558 -0.00731058
C 4.97165007 6.93066817 11.51717182 -0.00062583 -0.01010912 -0.00487278
C 1.01017406 12.88681674 11.64254462 0.00344219 0.00553405 0.00056558
C 7.67708813 6.78616053 3.20423251 -0.00281391 -0.00457034 -0.00213542
C 5.62004621 0.14899308 13.28748317 -0.00103616 -0.00108278 -0.00716032
C 3.47237920 5.96186165 4.59178896 -0.00908087 -0.00458586 0.00273299
C 7.40165128 1.36788829 5.97142658 0.00890351 -0.00004887 -0.00759607
C 1.38768520 5.02468300 14.18811995 0.00027748 -0.00283457 -0.00290600
C 2.75776941 11.85600752 2.15131603 0.00044854 -0.00064119 -0.00706238
C 5.44183563 7.63827625 10.37028595 0.00413827 0.00431656 0.00006009
C 1.39097740 12.17603516 10.51565600 0.00201002 0.00213579 0.00229669
C 7.25219429 7.42900156 2.09277813 0.00590563 0.00354060 0.00721214
C 5.81640419 0.79292275 14.48596029 0.00259602 -0.00642617 -0.00028197
C 3.06373130 5.35656381 5.79019068 -0.00182649 -0.00139504 0.00148977
C 6.43952678 2.38501427 5.85111851 -0.01104131 -0.00012443 -0.00245848
C 2.25783767 3.92071212 14.03211348 -0.00375250 -0.00604997 0.00555236
C 1.94038556 10.71859656 2.25993297 0.00451694 -0.00685604 -0.00276760
C 6.34722810 8.72826621 10.57616706 -0.00283517 -0.00193302 0.00135847
C 2.01988390 10.92114149 10.63357943 0.00857293 0.00039788 -0.00020530
C 6.34897772 8.53189562 2.21063193 0.00041639 0.00321253 -0.00089431
C 6.47343675 2.07554326 14.49825633 -0.00129410 -0.00462275 0.00046045
C 2.29826681 4.18458516 5.81612294 0.00257396 -0.00208117 -0.00864058
C 6.13307417 2.92776241 4.57589773 -0.00061061 -0.00478639 0.00151168
C 2.52258362 3.54360448 12.74166061 0.00176343 -0.00346340 -0.00841651
C 1.72348315 10.29135011 3.54093237 0.00493815 -0.00708478 -0.00351820
C 6.60082738 9.15293887 11.95093952 0.00245394 -0.00503150 -0.00142717
C 2.15831239 10.35717940 11.86656530 -0.00629649 -0.00532167 0.00129269
C 6.16767702 9.05514816 3.51487742 -0.00452619 0.00614408 0.00109361
C 6.70615092 2.75750349 13.32135785 -0.00025494 -0.00370029 -0.00215029
C 1.83462732 3.59561714 4.50768491 -0.00037229 0.00323278 0.00141165
C 6.46274729 2.14727290 3.45731161 -0.01133450 0.00028830 0.00274359
C 1.98551567 4.23178621 11.68232332 0.00822726 0.00517982 0.00001838
C 2.18056105 11.04729533 4.61921293 -0.00148805 0.00492334 -0.00694568
C 6.15917384 8.43346340 13.03642749 0.00281892 -0.00193794 -0.00747812
C 1.80337329 11.07972670 13.02362121 -0.00361908 0.00529709 0.00250269
C 6.59711491 8.43456970 4.63220121 0.00741782 -0.00234352 -0.00120133
C 6.29701841 2.16551926 12.13743903 -0.00343307 -0.00004761 0.00022952
C 2.12134953 4.28344472 3.36215484 -0.00524681 0.00516022 0.00702606
C 7.20992451 0.95692762 3.57217088 -0.00507994 -0.00211862 0.00128307
C 1.35498164 5.46411921 11.83083402 -0.00465428 -0.00279862 0.00089036
C 2.90840242 12.20091997 4.54734831 0.00683701 -0.00193512 -0.00275668
C 5.35246490 7.27255317 12.89191831 0.00059868 0.00400909 -0.00840953
C 1.36880627 12.40154694 12.92283869 -0.00068639 -0.00207242 0.00200985
C 7.29355402 7.17306039 4.53360678 0.00525552 -0.00294122 0.00726632
C 5.88457293 0.82706042 12.05808165 -0.01227570 0.00717097 -0.00006559
C 2.94647250 5.43613708 3.38118944 0.00104668 -0.00575174 -0.00403001
C 7.08947638 0.25500924 1.33318478 -0.00060204 -0.00232778 0.00162314
C 1.73309007 6.08079896 9.55130408 0.00119262 -0.00095416 -0.00353642
C 2.80027876 12.76911082 6.88273685 -0.00432370 -0.00294275 0.00035925
C 5.46237160 6.53372191 15.25094740 -0.00292197 0.00036398 0.00139396
C 1.61138676 12.90332439 15.36186416 -0.00723262 -0.00195602 0.00120062
C 7.12027911 6.54445335 6.90768170 0.00307582 0.00504798 -0.00268590
C 6.08425170 0.54533765 9.59972792 0.00201567 -0.00957222 0.00936289
C 2.75161064 6.04616613 1.03757818 0.00165668 -0.00745834 -0.00355518
C 7.18969781 11.64420804 16.61759139 0.00122533 0.00553405 -0.00231357
C 1.61243109 7.33851052 8.70398052 0.00205979 -0.00543828 0.00028822
C 2.85200569 1.20736918 8.51772881 -0.00476870 -0.00541605 -0.00743139
C 5.83487925 4.98411090 32.00594546 0.00507319 0.00251188 -0.00387464
C 1.44219786 1.20751335 32.77147267 -0.00550050 0.00356315 -0.00363670
C 7.07190423 5.34202506 7.75781854 -0.00053284 -0.00900408 0.00037099
C 5.39703392 11.81755955 8.15590114 0.00117920 -0.00234903 -0.00052916
C 2.64308960 7.28028776 16.70180285 0.00282666 -0.00185940 0.00340626
C 7.48708902 0.47179851 21.39900452 -0.00540658 0.00002913 -0.00118773
C 0.91378988 6.00211832 29.27547396 0.00781429 -0.00058268 -0.00018194
C 3.37057740 12.45872933 19.84042351 -0.00437836 0.00078193 0.00582116
C 5.23157396 6.79517252 27.97936755 0.01084227 0.00449811 -0.00555077
C 1.01717632 12.22344852 28.00069854 -0.00394609 -0.00667775 0.00069282
C 7.48940086 6.92147956 19.75851943 -0.00635091 -0.00181895 0.00106225
C 5.31630420 0.29799896 29.33815559 0.00500191 -0.00217617 0.00089429
C 3.15897023 5.88572814 21.11826237 0.00597261 -0.00185799 0.00255812
C 7.04139257 1.22856375 22.47241681 -0.00299843 0.00022257 -0.00219415
C 1.26770921 5.19020482 30.34258607 -0.00510208 0.00440485 -0.00474396
C 3.00007441 11.73844184 18.69152310 0.00306843 0.00166751 -0.00481239
C 5.68985377 7.40585867 26.83404507 0.01206687 0.00422668 -0.00313451
C 1.35140787 11.48832354 26.91563676 0.00155830 -0.00240698 -0.00671452
C 6.98640300 7.52457522 18.60986886 -0.00627786 0.00168957 0.00037602
C 5.69254793 0.97084309 30.49084925 -0.00554872 -0.00150165 -0.00416189
C 2.87291952 5.14934558 22.29478207 -0.00275178 0.00655599 -0.00016142
C 6.06388713 2.21733289 22.26996378 0.00090850 0.00390716 -0.00630460
C 2.14450797 4.11595064 30.18411117 -0.00071274 0.00853944 0.00149990
C 2.21340501 10.61724850 18.71209648 0.00372838 -0.00245050 0.00750642
C 6.50592329 8.57383181 26.96108127 0.00329682 0.00663065 0.00324284
C 2.29689043 10.45213833 26.90569187 0.00007531 -0.00294800 0.00301183
C 6.16517051 8.65483618 18.77223996 -0.00051207 -0.00990331 0.00553205
C 6.52284191 2.07150337 30.34616521 -0.00008118 -0.00115986 0.00219114
C 1.97906681 4.02988525 22.15194710 0.00271529 0.00347690 0.00629013
C 5.93528160 2.78992921 20.97855308 -0.00242860 -0.01076380 -0.00180139
C 2.42021766 3.67401607 28.88575778 0.00940885 0.00634810 -0.00198739
C 1.70767133 10.08016768 19.95393127 -0.00143954 -0.00002289 0.00534069
C 6.83810071 8.95652817 28.26061956 0.00341226 -0.00100647 -0.00337477
C 2.49966623 9.90943267 28.16201637 0.00051379 0.00338299 0.00199472
C 6.04340051 9.27777455 19.97171494 -0.00750231 0.00343787 0.00490593
C 6.69222764 2.65904599 29.08799107 -0.00107140 -0.00843436 -0.00128676
C 1.80719111 3.47935566 20.85381824 0.00250527 0.00007480 0.00369741
C 6.41531655 2.12117607 19.92389442 0.00580112 -0.00319407 0.00298660
C 2.06498951 4.43335918 27.77919040 0.00883850 0.00064256 -0.00005038
C 1.98329531 10.85878815 21.07826807 -0.00320823 0.00060336 -0.00961093
C 6.37691742 8.37228525 29.37463995 -0.00439980 -0.01090624 -0.00370877
C 2.16842795 10.56561147 29.28964126 -0.00432697 -0.00774277 -0.00423283
C 6.45349658 8.61367798 21.13025537 -0.00384519 -0.00434156 -0.00253964
C 6.25806694 2.00157061 27.99735465 0.00879339 0.00223474 0.00009763
C 2.25182982 4.05978711 19.70144633 -0.00426514 0.00332872 -0.00118675
C 7.23192097 0.91128653 20.11887039 -0.00747846 -0.00210190 0.00115465
C 1.31825451 5.61742686 27.97905554 0.00211378 -0.00822662 -0.00611680
C 2.89219449 12.00545434 21.06247515 0.00987990 -0.00370896 -0.00287218
C 5.59948012 7.17430735 29.29260156 -0.00491404 -0.00006894 -0.00077343
C 1.46263804 11.79272111 29.23533710 -0.00527919 -0.00338666 -0.00211326
C 7.05952141 7.35507005 20.99646211 0.00608256 -0.00102872 0.00101780
C 5.61943549 0.77557495 28.07996834 -0.00649025 -0.00012024 -0.00222596
C 2.82542450 5.36447350 19.81859286 0.00724518 0.00144523 0.00842525
C 6.88196400 0.04583907 17.90295892 0.00505880 0.00269382 -0.00439321
C 1.37163667 6.22227442 25.68588138 -0.00534505 0.00711567 0.00862448
C 2.56267221 12.39499944 23.38990687 -0.00022481 0.00183154 0.00306577
C 5.78572732 6.35077887 31.44057808 0.00314186 0.00103899 0.00806273
C 1.63847223 12.43228911 31.54380392 0.00809153 0.00937832 -0.00008074
C 6.84099511 6.74955557 23.42902999 -0.00355847 -0.00161984 0.00373667
C 5.68195706 0.10852770 25.76336627 0.00879153 -0.00212322 0.00053737
C 2.81688329 6.03162193 17.50660143 0.00226913 0.00292444 0.00249204
C 7.36084053 11.49484272 32.75885229 0.00329872 0.00567808 0.00379798
C 1.42587679 7.40626992 24.73279578 -0.00308185 -0.00027590 0.00950359
C 2.51908180 0.98332187 24.42144099 0.00031364 -0.00596452 0.00212536
C 5.35181260 5.26329327 16.17604881 -0.00404454 0.00244481 0.00228673
C 1.47774173 1.06445136 16.52366022 0.00487359 0.00084356 -0.00035035
C 7.07513509 5.48178153 24.28624669 0.00036136 0.00145417 0.00351818
C 5.84550658 11.89111729 24.50954757 -0.00422842 -0.00492426 0.00392159