1920
Time=41000.00000002 pbc="T T T" Lattice="25.50586213 0.00000000 0.00000000 0.00000000 25.71759075 0.00000000 0.00000000 0.00000000 32.93782358" energy=-12250.81375480 virial="-33.25487931 -9.50268982 18.42600055 -9.50268982 -46.51520803 -16.33603898 18.42600055 -16.33603898 -80.65170016" stress="0.00060187 -0.00054776 0.00088567 -0.00054776 -0.00002437 -0.00082808 0.00088567 -0.00082808 -0.00163436" Properties=species:S:1:pos:R:3:vel:R:3
O 6.32888521 2.66567576 7.69860226 0.00844261 -0.00417111 -0.00147689
O 2.51557145 3.67792277 15.50814670 -0.00031044 0.00194462 0.00143773
O 1.35846362 10.24719869 0.90967085 -0.00164323 0.00619478 0.00387996
O 7.04760760 8.70617115 9.57973546 -0.00380959 -0.00228444 -0.00354714
O 3.06737573 10.14679196 8.93615784 0.00477352 -0.00025485 -0.00037236
O 5.84357099 9.50173495 1.53300653 0.00152597 0.00246532 0.00150542
O 6.91871597 2.60265017 15.96485096 -0.00030360 0.00122956 0.00072620
O 1.61218600 3.91760162 7.22041750 -0.00253598 -0.00302832 -0.00073210
O 6.11862095 1.12378103 17.86545762 -0.00621196 0.00059013 0.00073621
O 2.38088054 5.00205415 9.42247540 0.00332717 -0.00537654 0.00081192
O 2.06635999 11.50221886 6.99519648 -0.00229011 -0.00416750 -0.00009015
O 5.99002959 7.90256117 32.37708193 0.00073932 0.00765912 -0.00240268
O 2.15166742 11.63120618 31.65812454 0.00259723 -0.00013885 -0.00713585
O 6.41333662 7.36892034 7.35657321 0.00517520 0.00773592 0.00125499
O 6.83419731 1.18438065 9.71959172 0.01062107 0.00072709 -0.00339172
O 2.49662487 5.36283806 17.50634528 0.00460426 0.00115450 0.00174273
O 6.10151225 2.77921667 24.05697324 -0.00225883 0.00512367 -0.00135163
O 2.20377183 3.73542487 32.09837162 -0.00911032 0.00324757 0.00003533
O 1.82954604 10.37495887 17.22846084 0.00693357 -0.00372296 -0.00316055
O 6.75641199 9.66084690 26.23704908 -0.00486472 -0.00155226 0.00281712
O 2.65030050 10.22123093 25.55095717 -0.00530731 0.00829685 -0.00103698
O 6.21689377 9.54121413 17.93090960 -0.00517183 0.00439071 -0.00092896
O 6.73838536 2.86186495 32.28077373 -0.00442520 -0.00047183 0.00037103
O 1.45566083 3.74447010 23.66177605 -0.00052831 -0.00101680 0.00480754
O 6.40763211 1.20565014 1.45095326 0.00151867 -0.00450220 0.00283289
O 2.59933113 5.03089237 25.89625034 0.00052418 0.00070336 0.00418124
O 2.29392177 11.79052920 23.45593228 0.00162066 -0.00123285 0.00445071
O 6.15014672 7.88574318 15.93120795 0.00076087 -0.00138327 -0.00082275
O 2.56924950 11.69947226 14.95105094 0.00541317 0.00664328 0.00382289
O 6.99872440 8.00437121 24.22520986 0.00035277 0.00179421 0.00013702
O 5.52976568 1.20638496 25.99408667 0.00280687 0.00373966 -0.00558758
O 1.81065909 5.29695021 1.13064125 0.00046914 0.00269902 0.00161041
O 5.68121896 15.74654269 6.56478127 -0.00476121 -0.00759334 0.00060698
O 2.58343026 16.36139779 15.12768236 0.00046087 0.00311001 0.00053590
O 1.32185331 22.61631406 1.35296883 -0.00223771 0.00283246 -0.00114047
O 6.95692737 21.85066709 9.13717481 -0.00032928 -0.00342791 0.00067542
O 2.49228646 23.02199087 9.59084663 -0.00167972 -0.00020514 -0.00435544
O 5.80252319 21.89829417 1.23185803 0.00719122 -0.00151912 -0.00149862
O 7.17908368 15.65514035 14.68860660 0.00193153 0.00018167 0.00069849
O 1.92336515 16.43916871 6.88277319 -0.00250808 -0.00189271 -0.00446691
O 6.73957674 14.45281435 16.96757216 0.00373363 0.00537984 -0.00006730
O 2.10912507 17.86061773 8.92220744 -0.00507838 -0.00008558 0.00593631
O 2.72029903 24.66432387 7.56496003 -0.00187125 -0.00120986 0.00000557
O 6.14740464 20.42520744 32.09144381 -0.00347170 -0.00035796 0.00342657
O 1.58458637 24.15686664 32.24152600 0.00035693 -0.00291246 0.00009486
O 6.18665904 20.35592431 7.39187230 -0.00004589 -0.00189060 -0.00128067
O 6.10770313 13.92588206 8.49042628 0.00586419 0.00153173 -0.00307449
O 2.44969686 18.09967723 16.79786997 0.00249271 -0.00437844 -0.00367121
O 5.84567507 15.30944977 23.21137631 -0.00255912 -0.00381599 0.00158646
O 2.39511332 16.80238292 31.27891358 0.00378147 0.00013770 0.00589780
O 2.10601037 22.94010526 17.58361562 0.00155981 -0.00020630 -0.00719479
O 7.09125200 21.74005970 25.81518497 0.00187185 0.00040211 -0.00363802
O 2.33558829 22.61700000 25.93118476 -0.00081545 0.00047766 0.00077212
O 5.91471480 21.66684939 17.63436642 -0.00230944 0.00250530 0.00125068
O 7.02433017 15.60398147 31.17418920 0.00253395 0.00599153 -0.00235634
O 1.35302663 16.87829020 22.98734885 0.00101064 0.00558097 0.00217096
O 6.66750203 14.31939043 0.41667284 0.00088057 0.00038510 0.00366323
O 1.97223775 18.09777756 25.08085108 0.00251126 -0.00468742 0.00093975
O 1.85105592 24.31382164 23.87978898 0.00785133 0.00083146 0.00351991
O 6.65233115 20.49411768 15.36448846 0.00259673 0.00336501 0.00376200
O 2.62817147 24.66499187 15.71125609 0.00286549 0.00264115 -0.00702076
O 6.44718048 20.43644670 23.75366262 -0.00147180 0.00102445 0.00211382
O 6.53294891 13.85697604 25.11806586 0.00494174 -0.00195179 0.00346352
O 1.67787129 17.76502160 0.75566096 0.00303668 -0.00455959 0.00052574
O 14.60440311 2.74114626 7.54357072 -0.00345654 -0.00653488 -0.00335732
O 11.06987264 3.71230941 15.48795732 -0.00172681 0.00391325 -0.00208623
O 10.13034365 10.08492304 0.94273731 0.00283636 0.00842721 -0.00014260
O 15.71913248 9.12530264 10.02631548 0.00324920 0.00637017 -0.00563757
O 11.50031666 10.32996688 8.99134719 -0.00271430 -0.00955225 -0.00079545
O 13.72376676 8.99768773 1.41723501 -0.00007452 -0.00409869 -0.00073424
O 15.14138860 2.92267677 15.59600570 0.00516255 0.00050509 0.00107629
O 10.58184448 3.74060359 7.46347747 -0.00012670 -0.00115506 0.00149217
O 14.94621926 1.19282463 17.68900789 0.00914184 -0.00382236 0.00367669
O 10.75221307 5.34469306 9.21023522 0.00231221 0.00088226 -0.00349333
O 10.56808270 11.73310742 7.01554016 -0.00342752 0.00532475 -0.00232109
O 14.55353339 8.09599398 32.10185270 -0.01006413 0.00267909 -0.01113108
O 10.38756021 11.63705478 31.89397458 -0.00932814 0.00432432 0.00033511
O 15.37147274 7.98431028 7.67200909 0.00092399 -0.00844563 -0.00591669
O 14.75815003 0.96453122 9.42407116 0.00340091 -0.00962393 -0.00043011
O 10.99652805 5.33749483 17.62942916 0.00025180 0.00149184 -0.00138044
O 14.28391929 2.79411827 23.93784784 0.00364182 -0.00190184 -0.00265415
O 10.95947494 3.41885946 32.09074124 0.00230014 0.00380968 0.00118646
O 9.87162626 10.74139523 17.24166076 0.00551623 -0.00622582 0.00516526
O 15.67095487 8.72287430 25.93674267 -0.00385311 -0.00339111 0.00001563
O 11.10927871 10.14486291 25.67175740 0.00254519 0.00064100 0.00142298
O 14.67578204 9.75670294 17.86208795 0.00512154 0.00113644 -0.00395878
O 15.06297678 2.91372087 32.51797774 -0.00488049 -0.00899032 0.00526249
O 10.15112857 3.80918245 23.75695680 -0.00658121 -0.00257413 -0.00091609
O 14.65769535 1.06203185 1.35423841 -0.00255981 0.00026312 0.00074990
O 10.59483729 5.21447394 25.88070013 -0.00285547 -0.00330081 -0.00484399
O 10.64474700 11.37360274 23.49538683 -0.00111952 -0.00022909 -0.00811062
O 14.61372834 7.68007926 16.03548585 0.00578003 0.00301357 0.00384879
O 10.75454044 11.51582521 14.88576063 -0.00201357 -0.00092446 0.00706147
O 14.91422049 7.59942358 23.87378404 -0.00993343 0.00221371 -0.00401398
O 14.79416222 1.41579985 26.20013820 0.00133801 0.00105236 0.00036447
O 10.55800794 4.96310374 1.03509236 -0.00010921 -0.00586833 0.00568222
O 14.35983817 15.80770481 6.43328424 -0.00408967 -0.00115724 0.00591732
O 11.16532128 16.45076138 14.83012373 -0.00245194 -0.00125197 0.00165672
O 10.03202051 22.54601581 1.67374438 -0.00104566 0.00271302 0.00276534
O 16.02365801 21.81116098 9.76893952 0.00231629 0.00163246 0.00342622
O 11.13045131 22.86115935 9.89967109 0.00130440 -0.00717880 -0.00016746
O 14.31184732 21.84333083 1.17669400 -0.00158819 -0.00610599 -0.00747921
O 15.63429948 15.91443755 14.67334943 0.00544785 0.00310429 -0.00161165
O 9.85086155 16.40720593 6.70364466 0.00356446 -0.00334224 0.00660221
O 15.11992697 14.28498820 16.71775464 -0.00071398 -0.00251951 -0.00258864
O 10.52878680 17.91654525 8.67309707 0.00119778 -0.00387004 -0.00621085
O 11.07415564 24.43440120 7.79159604 0.00486063 -0.00269496 0.00372433
O 15.14156636 20.31576838 32.07652374 -0.00190777 -0.00210760 0.00424522
O 9.38674880 24.08844475 32.56440367 0.00138518 -0.00017355 -0.00395007
O 15.36505395 20.54921925 7.52024977 0.00004769 0.00210863 0.00256761
O 14.76069205 13.99445648 8.41819895 0.00218309 -0.00277534 0.00424001
O 11.21189080 17.66969481 17.21419237 0.00051591 0.00625864 0.00185114
O 14.39735956 15.47135408 22.96009631 -0.00033470 -0.00737605 -0.00127627
O 11.27916490 16.51318838 31.63818838 -0.00664392 -0.00730682 -0.00324996
O 10.36621463 22.82926700 18.05604750 0.00657169 0.00079840 0.00016308
O 15.07048094 21.82270471 25.91059746 -0.00215726 0.00472832 0.00089093
O 10.73195394 22.76935781 26.40590009 0.00283702 -0.00246916 -0.00590739
O 14.24489403 21.91758414 17.69654620 0.00079082 0.00041616 -0.00191179
O 15.25570903 15.64414107 31.27506566 0.00424821 0.00860681 -0.00353007
O 10.08960672 16.42409109 23.31555575 0.00519539 -0.00492616 -0.00335203
O 15.35639092 13.90690708 0.30626806 -0.00173411 -0.00035960 0.00114843
O 10.58266282 17.97821102 25.48191419 0.00662567 0.00511873 -0.00477954
O 10.88180246 24.42710648 24.35955294 0.00481879 0.00170915 -0.00171127
O 14.66807975 20.33956886 15.66801813 0.00197451 -0.00335536 -0.00404783
O 10.57934367 24.47531352 16.06708718 0.00182077 0.00037235 0.00356403
O 14.42676617 20.44813180 23.87139936 -0.00506278 -0.00076604 0.00255406
O 14.74888426 13.96215325 25.08037393 -0.00398704 0.00348714 -0.00045051
O 10.53359453 18.32228278 0.56478095 -0.00134890 0.00038979 -0.00425929
O 22.81013917 2.81855606 7.40021018 -0.00104355 0.00237180 0.00100617
O 19.83134430 3.51614311 15.19451300 -0.00889537 0.00589181 -0.00477846
O 19.13273540 10.23850180 0.86521080 0.00495007 -0.00124576 -0.00413130
O 23.88903542 8.96842846 9.41725368 -0.00118634 -0.00198705 -0.00189697
O 19.68115428 10.22761229 8.93249201 -0.00563766 0.00016497 0.00681021
O 22.92680655 9.20653828 1.14004294 -0.00024521 0.00230854 -0.00605498
O 24.35666422 2.66489577 15.37635375 0.00346117 -0.00847510 0.00202738
O 18.54228095 3.83756791 7.22645354 -0.00232119 -0.00265531 0.00101472
O 23.80500190 1.49760562 17.59728030 -0.00623470 0.00033575 0.00151712
O 19.56550100 5.23842992 9.20776140 -0.00284607 0.00008118 0.00145656
O 18.87911415 11.83505306 7.25920596 -0.00081019 0.00459897 0.00579740
O 23.55876417 7.42225873 32.29237557 0.00271728 0.00189732 0.00031278
O 18.90103150 11.70279401 31.63670572 -0.00153773 -0.00274039 0.00377482
O 23.21301511 7.67964348 7.29843536 -0.00125634 -0.00060131 0.00367767
O 23.36755562 1.09726252 9.41114657 -0.00494023 -0.00336366 0.00084632
O 19.74896240 4.97207858 17.19992998 -0.00417135 0.00783929 -0.00043817
O 22.98396139 2.87785939 23.92838973 0.00116416 0.00023460 -0.00432311
O 19.37533042 3.74245991 32.14961525 -0.00705019 -0.00246778 -0.00058737
O 18.74645663 10.25815899 17.13802534 0.00219138 0.00613882 0.00452237
O 23.85639112 9.28905679 26.24594658 -0.00173985 0.00343755 0.00789959
O 19.73871854 10.32589313 25.55198355 -0.00112284 0.00217590 0.00360041
O 23.52432669 9.69445694 17.71842796 0.00556879 0.00538145 0.00501744
O 23.47291011 2.66281680 32.13376507 0.00694241 0.00052088 -0.00216003
O 18.66032116 3.90478713 23.49821173 0.00092988 0.00393626 0.00084558
O 22.85635870 1.34772954 1.26830830 -0.00346647 0.00479201 -0.00500647
O 18.72023748 4.95146785 25.77565937 -0.00034508 -0.00033912 -0.00024854
O 19.27577605 11.41314039 23.27996740 -0.00474949 0.00000544 0.00339218
O 23.47092269 7.98096551 15.70724755 0.00101566 0.00531897 -0.00162600
O 19.49811751 11.69156883 15.17821774 0.00323888 -0.00475088 -0.00161328
O 23.89313490 7.92493801 23.92233493 -0.00266133 -0.00661235 -0.00326116
O 23.73236822 1.32506661 25.79295183 0.00580364 -0.00621908 0.00310924
O 18.66759391 5.18423612 1.04334360 -0.00100373 0.00084512 -0.00268901
O 22.76972582 15.15149219 6.69388646 0.00161604 0.00097746 -0.00220927
O 19.40068495 16.68420208 15.15663986 0.00122122 -0.00151167 -0.00067734
O 18.68014945 22.70104998 1.71656750 -0.00096940 0.00690622 0.00464423
O 24.02486440 21.77267080 9.25871054 -0.00066766 0.00805946 0.00022497
O 19.53165679 22.55093920 9.89287813 -0.00410220 0.00061424 -0.00435381
O 22.79718055 22.10302697 1.29473153 0.00336070 0.00111261 0.00495669
O 23.89019978 16.13571197 14.72246252 -0.00427464 0.00602108 -0.00315938
O 18.69428545 16.60509512 7.00113551 0.00252051 0.00506448 -0.00226356
O 23.66910342 14.39608414 16.64979156 -0.00339428 0.00174519 -0.00131289
O 19.56699081 18.12988361 8.90430010 0.00234593 0.00125900 -0.00571337
O 19.63621145 24.46338035 7.98860914 -0.00000448 0.00150269 -0.00312465
O 23.15113163 20.49692548 32.03981308 -0.00483579 0.00156183 0.00130689
O 18.90772826 24.32758366 32.45373805 0.00131563 0.00247343 -0.00190864
O 23.13904970 20.23649631 7.26735141 0.00287536 0.00150504 -0.00152640
O 23.57297935 13.94408583 8.91012389 -0.00000124 -0.00196773 -0.00147730
O 19.01756353 18.15905180 17.18682586 -0.00206745 -0.00484466 -0.00552327
O 22.78129392 15.90902540 22.88411169 0.00280603 -0.00004516 -0.00007172
O 19.47649071 16.80415293 31.81495457 -0.00478004 0.00199537 -0.00869891
O 18.78179151 22.98804163 17.97568124 -0.00117730 -0.00084151 -0.00192728
O 23.59683847 21.97532631 25.77162083 0.00429798 0.00460403 0.00467430
O 19.70155721 22.88440647 26.34428755 0.00019277 -0.00090457 0.00135019
O 22.99600138 22.15826457 17.52007547 -0.00979309 -0.00563539 0.00146200
O 23.51882190 15.79025619 31.17386223 0.00008481 0.00006722 -0.00282748
O 17.95966270 16.69202637 23.18243381 0.00617681 -0.00363555 0.00181272
O 23.77562467 14.33921048 0.44158315 -0.00217459 -0.00250785 -0.00666080
O 18.57424200 17.62249070 25.51603103 0.00090205 0.00536124 0.00571398
O 19.59588935 24.20584550 24.20953039 -0.00033384 0.00702360 -0.00432141
O 23.78508142 20.70483906 15.60625395 0.00653897 -0.00202917 -0.00184430
O 19.33248703 24.54390789 16.08609357 -0.00230606 -0.00265049 0.00293783
O 23.02539232 20.47239440 23.70840878 -0.00364612 -0.00017352 -0.00032732
O 23.48548177 14.38606659 24.87556539 0.00312979 0.00088073 -0.00364156
O 18.59246484 18.32968447 0.77149155 0.00263014 0.00015790 -0.00020255
N 7.29515984 12.90014623 2.05925174 0.00156722 0.00002828 0.00227179
N 0.82451391 6.09285824 10.78809469 -0.00812684 -0.00280813 -0.01006351
N 3.18272562 0.03286836 5.58033670 -0.00281321 -0.00439979 0.00170874
N 5.16636939 6.55991792 14.34461820 -0.00603089 0.00482744 0.00180334
N 1.01530318 25.44946481 14.36857161 -0.00686816 0.00222958 -0.00532268
N 7.62482157 6.43972848 5.72289071 0.00548117 -0.00058259 0.00460695
N 5.16802299 12.87926390 10.30378879 -0.00177782 -0.00089430 -0.00141041
N 3.41141021 6.10671010 2.47247096 0.00042894 0.00361684 -0.00072669
N 7.81777694 13.16105915 18.48883844 0.00647587 -0.00410523 -0.00050991
N 1.14702640 6.21218866 27.25432108 -0.00100494 -0.00455418 0.00045534
N 3.33923361 25.38014557 22.52884603 -0.00372407 0.00199604 -0.00000965
N 4.91173052 6.86807649 30.66983747 0.00148262 -0.00172967 -0.00606746
N 0.90023507 25.55494656 30.54728558 0.00137371 -0.00919533 -0.00377943
N 7.74050983 6.67844769 22.47942201 -0.00258759 -0.00468567 0.00667003
N 5.04623518 12.96721737 26.64871062 -0.00412367 -0.00243362 -0.00138183
N 3.39831037 6.47258845 19.26500881 -0.00057613 -0.00075388 -0.00144747
N 7.27537548 25.47897382 3.10564199 0.00400606 -0.00218045 0.00325989
N 0.95852360 19.01349656 10.55218942 -0.00355630 0.00410742 -0.00339492
N 3.33305991 12.58298866 5.38459940 0.00733230 0.00272286 0.00325567
N 5.50018713 19.27966929 13.77450170 -0.00392388 0.00414743 0.00786879
N 1.11781240 12.62826002 13.47785789 -0.00092585 0.00018034 -0.00090213
N 7.37316037 19.21395495 5.77328492 -0.00055459 -0.00345687 -0.00228577
N 5.28962857 0.23296674 11.10343982 -0.00101132 0.00506147 0.00470111
N 2.85600287 19.09741729 2.09484110 0.00593566 -0.00377638 0.00369723
N 7.48127559 25.69292539 19.35013107 -0.00412838 0.00461352 0.00573589
N 1.10961966 19.53117709 26.66037696 -0.00074872 -0.00013678 0.00210770
N 3.12919650 13.11028143 21.84357189 -0.00174538 -0.00175636 0.00280742
N 5.01808527 19.44312531 30.39370902 -0.00147024 0.00499930 0.00470782
N 0.73471718 12.58150067 30.18436101 -0.00124049 0.00011391 0.00041138
N 7.45113689 19.12025211 22.17651854 -0.00053365 -0.00098095 -0.00180405
N 5.11948609 25.56294723 27.77087356 0.00008839 -0.00473008 -0.00579520
N 3.17503332 19.51587628 18.42978816 -0.00473999 -0.00287081 -0.00477034
N 16.27177248 12.88951547 2.15381041 -0.00139033 0.00338698 -0.00203960
N 9.53159964 6.32404580 10.87230250 -0.00172219 -0.00310708 -0.00317286
N 11.77758110 25.59510133 6.00880999 -0.00606439 0.00048331 -0.00111447
N 13.85531213 6.32781032 14.34865327 0.00018593 -0.00432081 0.00123049
N 9.48478804 25.62924777 14.43083616 0.00143283 -0.00356577 0.00238926
N 16.19622758 6.78025051 5.93016426 0.00447071 0.00262600 0.00107476
N 13.80879165 12.98401802 10.25069884 -0.00127550 0.00209369 -0.00004984
N 11.76574638 6.24984964 2.55952923 0.00188065 -0.00367282 0.00437380
N 16.18379731 13.05609494 18.36420157 0.00385884 0.00847396 0.01233316
N 9.37149185 6.17312842 27.61365184 -0.00301538 0.00452244 -0.00006110
N 11.68407034 0.03037207 22.62764325 0.00081212 -0.00727414 0.00626512
N 13.23601563 7.04290714 30.56280916 0.00635813 -0.00339112 -0.00342994
N 9.32557926 25.62282129 30.89209827 0.00149017 -0.00473165 0.00570325
N 16.19386722 6.62346717 22.21659066 -0.00283981 -0.00403194 0.00316209
N 13.73605064 12.76245762 26.69203957 0.00216177 -0.00525691 0.00028665
N 11.97420589 6.50730078 19.24194107 0.00363706 0.00004738 -0.00006172
N 15.92551808 25.69806360 2.92453304 -0.00022412 -0.00316570 -0.00273901
N 9.60597174 19.23239954 10.28936665 -0.00129431 -0.00094366 -0.00468808
N 11.35081416 13.20629024 5.46685133 -0.00090209 0.00043810 0.00089493
N 13.67705883 19.14649721 13.91568403 -0.00384014 0.00202124 -0.00546647
N 9.40786742 12.67042028 13.46901027 -0.00917100 0.00428454 0.00888350
N 16.12170236 19.24344784 5.83815785 -0.00133579 -0.00079211 -0.00111459
N 13.71108725 25.49757380 11.10979102 -0.00004540 -0.00072745 0.00511670
N 11.87200850 19.07848610 2.26168687 0.00142956 -0.00288984 0.00374524
N 16.01019503 0.13600084 19.38623077 0.00149022 0.00421801 -0.00363159
N 9.35820997 19.00684174 27.13206075 -0.00421228 0.00104951 0.00277992
N 11.84325921 12.64164946 22.02013968 -0.00538649 0.00480591 -0.00756351
N 13.68458660 19.34507078 30.57292076 0.00525832 -0.00335310 -0.00367823
N 9.39235774 12.83585408 30.28746202 0.00414859 0.00828408 -0.00446629
N 15.95222197 19.51850113 22.32849702 -0.00114713 0.00554570 0.00090840
N 13.59568448 0.23492611 27.81172323 -0.00125202 -0.00331202 0.00877174
N 11.88690809 19.19311621 18.84103008 -0.00061259 0.01056859 0.00232351
N 24.44641291 12.81564268 2.01498857 0.00253664 -0.00165289 0.00373796
N 18.13315092 6.20390542 10.72205592 -0.00269046 0.00501450 0.00244986
N 20.42881919 25.63701383 6.11898050 -0.00289535 0.00031950 0.00440049
N 22.22733631 6.81706337 14.15963539 -0.00278165 0.00665128 -0.00097573
N 17.98090617 25.39001250 14.50194573 0.00318380 -0.00266819 -0.00132221
N 24.32041849 6.54233433 5.83766646 -0.00491232 -0.00089812 0.00012243
N 22.36455149 12.92324879 10.47698594 0.00175903 0.00265510 -0.00111802
N 20.01904722 6.27753099 2.49691864 0.00349919 -0.01051991 -0.00185944
N 24.45293976 13.06111693 18.30198414 0.00126056 -0.00602165 0.00051407
N 17.76770016 6.24365925 27.45319732 -0.00165652 -0.00655242 0.00142970
N 20.29206647 0.00690508 22.64487871 -0.00633339 0.00131766 0.00405574
N 22.09954927 6.50998351 30.73191935 0.00196000 0.00279739 0.00045183
N 17.86816837 25.52648425 30.86717349 0.00076782 0.00467812 0.00358816
N 24.88951373 6.73037166 22.19530517 -0.00414806 0.00647334 -0.00478700
N 22.04762000 13.39675650 26.35564658 0.00811798 0.00194534 0.00252302
N 20.24317531 6.39246824 18.89961784 -0.00016797 0.00147948 -0.00060742
N 24.29087060 0.29939460 2.69829694 -0.00007780 -0.00077143 -0.00108356
N 18.33534609 19.41527718 10.41431235 -0.00523163 -0.00053534 -0.00668926
N 20.25196021 12.83849845 5.71582071 -0.00247065 0.00008955 -0.00191437
N 22.34402885 19.61351264 14.14595108 -0.00020730 -0.00465566 -0.00285036
N 18.14739463 12.88817963 13.68120846 0.00214269 0.00177411 -0.00529522
N 24.49758902 19.26491019 5.74329123 0.00254606 -0.00154554 0.00303684
N 22.10431725 0.10584346 11.00662728 0.00128090 -0.00033723 0.00059047
N 20.11713182 19.19282553 2.26129876 -0.00032632 -0.00712778 0.00933210
N 24.66767620 0.42385863 19.31366498 0.00557610 0.00028784 0.00686579
N 17.82215544 19.15903325 27.07588999 -0.00425824 -0.00053343 0.00267890
N 20.49721166 12.62311217 21.84449030 0.00296103 0.00522483 -0.00618157
N 22.15957411 19.22314682 30.35914569 0.00571831 -0.00005386 -0.00190138
N 17.86172704 12.96331240 30.05369886 0.00732345 0.00357225 -0.00418036
N 24.25351539 19.36515127 22.14196288 -0.00247454 -0.00297350 0.00128582
N 22.18424102 0.43148260 27.23920242 0.00237593 -0.00626190 -0.00137689
N 20.39803059 19.09223493 18.79078331 0.00521004 -0.00199000 0.00515698
C 7.66793698 0.32350565 5.38599200 0.00337167 0.00419079 0.00031495
C 1.10396461 6.08445138 13.18270260 0.00201731 -0.00624371 -0.00175583
C 3.27761745 12.34084249 2.98609623 0.00828657 -0.00572880 0.00024772
C 5.19067946 6.65162515 11.96691074 0.00115504 0.00551225 0.00268642
C 1.10937560 12.30021593 11.06961019 0.00474692 -0.00265915 -0.00228895
C 7.56575570 6.91432146 3.36294066 -0.00638177 -0.00780886 -0.00045814
C 5.24748238 0.37736264 13.49638677 -0.00212151 0.00046424 0.00262978
C 3.49723879 5.86289690 4.82247060 -0.01015798 -0.00144282 -0.00448541
C 7.34802664 0.98013948 6.59256159 0.00006479 0.00013421 0.00185984
C 1.53402122 5.49371880 14.38684741 0.01235849 0.00155638 -0.00563504
C 2.95949415 11.62021800 1.88329888 -0.00397661 0.00133021 -0.00589589
C 5.53171278 7.17087301 10.76789456 0.00399995 0.00214314 0.00220169
C 1.53886643 11.68745347 9.92136095 -0.00315856 -0.01045374 -0.00357998
C 7.02941473 7.64640089 2.32406583 -0.00284127 0.00417778 0.00284556
C 5.65907784 0.93026401 14.80617908 -0.00476617 0.00083286 -0.00400299
C 3.11200738 5.31976250 5.99721865 -0.00004534 0.00033428 0.00463067
C 6.50614848 2.07919043 6.54224327 -0.00113646 0.00290436 -0.00142369
C 2.30221286 4.29875194 14.34267082 0.00339647 -0.00287092 0.00455528
C 2.03204301 10.57924070 2.03179251 -0.00325647 -0.00392193 0.00323102
C 6.36166725 8.30230292 10.74317680 0.00502033 0.00947408 -0.00116948
C 2.49170879 10.64303886 10.05634785 -0.01027916 -0.00323341 0.00001762
C 6.26642245 8.84910298 2.61344735 -0.00427948 -0.00208353 0.00546976
C 6.51741737 2.01293182 14.85735847 0.00760485 -0.00315004 -0.00250548
C 2.14884572 4.33179055 6.03263852 -0.00262291 -0.00518056 -0.00177628
C 6.08983140 2.55218009 5.25242209 0.00210888 -0.00105171 0.00000688
C 2.55283090 3.72114914 13.09652819 -0.00060111 0.00454833 0.00180363
C 1.78094937 9.98831996 3.27366426 -0.00024913 -0.00077659 -0.00684812
C 6.63537587 8.93260136 11.95722001 0.00148842 -0.00408873 -0.00431518
C 2.74988951 10.10419031 11.34824980 0.00686345 -0.00442008 0.00284230
C 6.12507739 9.28909285 3.91164977 -0.00506959 0.01083312 0.00860037
C 6.86067954 2.56820040 13.57813353 -0.00059355 0.00324034 0.00001835
C 1.82216064 3.61801297 4.80830108 -0.00308618 0.00217396 -0.00564637
C 6.36788086 1.78144600 4.15699769 0.00346792 -0.00503136 -0.00065669
C 2.03515694 4.26853865 11.95011063 -0.00018920 0.00259467 0.00126770
C 2.32873049 10.57504165 4.40384655 0.00020325 0.00527267 0.00752629
C 6.14829437 8.47799957 13.21973358 0.00334089 -0.00381049 -0.00281948
C 2.27525547 10.71787276 12.49692899 -0.00361414 0.00031470 0.00186928
C 6.68418488 8.51823925 4.87724895 -0.00124392 0.00551932 -0.00715093
C 6.47695658 2.06527387 12.35168643 0.00728366 0.00135502 0.00248065
C 2.21207734 4.22527885 3.65956232 -0.00679917 0.00057818 -0.00451949
C 7.14969941 0.64201512 4.15534352 0.00527208 -0.00157342 -0.00170607
C 1.26072506 5.47286145 11.97529611 0.00449517 -0.00685342 0.00292159
C 3.00743063 11.81492429 4.27428797 0.00354781 0.00684830 -0.00108139
C 5.48592558 7.31341729 13.18933734 0.00504547 0.00168002 -0.00073550
C 1.52453643 11.87696663 12.38299820 0.00081129 -0.00289314 0.00351559
C 7.27450787 7.30444147 4.64356882 0.00002269 0.00321946 0.00181937
C 5.68088377 0.91229893 12.27567955 0.00086285 -0.00791693 -0.00348204
C 2.99000171 5.42336952 3.60370601 0.00488031 0.00075507 -0.00404790
C 6.80318440 0.12723991 1.86560822 -0.00324613 0.00331760 -0.00285260
C 1.59557389 5.94744430 9.58598838 -0.00393980 0.00125097 0.00132824
C 2.83426855 12.43504214 6.64187621 0.00380021 0.00743951 -0.00917351
C 5.66389962 6.82097891 15.63906251 -0.00243692 0.00176874 0.00213830
C 1.75324723 12.56733601 14.66035633 -0.00308348 -0.01346506 -0.00572097
C 7.17138001 6.47632716 7.04537173 -0.00648598 -0.00727734 0.00438799
C 6.00396975 0.30666561 9.93886230 -0.00958384 0.00154974 -0.00238874
C 2.53479975 6.23571396 1.38014441 -0.00060424 0.00760581 -0.00713938
C 7.25893014 12.15089095 16.32635997 0.00413824 -0.00513425 0.00297998
C 1.64154133 7.10840340 8.62094641 -0.00095573 0.00242605 0.00733799
C 2.76011144 1.27837307 7.78797683 0.00120682 0.00200552 0.00415815
C 5.44761786 5.56695573 32.63778369 0.00182085 0.00440411 -0.00243606
C 0.94764570 0.68985194 32.78131733 0.00647905 0.00208040 0.00343148
C 7.43210887 5.37244373 8.01370782 -0.00468616 0.00294226 0.00345049
C 5.82318907 11.52150204 8.39686763 -0.00153427 -0.00368414 -0.00329167
C 3.07601983 7.64074733 17.16810723 -0.00253920 -0.00084731 0.00123133
C 7.46641313 0.22864768 21.79342826 0.00985772 0.00382694 0.00837575
C 0.90355154 6.01425500 29.65754326 -0.00478680 0.00000545 0.00409691
C 3.27660076 12.72445486 19.57187867 -0.01100726 -0.00552477 0.00268037
C 5.11968080 7.11591642 28.27458244 0.00709437 -0.00012296 -0.00650703
C 0.83904658 12.48393014 27.77757476 -0.00277945 0.00409954 -0.00619613
C 7.67436686 6.97829931 20.09278719 -0.01060172 -0.00674041 0.00303747
C 5.11254870 0.35311890 30.10621893 0.00994027 -0.00831597 0.00153669
C 3.56953421 5.90109418 21.55118530 -0.00955865 0.00473103 -0.00546499
C 7.13633126 0.86292815 22.97746243 0.00105313 0.00134682 0.00135417
C 1.11139602 5.40955580 30.83337490 -0.00036808 0.00713167 0.00022955
C 3.06542508 12.06742514 18.44715325 0.00058650 -0.00537222 -0.00289451
C 5.65962602 7.72525195 27.21282572 0.00092838 -0.00205446 0.00321904
C 1.29787027 11.87131311 26.61840567 -0.00014476 0.00166005 -0.00939423
C 7.18869727 7.66323361 19.01387334 -0.00675017 -0.00165069 -0.00006445
C 5.39614627 1.10963991 31.18789291 0.00222960 0.00194181 0.00086134
C 2.96127779 5.32650135 22.68471453 -0.00244609 0.00119209 -0.00487726
C 6.53040178 2.14167270 22.91890914 0.00143735 -0.00308896 -0.00239372
C 1.96331602 4.23872536 30.89010647 0.00355454 0.00163145 0.00011496
C 2.22345283 10.93859919 18.44370300 -0.00353678 -0.00078248 0.00087508
C 6.24458272 9.02140882 27.33005189 0.00491544 -0.00738284 0.00364596
C 2.09158873 10.71536136 26.74363324 0.00000306 0.00236387 -0.00127314
C 6.40993919 8.84967647 19.06059819 0.00598030 -0.00255589 -0.00531611
C 6.23433540 2.27494643 31.15605347 -0.00628594 0.00301931 -0.00202392
C 2.09382352 4.28986334 22.54012685 0.00708113 0.00103501 0.00521270
C 6.26200403 2.69456875 21.70890468 0.00531165 0.00570718 -0.00044659
C 2.42149594 3.65882345 29.70982072 0.01276563 -0.00991852 0.00459008
C 1.83958940 10.38363182 19.66164047 -0.00150971 0.00076654 -0.00060999
C 6.44876808 9.51874954 28.62500136 0.00000793 -0.00108106 0.00496657
C 2.29597560 10.08918644 27.95298957 0.01259470 0.00123965 0.00532830
C 6.16755891 9.35929857 20.36199115 0.00228929 0.00126884 0.00121534
C 6.47361608 2.68073116 29.83177641 -0.00025597 -0.00347088 0.00688381
C 1.99370264 3.65492119 21.27631862 -0.00069009 0.00123952 -0.00480305
C 6.49665762 2.06177675 20.52675975 -0.00064364 -0.00038355 0.00366105
C 2.17756298 4.33837341 28.48794269 -0.00241847 -0.00522809 -0.00187505
C 2.13759541 11.07190105 20.85347129 0.00150335 -0.00522362 0.00449151
C 6.10077778 8.86269740 29.79780407 0.00004092 -0.00573978 -0.00629762
C 1.90805248 10.77145948 29.10362025 0.00114792 0.00372003 -0.00128884
C 6.71840141 8.70746483 21.46429384 -0.00087122 0.00348541 0.00823396
C 6.15910910 1.90199810 28.72480607 -0.00361924 -0.00189558 -0.00108138
C 2.53712254 4.28857494 20.11804096 -0.00261698 0.00470610 -0.00305442
C 7.12236116 0.76408707 20.55035698 -0.00385222 0.00422478 0.00185716
C 1.42349925 5.52519456 28.43410744 0.00732452 -0.00106544 0.00476963
C 2.79047965 12.26735938 20.80504144 0.00270391 0.00057575 0.00384912
C 5.30328964 7.64145570 29.64702925 -0.00523965 0.00178075 0.00599766
C 1.23607066 11.94899146 29.01955763 -0.00286873 -0.00473515 0.00602632
C 7.42948365 7.46386663 21.38848186 -0.00496114 -0.00473852 0.00332906
C 5.55273877 0.69509838 28.78483260 -0.00065340 -0.00103077 0.00158640
C 3.14418007 5.61691135 20.30192580 0.00175640 0.00160638 0.00329985
C 6.89006359 0.16821516 18.12992552 0.00379253 0.00101513 -0.00040160
C 1.95181990 6.07943542 26.15950564 0.00321524 0.00315260 0.00354625
C 2.67028578 12.91529377 23.08468575 -0.00478197 -0.00105957 -0.00841770
C 5.44557589 6.88168513 31.91972226 -0.00259279 0.00075385 -0.01077308
C 1.46066627 12.57515753 31.35032432 -0.00379926 -0.00504319 -0.00673238
C 7.19459692 6.88079144 23.75239554 -0.00338321 0.00180288 -0.00320103
C 5.31584524 0.07998478 26.46488610 0.00411578 -0.00347962 -0.00255670
C 2.95016163 6.41613800 18.01900888 0.00408123 0.00501648 -0.00785071
C 6.78333610 12.09060016 32.74872015 0.00325966 0.00182830 -0.00251215
C 2.06263312 7.29428343 25.18337314 -0.00522769 0.00712878 0.00527352
C 2.74310200 0.65605593 24.65186156 0.00028644 -0.00122294 0.00431040
C 5.59398142 5.60157995 16.49919297 -0.00137055 0.00081963 0.00755043
C 1.48116768 0.85415968 16.53225625 0.00283310 0.00059215 -0.01213173
C 6.91572233 5.63334101 24.51323027 0.00110788 0.00099741 0.00271287
C 5.41039774 11.79253999 24.57204524 0.00433795 0.00418076 0.00227375