1920
Time=67000.00000006 pbc="T T T" Lattice="25.59289137 0.00000000 0.00000000 0.00000000 25.63453814 0.00000000 0.00000000 0.00000000 32.89459764" energy=-12252.90773141 virial="-52.50527430 -2.82740155 7.11723727 -2.82740155 -64.52364760 31.79460795 7.11723727 31.79460795 -32.80153734" stress="-0.00045764 -0.00017789 0.00034656 -0.00017789 -0.00083795 0.00143758 0.00034656 0.00143758 0.00066036" Properties=species:S:1:pos:R:3:vel:R:3
O 5.82884717 2.21954587 6.85015886 -0.00031467 0.00539768 -0.00231200
O 2.24810498 3.63278046 15.14836194 -0.00232602 0.00222367 0.00430329
O 1.64808176 9.77371601 1.81390052 -0.00057426 0.00081933 0.00422425
O 6.34140471 8.70986725 9.41719896 -0.00144958 -0.00138952 0.00455294
O 1.88542420 9.81489017 9.88312513 -0.00677751 -0.00351407 -0.00191482
O 6.03928905 9.03837967 1.34707112 -0.00089151 -0.00206788 0.00363658
O 6.42717147 2.88928755 15.09359120 0.00394744 0.00107185 0.00913928
O 1.77998221 3.51122234 6.84495261 -0.00038486 -0.00048905 0.00131296
O 6.08429896 1.30263354 17.08045847 0.00468207 0.00148385 -0.00064659
O 2.01687764 4.91393436 9.05922609 -0.00269631 -0.00482544 -0.00647735
O 2.28570975 11.32713946 7.90453783 0.00263068 -0.00431878 0.00495028
O 6.46665061 7.65421923 32.15120797 0.00666522 0.00360067 0.00063790
O 2.06076430 11.56934555 32.63514926 0.00373409 0.00053764 -0.00438348
O 6.12094214 7.19780317 7.41122681 -0.00056323 -0.00649134 -0.00506994
O 6.31396537 0.95815982 8.97932751 -0.00194318 0.00067415 0.00266210
O 1.55995897 5.20076454 16.98991198 0.00229445 -0.00191887 0.00034526
O 6.39167511 3.24953189 23.04303381 -0.00503646 -0.00190073 0.00721851
O 1.99908823 3.55714692 31.29847920 0.00222545 -0.00047443 0.00420510
O 1.57435221 10.16990154 18.26010774 -0.00266959 -0.00932179 -0.00085816
O 7.25151199 9.09336146 26.05596517 -0.00433460 -0.00577549 -0.00334449
O 2.20835130 9.79992812 26.48866515 0.00390859 0.00195055 0.00183138
O 5.42971948 8.79310878 17.65181927 0.00117204 -0.00356969 0.00769213
O 6.95222310 2.85378686 31.20079303 -0.00161042 0.00254325 0.00402289
O 1.63490708 3.81087706 23.05369975 0.00252559 0.00240636 -0.00043541
O 6.94438263 1.37582585 0.39913555 0.00013228 -0.00028837 0.00638272
O 2.16199410 5.14735233 25.10014162 0.00254472 0.00026560 -0.00062811
O 2.76724658 11.28804403 24.46324508 0.00053661 -0.00643635 -0.00209068
O 6.30943613 7.59764358 15.75456972 0.00262128 -0.00286308 -0.00250323
O 2.07973621 11.53664513 16.13000226 -0.00735451 -0.00563205 0.00182358
O 6.45055210 7.95626935 23.80331579 -0.00308763 -0.00774045 0.00215808
O 6.40254678 1.51770276 25.00428289 -0.00180931 -0.00894973 -0.00392002
O 2.56650459 5.18961840 0.46308033 -0.00411708 0.00333951 -0.00073702
O 5.84625402 15.31610288 7.53572603 -0.00041581 0.00300009 -0.00433416
O 2.78721550 16.29463558 14.92105025 0.00233455 -0.00663847 0.00480592
O 2.10137142 22.77907969 0.85490835 0.00334779 -0.00157444 -0.00038632
O 7.04483043 21.69692549 9.47051085 -0.00076910 0.00124908 0.00423214
O 2.63024752 22.76125323 9.50602775 -0.00041789 -0.00197577 0.00605668
O 6.07730678 22.13448596 0.99611807 -0.00101226 -0.00135149 -0.00246435
O 6.88001780 15.25004132 15.69524245 -0.00185843 0.00133542 -0.00593485
O 1.86051369 16.21841455 6.79878953 -0.00348573 -0.00627810 0.00272585
O 6.16099200 13.74190677 17.56873456 0.00381160 0.00065331 0.00710373
O 1.89115393 17.66271105 8.87755086 -0.00351655 -0.00089539 -0.00506065
O 2.17168221 23.90861975 7.22224220 -0.00299638 0.00364610 0.00011021
O 6.46107147 20.52188934 31.86013998 0.00189887 -0.01068721 0.00566649
O 2.42787462 24.39447654 31.85711503 -0.00165322 -0.00632185 0.00235063
O 6.58767854 20.65150505 7.29169242 -0.00359356 -0.00121692 0.00200502
O 6.54244862 13.82606315 9.68925910 0.00439977 -0.00110926 -0.00406883
O 2.45120483 17.89309332 17.18796985 0.00207813 0.00188539 -0.00577965
O 6.11978991 15.74791491 23.41585235 0.00044174 -0.00314979 0.00409402
O 2.72177532 16.37709979 31.28870523 0.00280590 0.00830925 -0.00007351
O 1.40429011 22.82675480 17.31558442 -0.00344931 0.00776642 -0.00311194
O 7.22848382 22.01896577 25.77491041 -0.00081915 -0.00084592 -0.00497517
O 3.30870333 23.32491279 25.67533545 0.00369096 -0.00590832 0.00560930
O 5.47492702 21.99628123 17.63726320 0.00129318 -0.00487454 -0.00343586
O 7.25488287 15.57923780 32.14070585 -0.00233761 0.00675904 -0.00139762
O 2.09342593 16.09640192 23.38413867 -0.00165902 -0.00331978 -0.00344515
O 6.57852937 14.15390110 1.11233596 0.00485638 -0.00001561 0.00652637
O 2.00247545 18.16647241 25.32352284 0.00171705 -0.00360646 -0.01042893
O 2.92858325 24.50809682 23.32399704 0.00057530 0.00722392 -0.01011291
O 6.01038915 20.50537138 15.64130906 -0.00224835 0.00456477 -0.00324379
O 1.93553477 24.53278237 15.34163868 0.00515003 -0.00009248 -0.00246815
O 6.65788255 20.71753029 23.81772551 0.00289352 -0.00062287 -0.00258129
O 6.32311837 14.40946407 25.86367926 0.00021869 -0.00277240 -0.00069439
O 2.50653330 17.71570354 0.62358500 0.00189081 -0.00132558 0.00043660
O 14.74208692 2.63800163 6.62445605 0.00324979 0.00187359 -0.00362166
O 10.70251064 3.86664315 15.44578019 -0.00443181 -0.00156398 0.00778679
O 9.98212662 10.15608877 1.54461217 -0.00151826 -0.00411324 0.00345427
O 15.10631267 9.03220241 9.43824342 -0.00216259 -0.00799024 -0.00276088
O 11.15548011 9.93845538 9.67084548 0.00397356 0.00061653 0.00513567
O 14.46702911 9.18684472 1.62265230 -0.00296725 0.00292356 0.00022166
O 15.21876697 2.78060597 14.95503933 0.00073063 0.00411156 0.00009201
O 10.05546286 3.52047977 7.15745164 0.00358871 0.00806351 -0.00314085
O 14.81038212 1.08204061 16.96248240 0.00715927 0.00051036 -0.00552770
O 10.65062486 5.08022071 9.17812552 -0.00051961 -0.00600653 0.00251577
O 10.83336917 11.38578006 7.73085959 0.00007217 -0.00134287 0.00689559
O 14.69210136 7.60948720 32.55418342 -0.00666651 -0.00181294 -0.00557197
O 10.46897338 11.48762884 32.31262399 -0.00138381 -0.00587929 0.00581737
O 14.78865994 7.42529857 7.54917803 0.00075784 0.00191867 -0.00157819
O 14.87006246 0.97136635 8.73475595 -0.00322368 -0.00478424 0.00295265
O 10.44854991 5.66497894 17.33587705 -0.00215751 -0.00413973 -0.00391569
O 14.38387303 3.13472221 22.97177116 0.00484692 0.00483286 0.00336453
O 11.14971894 3.95507274 31.84652025 -0.00590769 0.00002846 -0.00149336
O 9.90242326 10.49667950 18.03652089 -0.00252197 0.00158714 -0.00597497
O 15.24611772 9.51693365 26.25925177 0.00302945 0.00046181 0.00723770
O 11.45301921 10.39031462 26.15960030 -0.00089068 0.00073893 -0.00249945
O 14.37832194 9.08348956 17.93504901 0.00140332 -0.00714431 -0.00335995
O 15.24130435 3.16584580 31.03619841 -0.00046271 -0.00348084 0.00167992
O 10.19812585 4.02110622 23.32330551 -0.00684599 0.00540763 0.00210745
O 14.98646417 1.65636743 0.23013101 -0.00165485 0.00252587 0.00828991
O 10.57497655 5.34874832 25.68169292 0.00297337 -0.00536952 -0.00230540
O 10.64049743 11.57015181 24.02360292 0.00003115 -0.00103528 0.00190369
O 14.77515333 7.43127215 15.94798473 0.00382442 -0.00084508 0.00480473
O 10.86324053 11.43393538 15.97853054 -0.00210182 -0.00553864 0.00397775
O 15.27732432 7.90880414 24.23538426 0.00103190 0.00029900 -0.00639119
O 14.71412591 1.57845660 24.95854041 -0.00154125 -0.00408547 -0.00305158
O 10.77717486 5.22420962 1.10320483 -0.00187963 -0.00141112 0.00664549
O 14.17613088 15.22121400 6.81486304 -0.00223015 -0.00383320 -0.00241522
O 10.87481768 16.50360981 14.87032727 -0.00633692 0.00018038 0.00523363
O 10.14793425 23.05467458 1.17154347 0.00580214 0.00251119 -0.00388162
O 15.36225577 21.54443305 9.60048437 -0.00185875 -0.00163268 0.00007304
O 11.17666980 22.97773212 9.42110544 0.00178083 0.00058679 -0.00055347
O 14.86356807 22.47745342 1.21608202 0.00146560 0.00364228 0.00054390
O 15.31293969 15.48713401 15.06206991 -0.00426070 0.00600949 -0.00335523
O 9.86813194 16.25573198 6.53723139 -0.00079867 0.00159594 0.00339517
O 14.86551354 13.93214260 17.24584911 -0.00316482 0.00191848 0.00055991
O 10.94806607 18.08049567 8.78316170 0.00447787 -0.00157038 -0.00490795
O 10.79354768 24.37787752 7.41013534 0.00005216 0.00434399 0.00085334
O 14.62140434 20.80278516 32.09324883 -0.00352663 0.00145335 0.00275479
O 10.53373991 24.43634927 31.96185426 0.00052312 0.00464875 -0.00121672
O 14.84301171 20.41043691 7.37885740 0.00320290 0.00489110 -0.00419214
O 14.80563658 14.04397296 9.01825303 0.00366404 0.00187958 -0.00307520
O 10.94963531 18.06212946 16.88150972 0.00431957 -0.00253267 -0.00303953
O 14.09117456 15.45797356 23.44860617 0.00365975 0.00574327 -0.00133393
O 11.26059438 16.47827110 31.39524820 -0.00470641 0.00040455 0.00287533
O 9.87768322 22.96055609 17.57521464 0.00076828 -0.00018509 -0.00078079
O 15.40251325 22.27531002 25.91783279 0.00009180 -0.00395014 -0.00506392
O 11.52941165 23.31197810 25.79862948 -0.00787812 0.00532811 -0.00092521
O 14.25344673 21.92088167 17.72588117 0.00317674 -0.00345182 -0.00150422
O 15.57426109 15.76860478 31.66281010 0.00004645 0.00038910 0.00518700
O 10.46344338 16.49469605 23.21214911 0.00372834 0.00435896 -0.00074344
O 15.15872196 14.17417370 0.61846079 -0.00271972 -0.00157904 0.00292109
O 10.43194254 18.13057618 25.12714235 -0.00527278 0.00231221 0.00412520
O 10.63489247 24.56045118 23.62128536 0.00040858 0.00397892 -0.00499236
O 14.72752786 20.36066169 15.84441634 -0.00087990 0.00221196 0.00127613
O 10.44239423 24.38973151 15.61310009 0.00050265 -0.00686416 -0.00456940
O 15.14767183 20.59087148 23.99394530 0.00314225 0.00426876 -0.00345139
O 14.95784514 14.41130632 25.41010548 0.00318966 -0.00406951 -0.00721389
O 10.97835764 18.08481034 0.52868647 0.00661570 0.00004758 0.00172573
O 22.62948643 2.72743242 6.72009584 0.00520534 0.00200222 0.00225299
O 19.20100256 3.87982317 15.23034757 -0.00017407 0.00262069 0.00950808
O 18.61466210 9.99315210 1.47662028 0.00003261 0.00322908 0.00073041
O 24.37487737 9.00288169 9.51180081 -0.00097547 0.00196970 0.00009528
O 19.26598914 10.04685396 9.60854242 0.00210996 -0.00014844 -0.00441274
O 22.76336710 8.99058066 1.54642543 0.00294550 0.00509883 -0.00394541
O 23.73512617 2.89045067 15.01964378 0.00154795 0.00029634 -0.00393238
O 18.93992200 3.94871386 7.11405683 -0.00516722 -0.00247583 -0.00114951
O 23.28528694 1.19142390 17.14021507 0.00294866 0.00052146 -0.00326025
O 19.56091694 5.37974992 9.09194589 -0.00083707 -0.00251057 0.00490315
O 19.26967081 11.51359955 7.54038078 -0.00053042 0.00559741 0.00509901
O 23.79614434 7.69176913 32.32918979 0.00068666 -0.00374363 -0.00373864
O 19.17821261 11.64882786 32.46198448 -0.00498590 -0.00397531 -0.00523912
O 23.92109559 7.39512513 7.74711771 0.00537495 0.00669725 0.00111176
O 23.00777730 1.19447690 8.79473462 0.00209101 0.00006296 -0.00300771
O 18.86485105 5.19354643 17.32504914 0.00309947 -0.00036966 -0.00057006
O 22.97670225 2.82202399 23.41902560 0.00609143 0.00546412 -0.00216809
O 20.12597591 3.51739314 32.18485904 0.00039118 -0.00060625 -0.00154257
O 18.89918711 10.51177835 17.81738223 -0.00015198 0.00063705 0.00053829
O 24.22711948 9.35107133 26.12436001 -0.00241129 0.00381612 -0.00296962
O 19.81884477 9.92300080 26.42748428 -0.00395409 0.00199437 -0.00465389
O 22.50823532 8.74372900 17.84521208 0.00079779 -0.00498008 0.00079569
O 23.84101077 2.79445360 31.45623233 0.00024724 -0.00343925 -0.00539720
O 19.27599845 4.09464705 23.77731640 0.00166577 0.00010723 -0.00044615
O 24.09111072 1.23756120 0.53936381 -0.00253258 -0.00007428 0.00298893
O 19.46544863 5.13799892 26.06275584 0.00185699 0.00351498 0.00077614
O 19.25571668 11.48719909 24.13363342 -0.00487255 0.00136493 0.00522357
O 23.29562494 7.68665411 15.65211719 0.00296260 0.00371390 0.00849680
O 19.32100092 11.90072946 15.71294062 -0.00013268 -0.00022905 0.00325772
O 23.32149125 7.67206337 24.16262576 -0.00054912 -0.00315575 0.00055158
O 23.36993371 1.16502933 25.19080184 -0.00185455 -0.00262731 0.00375928
O 19.64434184 5.24680237 1.03018811 -0.00172622 -0.00725358 -0.00287490
O 22.82052708 14.98382619 7.21126270 -0.00148162 0.00494546 0.00076917
O 19.80718439 16.61549156 15.21234749 0.00966695 -0.00327311 -0.00275414
O 18.89521268 23.28616173 0.81723497 -0.00760551 -0.00712760 -0.00654630
O 23.12466750 21.58255612 9.22700430 0.00095049 0.00330227 0.00116499
O 19.58755644 22.83572425 9.09346472 -0.00036323 0.00291827 -0.00595999
O 22.89223676 22.05693150 1.30585668 0.00290933 0.00035845 -0.00562752
O 24.19526242 15.31676718 15.67757012 0.00125937 0.00362874 -0.00704367
O 18.87660527 16.07594885 6.87083819 -0.00186765 -0.00540434 0.00354238
O 23.45362737 13.69780946 17.59876891 0.00429937 0.00341642 -0.00229623
O 18.91886504 17.72880697 8.90055628 -0.00186540 -0.00646034 -0.00544554
O 19.24410805 24.46313169 7.04629305 0.00371657 -0.00133818 0.00213705
O 23.07609324 20.64352043 31.88155041 -0.00791658 -0.00453790 -0.00156555
O 19.69887095 24.52893937 31.73432770 -0.00340954 -0.00296646 -0.00147708
O 23.41805114 20.07996328 7.25126534 0.00201180 0.00636953 0.00180830
O 23.65587306 13.91132514 9.39317067 -0.00175986 0.00033207 0.00089950
O 19.05677059 18.04064925 17.23244659 -0.00195353 -0.00090765 0.00471186
O 22.60389199 15.73685463 23.50392139 0.00042432 0.00072594 0.00448366
O 20.29670563 16.49539348 31.77325516 -0.00029648 -0.00064454 -0.00629069
O 18.10948461 23.11829638 17.54586370 -0.00497226 -0.00002407 -0.00690364
O 24.10061693 21.93389319 25.68371485 -0.00168966 -0.00050666 0.00720926
O 19.44588692 22.89649765 25.64024736 -0.00169402 0.00093927 0.00243520
O 22.60214476 21.48306167 17.61076961 -0.00047931 0.00069349 0.00272308
O 24.30234075 15.68280500 31.69720687 0.00164044 -0.00145359 -0.00232315
O 18.53554392 16.62658801 23.64784962 0.00078884 -0.00646471 0.00221099
O 24.27778472 14.34398962 0.96177195 -0.00020269 -0.00031455 -0.00288392
O 19.10867672 18.00236267 25.65714453 0.00178453 -0.00091579 0.00278748
O 18.94979414 24.43530410 23.71087039 0.00420537 -0.00016232 -0.00166758
O 23.14913601 20.23006654 15.47086281 0.00481446 0.00128029 -0.00001025
O 18.76506251 24.11878995 15.12319095 -0.00667853 0.00076778 0.00293738
O 23.53375872 20.54978492 23.77039046 -0.00451431 -0.00240148 0.00057976
O 23.01492935 14.28339560 25.63319845 -0.00277346 0.00241635 -0.00767547
O 19.65669134 17.90687939 0.87620788 -0.00031977 0.00517350 -0.00778651
N 7.35678323 12.84058141 2.82254460 -0.00219209 0.00117556 0.00157159
N 0.97572859 6.30657450 10.49072292 -0.00652789 0.00186764 -0.01307516
N 3.20508998 25.25551907 5.74901445 0.00505856 -0.00070708 0.00039396
N 4.99974895 6.39732687 14.28625744 -0.00038963 -0.00142383 -0.00313550
N 0.43673022 25.11896330 13.80474778 0.00819077 0.00400973 0.00625228
N 7.59295255 6.27335410 5.91775592 0.00373034 -0.00685169 0.00325634
N 5.27414180 12.64259776 11.21417780 0.00007724 -0.00060155 -0.00129290
N 3.32166591 6.47025354 2.28794829 0.00589217 -0.00352606 0.00220834
N 7.53151324 12.57975619 19.01447236 -0.00494621 -0.00699581 0.00749187
N 1.37852374 6.58067502 26.67371196 -0.00188473 -0.00350272 -0.00649889
N 3.78671688 25.54211231 21.54087470 -0.00467188 0.00263935 0.01092235
N 5.22770366 6.67691156 30.54541535 0.00135874 -0.00375092 0.00035033
N 1.14797504 25.44459371 30.30010016 -0.00093209 -0.00231711 0.00458882
N 7.39769239 6.60767595 22.21053476 -0.00057311 0.00154917 0.00271135
N 5.27953268 13.18758291 27.56374088 -0.00362701 0.00341276 -0.00328289
N 2.97372869 6.31789800 18.41118616 -0.00094699 0.00513425 -0.00105371
N 7.65861460 25.58681364 2.06906931 -0.00851440 -0.00715673 -0.00106975
N 1.04165040 18.99226233 10.53124530 -0.00016767 -0.00351605 0.00449978
N 3.12228661 12.68909480 6.26627722 0.00173638 0.01015267 0.00213967
N 5.09799155 19.20241383 13.95079764 0.00066083 -0.00562765 -0.00148579
N 1.08004984 12.69668686 14.44619616 -0.00134606 -0.00029849 0.00378639
N 7.63281468 19.40993725 5.63410570 0.00443068 -0.00186212 0.00295656
N 4.98861883 25.63305521 10.61293592 0.00480366 -0.00287401 -0.00209897
N 3.55824190 18.91970968 2.19377729 0.00125565 0.00432000 0.00314963
N 7.14314089 0.01932134 18.64749860 0.00691207 0.00384256 0.00566436
N 0.87266849 19.28479635 26.93247306 0.00334854 0.00071092 0.00109041
N 3.19490810 12.85057743 22.85906544 -0.00594460 -0.00162082 0.00230194
N 5.10806819 19.52285306 30.29586104 0.00195562 -0.00354165 0.00250299
N 1.54303970 13.03175171 30.93785982 0.00725671 0.00104220 0.00120216
N 7.55730350 19.49104553 22.02857413 -0.00146216 -0.00104537 -0.00194299
N 5.47978157 0.29233843 26.65648777 0.00200735 -0.00119593 -0.00328249
N 3.46730508 19.08122566 18.84235998 0.00851157 -0.00564666 -0.00240013
N 16.33173219 12.98443688 2.24320506 -0.00226394 0.01045076 -0.00182687
N 9.20742562 6.23297629 10.59139255 0.00633089 0.00026634 0.00255943
N 12.11315637 25.41298192 5.77477171 -0.00262116 0.00344121 -0.00093729
N 13.89487802 6.30959167 14.15004545 0.00299512 -0.00089737 0.00689524
N 9.41024172 25.56188264 13.94616468 -0.00051391 -0.00343313 -0.00127448
N 16.18809960 6.37214923 6.04921400 0.00507214 0.00441498 -0.00263698
N 13.73391654 12.73440943 10.43147883 -0.00189430 0.00138681 0.00633770
N 12.16453191 6.26922758 2.68191201 -0.00365992 0.00553162 -0.00385135
N 16.21211698 13.15056884 18.91628706 0.00291675 0.00794080 -0.00443075
N 9.29960316 6.42635313 27.21699294 -0.00170963 0.00025760 -0.00307560
N 11.91672158 25.54872943 21.95706940 0.00437048 0.00208854 -0.00843499
N 13.83075289 6.47352703 30.78608395 -0.00036681 -0.00099337 -0.00108867
N 9.47203686 25.58918810 30.30528952 0.00008530 -0.00949822 0.00077705
N 15.99554985 6.54779982 22.56904579 0.00373012 0.00612294 0.00387690
N 14.20820755 12.88224514 27.05467399 -0.00031878 -0.00060866 0.00136272
N 11.57838391 6.94743720 18.91080559 0.00009383 -0.00670499 -0.00509266
N 15.76340435 0.02345010 1.73034905 -0.00355043 0.00271663 0.00294488
N 9.45047582 18.98605301 10.18778195 -0.00411481 -0.00222449 -0.00140653
N 11.58292731 12.76825243 6.07288428 -0.00099478 -0.00918276 0.00357560
N 13.74449886 19.04570228 14.23351749 0.00668228 0.00075357 0.00607996
N 9.55662422 12.44330901 14.32938747 0.00724531 0.00434938 0.00415163
N 15.79454466 19.24651720 5.70102271 -0.00205395 -0.00284382 -0.00274627
N 13.75527126 25.56047498 10.43893824 0.00252474 -0.00085196 0.00952036
N 11.93559306 19.15183194 2.31448411 0.00929084 -0.00294142 -0.00330696
N 15.90154625 25.61992216 18.67913810 0.00244041 -0.01017167 0.00756162
N 9.66219251 19.30697879 26.93536010 -0.00076385 -0.00040681 -0.00191593
N 11.89222312 12.81833289 22.53386383 0.00527902 -0.00199151 0.00237750
N 14.00273335 19.44483380 30.35802057 0.00426039 0.00486258 -0.00098618
N 9.65857340 12.85602273 30.65223818 -0.00946432 -0.00351060 -0.00195668
N 15.99210929 19.23024669 22.32777551 -0.00504126 0.00310003 -0.00264768
N 14.03948136 0.10904328 26.56831540 -0.00613949 0.00231548 -0.00432170
N 11.70241667 19.35355164 18.63249442 0.00468829 -0.00333861 0.00763097
N 24.56315359 12.78042543 2.58012403 -0.00104602 -0.00318605 -0.00772992
N 17.99533573 6.24529265 10.47561503 0.00108142 -0.00270273 -0.00610141
N 20.60609759 0.03154097 5.55590057 0.00362917 -0.00138550 -0.00712737
N 21.87994587 6.86409257 13.98019526 0.00463742 -0.00192797 0.00791078
N 17.70862118 25.30871866 13.55608488 -0.00303169 0.00204844 0.00027500
N 24.55897776 6.18483473 5.87098888 -0.00172734 -0.00067929 0.00069795
N 22.38700726 12.86290758 11.02517353 -0.00253312 0.00118065 -0.00394008
N 20.63985876 6.59212329 2.55945605 0.00827078 -0.00827527 0.00090297
N 24.72410965 12.82228188 19.23383268 0.01027048 -0.00103695 -0.00053766
N 18.32238294 6.25597858 27.76721503 -0.00121885 0.00229274 0.00177671
N 20.30611661 25.47490605 22.10750265 0.00571595 -0.00658872 0.00263833
N 22.56463891 6.64632336 30.70761015 -0.00452338 -0.00056394 -0.00085936
N 18.16606414 25.49623571 30.31610219 -0.00020153 -0.00429792 0.00010227
N 24.73390787 6.76785581 22.52585006 0.00382135 -0.00110636 -0.00560648
N 22.68959479 12.68716050 27.26452266 -0.00240020 0.00176382 -0.00393785
N 20.28260931 6.35724210 18.77031816 0.00072319 0.00177562 0.00342781
N 24.67740321 25.61254057 2.37034026 0.00055131 0.00127236 0.00537263
N 17.70459269 18.76586541 10.49412886 -0.00219403 0.00499912 0.00214928
N 20.45484362 12.63047864 5.94619207 -0.01758844 0.00780856 0.00463925
N 22.01720166 18.96641005 13.99534233 0.00644138 -0.00277646 -0.00088875
N 17.74120939 12.79666219 14.32727998 -0.00141622 0.00228786 0.00007084
N 24.84387423 19.22241983 5.64202438 -0.00422164 -0.00298239 -0.00314872
N 21.97234275 0.12825043 10.54760936 -0.00321317 -0.00421819 0.00538453
N 20.39777474 19.21572432 2.64746913 0.00057107 0.00409374 0.00408424
N 24.57368467 0.21123738 18.80240073 0.00198296 0.00019368 -0.00263282
N 18.00438479 19.02131663 27.30812475 -0.00143313 -0.00327986 0.00041363
N 20.35513944 12.77204922 22.57420823 -0.00320472 0.00236438 -0.00018052
N 22.53292034 19.13136100 30.25868673 0.00042998 -0.00063761 0.00338527
N 18.20230006 12.84351655 30.83840349 0.00157911 0.00216629 0.00033786
N 24.64816160 19.23595443 22.17275953 0.00300323 -0.00555827 -0.00781101
N 22.32485246 0.17451613 26.91453590 -0.00375233 0.00546722 -0.00642411
N 20.25057872 19.01959148 18.88449832 0.00340466 -0.00577257 0.00245254
C 7.70933536 0.10778718 4.48650282 0.00592909 -0.00323376 0.00037810
C 0.77550802 6.03006686 12.88950430 -0.00263774 -0.00394525 -0.00822934
C 3.10862143 12.36109617 3.86791605 0.00948207 0.00113479 -0.00137424
C 4.72866942 6.58845728 11.91861352 0.00159487 0.00114386 -0.00328222
C 0.88510137 12.37125983 12.17389284 -0.00126248 -0.00189438 -0.00145513
C 7.68031415 6.62451043 3.50397764 0.00600896 0.00393021 -0.00308429
C 4.71617638 0.48139706 12.88989474 0.00116122 0.00073732 -0.00019317
C 3.45458990 5.95549733 4.67199182 -0.00264967 -0.00238521 0.00238640
C 7.36661811 0.72180801 5.61044467 -0.00092534 0.00286990 -0.00171490
C 0.98416464 5.32407068 14.05805303 -0.00154491 0.00155219 -0.00436929
C 2.81399632 11.60482101 2.72559861 -0.00377474 -0.00047389 0.00163643
C 5.22156016 6.98816358 10.72134435 0.00576991 0.00232052 0.00513601
C 1.06637057 11.68545009 10.99507691 -0.00226994 -0.00006126 0.00546285
C 7.41735984 7.35378027 2.37483102 -0.00059204 -0.00874932 -0.00029671
C 5.14142694 1.19418264 14.00711229 -0.00003476 0.00273937 0.00338929
C 3.11362922 5.26193183 5.83266925 0.00178328 0.00117339 -0.00829659
C 6.38518305 1.80267386 5.66990907 -0.00212185 -0.00567446 -0.00316378
C 1.80101203 4.15858344 14.04247562 -0.00215054 0.00629756 0.00376526
C 2.04896108 10.47769277 2.91804252 -0.00050126 0.00095846 -0.00006808
C 6.02592638 8.19903541 10.59150178 -0.00029483 0.00800076 -0.00291563
C 1.65402455 10.45706666 11.03333444 -0.00188337 0.00625842 -0.00268785
C 6.52445587 8.43917047 2.43120787 0.00373081 0.00018960 -0.00642193
C 6.12568643 2.23227411 13.99689860 0.00223028 0.00265045 0.00515004
C 2.18253999 4.21338065 5.75427809 0.00171254 -0.00172706 0.00026764
C 6.03238255 2.28623111 4.42688399 -0.00026333 -0.00338036 0.00151952
C 2.11677445 3.53200922 12.76489419 0.00697777 0.00285134 -0.00179516
C 1.80914070 9.97404309 4.19655735 -0.00722625 0.00128458 0.00395082
C 6.39939168 8.86911120 11.85814813 0.00291884 0.00003975 0.00476095
C 2.05278550 9.89933725 12.26803690 -0.00794538 -0.00582209 -0.00048098
C 6.08093244 8.88409558 3.67680994 0.00915625 -0.00760273 0.00095774
C 6.58859535 2.63938394 12.71245360 0.00040376 0.00877321 0.00551412
C 1.82388195 3.81719377 4.42645134 -0.00219030 0.00880161 -0.00052636
C 6.50655960 1.78832025 3.22949397 -0.00661071 -0.00143537 -0.00042130
C 1.94762557 4.25802233 11.60769569 -0.00015788 0.00345676 -0.00493942
C 2.10545315 10.63676123 5.31297655 -0.00597230 0.00284259 0.00039411
C 6.03512198 8.25204684 13.04994300 -0.00062811 0.00567440 -0.00311489
C 1.83315160 10.53844616 13.46008554 0.00588719 -0.00563617 0.00162186
C 6.55359969 8.28530399 4.83133021 0.00044664 0.00235510 0.00192622
C 6.08577706 2.02598830 11.60366037 0.00159775 0.00438727 0.00247757
C 2.30730796 4.39895706 3.29505444 -0.00486714 0.00820735 0.00015654
C 7.29186842 0.61864656 3.20539727 0.00176230 -0.00269821 -0.00379562
C 1.24516208 5.49581847 11.65048209 -0.00131799 0.00511208 0.00320049
C 2.83723199 11.87146738 5.19902488 -0.00431882 0.00093474 0.00295801
C 5.26422130 7.11385791 13.11842579 0.00595092 0.00187865 0.00688547
C 1.36052478 11.86256692 13.38209752 0.00300522 -0.00148364 -0.00667765
C 7.25070201 7.03306540 4.77358390 0.01225016 -0.00829731 0.00257134
C 5.23678713 0.85212555 11.61986589 -0.00150559 0.00376919 -0.00438859
C 3.06388091 5.61944251 3.33917435 0.00455189 -0.00342527 0.00080485
C 7.26658768 0.25522472 0.79306895 -0.00123511 0.00005971 -0.00018906
C 1.54469119 6.04724135 9.33245847 0.01073399 -0.00034635 -0.00230371
C 2.76602180 12.44590811 7.57527081 -0.00196272 -0.00692374 -0.00485855
C 5.57828296 6.63508828 15.45786889 0.00003476 -0.00257192 -0.00469960
C 1.61339775 12.58100697 15.65417308 -0.00429061 0.00101902 -0.00254881
C 6.90271804 6.26746015 7.05405356 0.00138290 -0.00602858 -0.00138652
C 5.60556682 0.00650908 9.34534462 0.01126290 -0.00292414 0.00251965
C 2.92990570 6.28871306 0.96189450 0.00253691 -0.01201192 -0.00650099
C 7.02414208 11.59409606 16.87980421 0.00190996 0.00530564 -0.00471808
C 1.49946029 7.26357669 8.38249400 0.00108035 0.00368369 -0.00121646
C 2.71075044 0.56457014 7.97764296 -0.00162431 -0.00479476 0.00468748
C 5.71928123 5.42522061 32.64016759 -0.00537904 0.00479888 -0.00278707
C 1.59055558 0.93735011 32.35086697 -0.00058222 0.00120210 0.00413389
C 6.95438332 4.97658159 7.84420053 0.00323116 0.00234355 -0.00105508
C 5.57541278 11.79108354 8.94770495 0.00299204 -0.00055930 0.00105766
C 2.18984172 7.44497550 16.43597661 -0.00203509 -0.00584777 0.00300206
C 7.71596622 0.76790658 20.93791676 0.00489824 0.00506008 -0.00245944
C 1.20687775 6.27118143 29.02379621 -0.00571699 0.00143175 0.00082762
C 3.27016215 12.50819777 20.52548178 0.00040634 -0.00358944 0.00417330
C 5.14556158 6.97533633 28.12540735 0.00684846 0.00144747 -0.00880643
C 1.37777367 12.60078054 28.55528397 -0.00117769 -0.00254773 0.00022299
C 7.62172964 6.96161834 19.87513510 -0.00857139 -0.00112462 -0.00894801
C 5.28198593 0.64728708 28.92227638 0.00553321 -0.00559933 0.00613426
C 3.21443998 6.07516866 20.76567060 -0.00222703 0.00216219 0.00510351
C 7.48286558 1.45637661 22.08576293 0.00636337 -0.00329149 -0.00143237
C 1.34892723 5.60654134 30.18432805 0.00591244 0.00026004 0.00610159
C 2.98933003 11.76821115 19.39157040 0.00402706 -0.00374011 -0.00286943
C 5.59054970 7.57812168 26.97641276 0.00093418 -0.00541246 -0.00174731
C 1.41309401 11.81373820 27.44464454 -0.00294876 0.00157975 -0.00349221
C 7.10661620 7.48212405 18.70575298 0.00034368 -0.00462862 -0.00595387
C 5.67136087 1.24620464 30.06995987 -0.00387823 0.00030479 0.00122612
C 2.95296885 5.40547053 21.90931380 0.00462321 0.00660035 0.00661697
C 6.67092274 2.60729408 21.94300739 0.00326337 0.00375003 0.00151280
C 1.93194264 4.29837532 30.15734637 -0.00467717 -0.00414371 -0.00460057
C 2.13374477 10.63394168 19.41124702 0.00187909 0.00389072 0.00096674
C 6.52737937 8.64227200 27.09894336 -0.00624594 -0.00069919 -0.00143839
C 2.09539022 10.55623654 27.56640341 -0.00122058 -0.00212698 -0.00359624
C 6.06685640 8.46912617 18.73872914 0.00549667 -0.00343441 -0.00070314
C 6.56276144 2.30839922 30.01925908 0.00315471 -0.00181130 0.00019688
C 2.16396614 4.25928796 21.91412082 0.00062507 -0.00201742 -0.00259617
C 6.23313051 3.02739570 20.66534649 -0.00183350 -0.00253223 0.00163652
C 2.47910345 3.86010620 28.94776607 -0.00341061 0.01167244 -0.00293017
C 1.80778231 10.08540191 20.69566912 0.00207650 -0.00519702 0.00647893
C 6.61968782 9.27645954 28.35721297 -0.00712843 -0.00083195 0.00747220
C 2.49221133 10.10918426 28.82019388 -0.00794186 0.00076368 -0.00223634
C 5.95006963 9.19520033 19.94464340 0.00381795 0.00234158 -0.00226309
C 6.94231866 2.90361846 28.78296561 0.01078003 0.00532326 -0.00282082
C 1.91242050 3.65794901 20.68000369 -0.00061596 0.00490157 -0.00607575
C 6.32153426 2.17185289 19.60079961 -0.00412256 0.00418531 0.00167811
C 2.28737693 4.62113868 27.76530774 -0.00498989 0.00092940 -0.00506228
C 2.17959220 10.80564257 21.86616193 -0.00385528 -0.00217837 0.00708798
C 6.09109561 8.70163070 29.52253222 -0.00048867 -0.00202621 0.00042483
C 2.35826039 10.87245577 29.90982145 0.00092695 -0.00196166 0.00366616
C 6.38966548 8.63107957 21.14189092 -0.00000215 -0.00585572 0.00501707
C 6.53536830 2.26375619 27.60250738 0.00920035 -0.00679522 -0.00581228
C 2.19535170 4.29691770 19.49715996 0.00595351 0.00140901 0.00247083
C 7.12333602 1.04547508 19.64705856 0.00232433 -0.00339268 -0.00686506
C 1.66218809 5.85622345 27.80582881 0.00058227 0.00468502 0.00621436
C 2.90244517 12.01120069 21.75920659 0.00325526 -0.00482544 -0.01347970
C 5.45681220 7.43980099 29.41344272 -0.00415396 0.00283332 -0.00181544
C 1.79844478 12.17581083 29.84105794 0.00987985 -0.00968163 -0.00654960
C 7.14937544 7.40576288 21.10361012 -0.00364873 -0.00308660 -0.00213863
C 5.79052853 1.08965906 27.68939954 0.00093990 0.00403308 0.00304553
C 2.73927123 5.57341780 19.54034963 -0.00053868 0.00423689 0.00431167
C 6.61627065 0.22588260 17.44323759 0.00201433 -0.00110793 0.00091749
C 1.76145666 6.27078661 25.40883553 0.00160614 0.00225570 -0.00511557
C 2.92850323 12.44429393 24.14348013 0.00344935 0.00429660 -0.00432293
C 5.83542088 6.65251377 31.76624299 0.00484597 0.00971629 0.00268413
C 1.77476295 12.72861718 32.25480790 -0.00587184 0.00330245 0.00250924
C 7.10662588 6.95409707 23.48909903 -0.00241602 -0.00363507 -0.00111624
C 5.98625607 0.43064837 25.38034387 -0.00254253 0.00268148 -0.00128387
C 2.19625846 6.20985282 17.29647916 -0.00203689 0.00128537 0.00577885
C 6.81063589 11.83379259 0.73468152 -0.00011548 0.00397110 -0.00390034
C 1.71852008 7.32686499 24.29041484 0.00336533 -0.00113668 0.00700570
C 3.30597727 1.20252893 23.42824718 -0.00246335 0.00247583 -0.00055506
C 5.32556131 5.52822825 16.48109666 0.00952036 0.00392327 -0.00125423
C 0.71849724 0.91247523 15.85847403 -0.00516644 -0.00805945 0.00139443
C 7.43133814 5.88613024 24.52924929 0.00580879 -0.00110543 -0.00016561
C 5.83797190 12.16695711 25.35275939 -0.00186722 -0.00017100 0.00249216