1920
Time=37000.00000002 pbc="T T T" Lattice="25.43528961 0.00000000 0.00000000 0.00000000 25.72866268 0.00000000 0.00000000 0.00000000 32.99419917" energy=-12254.56957030 virial="-51.63264846 0.21675151 -24.26217048 0.21675151 -41.60645202 18.58699532 -24.26217048 18.58699532 -64.33038962" stress="-0.00023301 -0.00001360 -0.00120067 -0.00001360 0.00026944 0.00086460 -0.00120067 0.00086460 -0.00087364" Properties=species:S:1:pos:R:3:vel:R:3
O 5.85943756 2.89266080 6.97651130 0.00004751 -0.00205417 0.00086701
O 2.82984495 3.70029717 15.30047695 0.00015233 0.00318461 -0.00448964
O 1.83448548 10.39222880 1.12109082 -0.00151641 0.00004373 0.00218179
O 7.02325118 9.10031982 9.57482242 0.00292266 -0.00074455 0.00155965
O 2.72355516 9.96970862 9.68946521 -0.00464393 -0.00303560 0.00144986
O 5.50524038 9.02774477 1.44800495 -0.00413950 0.00225878 -0.00218624
O 7.25828346 2.57360333 15.10902410 -0.00447774 0.00471568 -0.00242015
O 1.60482336 3.93675575 7.06996095 -0.00299947 -0.00138355 0.00328404
O 6.83183406 1.39802538 17.36658997 -0.00471021 -0.00099666 -0.00446160
O 2.44781390 5.06391454 9.12039525 -0.00323553 0.00240640 -0.00258888
O 2.26256811 11.69041200 7.49656854 -0.00056921 0.00534774 -0.00243963
O 6.36162521 7.88521778 32.37030811 -0.00047891 -0.00000267 0.00209000
O 2.20092556 12.18787208 32.25880753 0.00274297 -0.00349586 0.00104763
O 6.44973931 7.33798769 7.49705631 0.00002294 0.00737506 0.00957527
O 6.06862157 1.33804846 9.05794107 -0.00208047 -0.00371215 -0.00350807
O 1.97945975 4.92427205 17.40894576 -0.00682102 -0.00003475 -0.00083971
O 6.18191373 2.81338328 23.66516073 0.00513699 0.00318297 -0.00888390
O 2.32227141 3.77219148 31.59642104 0.00539429 0.00363286 -0.00469268
O 1.57695230 9.81858057 18.00761505 0.00284757 0.00871802 0.00216374
O 7.03828777 9.34612937 26.20645385 0.00620574 0.00001615 -0.00151174
O 2.39024816 9.95970729 26.23187681 0.00453467 -0.00252307 0.00093345
O 5.66647780 8.93335273 18.00602628 -0.00448003 -0.00422452 -0.00210893
O 6.33200337 2.88371298 31.82687185 -0.00063313 -0.00126782 0.00147700
O 1.54045036 4.11377304 23.52838614 -0.00115000 -0.00192160 -0.00338494
O 6.45275182 1.19557041 0.83445264 0.00179214 -0.00109875 0.00115326
O 2.39264642 5.41464198 25.49602452 -0.00185569 -0.00344471 0.00200602
O 2.36331963 11.35992257 24.14626549 -0.00300532 0.00522110 0.00058020
O 6.09750777 7.53951856 15.87299785 0.00128574 0.00316228 0.00428154
O 1.83429790 11.42991012 15.83039411 0.00264983 0.00270471 -0.00265798
O 6.30738854 7.49596102 24.23081506 0.00039050 -0.00550772 -0.00214287
O 6.25724269 1.11585282 25.71452505 -0.00092587 0.00146225 0.00010759
O 2.19062695 5.26255440 0.79548886 0.00566927 0.00235825 0.00499497
O 6.05815258 15.77526719 6.83042076 -0.00312564 0.00366938 0.00153044
O 2.35473198 16.24627746 15.13645359 -0.00311395 -0.00189182 0.00148473
O 1.22027686 23.08022380 1.58398306 -0.00433280 0.00019999 -0.00487868
O 6.98679675 21.96799870 9.22004189 0.00410426 0.00335732 -0.00230825
O 2.36311048 23.10672326 9.36540144 -0.00408211 0.00240075 0.00013541
O 5.66352675 22.15703749 1.11172453 0.00480460 0.00270979 -0.00308737
O 6.92022638 15.77204949 15.37771454 0.00051389 -0.00147624 0.00362031
O 1.99967947 16.85566679 6.77384999 -0.00357190 0.00604882 -0.00138196
O 6.42264493 14.12105570 17.45134454 -0.00089438 0.00240125 -0.00210831
O 2.53058601 17.96321944 9.00760361 -0.00544713 0.00177168 -0.00420319
O 2.17036959 24.79862826 7.39371344 0.00083118 0.00311867 0.00181855
O 6.13298139 20.79963318 31.86962277 0.00087514 0.00079367 0.00083269
O 1.46921774 24.41394213 32.40071090 0.00294836 0.00253647 -0.00074209
O 6.60180635 20.59685315 7.09183313 -0.00358619 -0.00003083 0.00390361
O 6.25647721 14.23652211 9.06672966 0.00049056 0.00321678 0.00206071
O 2.41170501 17.75985350 17.11901758 0.00185357 -0.00494618 -0.00290695
O 5.57584486 15.52381742 23.49419643 0.00081820 -0.00113087 0.00133636
O 3.15880228 16.71361002 31.54180207 -0.00139541 -0.01122245 -0.00448922
O 1.75590549 22.67728978 17.79680110 -0.00084291 -0.00362123 0.00011610
O 6.92370291 21.88632457 25.61599614 -0.00275164 -0.00122452 0.00427646
O 2.29582211 23.14729573 26.00755971 -0.00125283 -0.00335939 -0.00207342
O 5.79835134 21.97767101 17.39428235 -0.00665507 -0.00445297 -0.00160065
O 7.02750081 15.39279308 31.78968754 -0.00195407 -0.00412693 0.00209591
O 1.51384038 16.52345161 23.37741846 0.00003572 -0.00859756 0.00351517
O 6.29609666 13.95975250 0.80551147 0.00699436 -0.00099341 0.00493522
O 2.00654918 17.94470667 25.45530000 0.00711832 -0.00349410 0.00351310
O 2.30946287 24.44296290 23.84513115 -0.00046206 -0.00112206 0.00290649
O 6.53745224 20.49527645 15.37061336 0.00030965 0.00578184 0.00352240
O 2.03647922 24.34776065 15.71857605 0.00353250 -0.00264662 -0.00259078
O 6.15237179 20.40526746 23.54985139 0.00248573 -0.00633949 -0.00619373
O 6.31679120 14.29360196 25.62600932 -0.00662142 -0.00305556 0.00019049
O 2.06558055 18.12936586 0.63679334 -0.00112073 0.00374750 -0.00617864
O 14.25551077 2.59105806 7.19815613 0.00270879 -0.00193173 0.00307024
O 11.19100185 3.49907389 15.06274731 -0.00517258 0.00459287 -0.00501222
O 10.24558330 10.24239380 1.31720162 -0.00343596 -0.00229445 0.00265171
O 15.62208353 9.36699251 9.59301751 0.00226448 0.00219320 -0.00630259
O 10.56931905 10.15998371 9.81492630 0.00165525 -0.00680965 -0.00026397
O 13.91937028 9.50556335 1.35302809 0.00437248 0.00892132 0.00645602
O 14.93602118 2.83992005 15.24112577 0.00008508 -0.00401345 0.00363620
O 10.44712960 4.02650897 7.17540116 0.00632354 0.00309920 -0.00283657
O 14.87086685 1.32782143 17.45137779 -0.00032949 -0.00554708 0.00371618
O 10.71387219 5.53504113 9.18182986 -0.00459306 -0.00496663 -0.00031975
O 10.35694725 11.51228105 7.58612663 -0.00164488 0.00257984 -0.00351832
O 14.29723208 7.96625133 32.47221697 0.00213519 -0.00352852 0.00106026
O 10.38011249 11.73745352 32.29325136 -0.00278251 0.00332394 -0.00290856
O 15.18104409 7.97990975 7.57579776 -0.00235739 0.01006448 0.00126720
O 14.98420261 1.05216813 9.10627211 0.00084144 0.00040008 0.00604442
O 11.15931496 5.10163966 17.38890120 -0.00050816 0.00009806 -0.00862821
O 14.28980963 2.59898164 23.69484785 0.00269884 0.00063480 0.00377848
O 10.42701245 3.44032840 31.58765213 0.00716588 -0.00422748 -0.00204069
O 9.89846428 9.94272574 18.12587046 0.00420448 0.00780262 -0.00928088
O 15.60283991 8.83732800 26.06293630 0.00057617 0.00146823 0.00400085
O 11.73679305 10.13128681 26.54005873 -0.00274151 -0.00351105 0.00208526
O 14.36301288 9.26307179 18.05107695 -0.00287471 -0.00218375 0.00087626
O 14.75474841 2.82651828 31.75666276 0.00003676 0.00458804 0.00521179
O 10.04491324 3.76019626 23.45741008 0.00028488 -0.00045021 -0.00484387
O 14.34003915 1.39513501 0.86380248 0.00106866 -0.00178274 0.00076281
O 10.66939708 5.31348744 25.35983885 -0.00191863 0.00133244 0.00269558
O 11.13133421 11.20235626 24.35140154 0.00154596 0.00294024 -0.00184666
O 13.91095906 8.02668081 15.77517052 0.00196510 0.00594692 0.00229080
O 10.37939239 11.58703165 16.16382868 0.00283356 0.00217437 0.00251072
O 15.13977061 7.43077794 24.10340808 0.00107666 0.00412586 0.00367615
O 15.15065487 1.20656315 25.63923592 -0.00636639 -0.00122133 0.00515696
O 10.27694483 5.05254841 0.68077381 0.01129763 0.00174593 -0.00865828
O 13.95849948 15.09313274 6.94046411 0.00240427 -0.00078921 -0.00148820
O 10.94138110 16.52290698 15.36379554 0.00259987 0.00203207 0.00101020
O 9.79211338 22.86242967 1.62281128 0.00208588 0.00329979 -0.00282266
O 15.54106823 21.79776675 9.66281380 -0.00077339 -0.00073365 -0.00014000
O 11.12059957 23.11994456 9.87078774 -0.00266442 0.00666244 0.00206336
O 14.12526766 22.29421697 1.61463579 0.00516283 -0.00232078 -0.00049483
O 15.23898356 15.48277589 15.20256943 0.00342611 -0.00421817 -0.00502841
O 10.27146706 16.28893405 7.14837123 0.00362575 -0.00471655 0.00048750
O 14.78498324 14.16273102 17.49634409 -0.00486807 -0.00015792 0.00010584
O 10.73162859 17.92541618 9.01542105 -0.00081816 -0.00094443 0.00096626
O 10.56104287 24.52711369 7.63021865 0.00132482 0.00544387 -0.00061352
O 14.66926528 20.88606238 32.35001820 0.00446863 -0.00148892 -0.00130031
O 9.83428369 24.29781340 32.49914528 -0.00044846 0.00070094 0.00130883
O 14.66100251 20.36739725 7.58887990 -0.00032462 -0.00400405 -0.00511680
O 14.84214036 13.91963829 8.97971275 0.00380383 -0.00317036 0.00241809
O 10.30120706 18.13404620 17.15746221 -0.00055724 -0.00056577 -0.00192124
O 14.21310195 15.30698618 23.82764789 -0.00150688 0.00794100 -0.00092350
O 10.96181548 16.80294226 31.95944198 0.00549473 0.00103061 0.00531305
O 9.87763903 22.55427719 18.25034640 -0.00968980 0.00358729 -0.00037495
O 15.55947210 22.34346539 26.19357800 -0.00461040 0.00238374 0.00515175
O 11.23996183 22.92615725 26.40157656 0.00202177 -0.00155958 0.00169011
O 14.12147591 21.86831023 17.95642200 0.00523645 -0.00007091 -0.00039484
O 15.57664463 15.59119405 31.58457923 0.00307083 -0.00058681 0.00038400
O 10.68726787 16.26856518 23.22523581 0.00693322 -0.00857743 -0.00515857
O 14.64444981 13.98858538 0.64093115 0.00283334 -0.00467102 0.00034713
O 10.43076678 17.72959775 25.66424646 0.00388281 -0.00202532 -0.00090635
O 10.87470949 24.38783225 24.30552217 -0.00554884 0.00107135 0.00702447
O 14.70834231 20.41260964 15.80037949 0.00023905 -0.00156839 -0.00138077
O 10.36274395 24.15285978 16.12109654 -0.00247927 0.00069435 -0.00027347
O 14.98843185 20.59236620 24.22663298 0.00540902 0.00349647 -0.00132278
O 15.09974405 13.69670890 25.74502316 0.00528082 0.00156379 0.00031301
O 10.21267249 18.18598529 0.94333337 -0.00145205 -0.00020396 -0.00278851
O 22.79746871 2.92703074 6.80405487 -0.00087264 -0.00318503 -0.00552914
O 19.37459004 3.65258007 14.99121330 -0.00168527 -0.00021714 -0.00664152
O 18.50535345 10.27228389 1.36738818 -0.00237626 0.00582775 0.00257339
O 24.57059675 8.97248264 9.71433244 -0.00589725 0.00350307 0.00304915
O 19.36000840 10.11161799 9.69681511 -0.00094397 0.00177265 -0.00084530
O 22.30633611 9.13326415 1.29080785 0.00192033 0.00428323 -0.00145047
O 23.61120509 2.84794005 15.04936673 0.00160598 -0.00065629 0.00100461
O 18.65759333 3.75726464 6.90315024 -0.00387751 -0.00261597 0.00217972
O 23.38727729 1.06803899 16.80787225 -0.00224823 0.00011315 0.00016752
O 19.33512654 5.39126558 8.75182382 -0.00048153 -0.00461386 0.00768514
O 19.25470153 11.80109073 7.42337311 -0.00756131 -0.00282653 0.00128866
O 23.24811654 7.87376874 32.19486014 -0.00167109 0.00191729 -0.00421292
O 19.15773950 11.45620624 32.25096478 -0.00099731 -0.00431796 -0.00119221
O 23.68192599 8.01077742 7.57849744 0.00531655 -0.00082357 0.00171594
O 23.77099950 1.40628400 8.95588684 0.00255131 -0.00049119 -0.00447314
O 18.80934437 5.10071042 16.98806223 -0.00116821 -0.00159415 -0.00244381
O 23.19374565 3.00665228 23.09645932 0.00115720 -0.00043400 -0.00135632
O 19.84802325 3.61444172 31.49131428 0.00380551 -0.00272684 -0.00485527
O 18.75085853 9.91519309 18.12120163 0.00044603 -0.00066302 0.00234036
O 23.92242761 9.08137217 26.06594915 -0.00292539 0.00104123 0.00595684
O 19.69659829 10.24489357 26.05434823 -0.00192333 0.00655329 0.00403799
O 22.61855074 9.04704542 17.61242130 -0.00015373 0.00098461 -0.00190634
O 23.76223618 2.87398870 31.56636461 -0.00411704 0.00361373 -0.00518943
O 19.14295127 3.41184166 23.35659107 0.00493174 -0.00101499 -0.00741508
O 23.34283560 1.40437644 0.68828976 0.00527227 -0.00576117 -0.00124838
O 19.12849939 5.25742073 25.47490481 0.00755884 -0.00779635 -0.00755591
O 18.70379726 11.75614467 24.05759365 -0.00200826 -0.00447452 0.00814405
O 23.02283747 7.55266118 15.69988871 0.00730144 -0.00717271 0.00227956
O 19.00114162 11.43222917 16.10123351 0.00316815 -0.00253709 -0.00486370
O 23.58820182 7.82010409 23.86983965 -0.00273764 -0.00510369 0.00561612
O 23.29301439 1.55073219 25.21173155 0.00076643 0.00069429 0.00250007
O 19.38234327 5.12243588 0.54557550 -0.00359376 0.00034874 -0.00200640
O 22.67223446 15.68192595 6.91563044 -0.00196156 -0.00202630 -0.00085442
O 19.65556680 16.16117101 15.13599004 -0.00676516 -0.00470221 0.00265116
O 18.38013875 23.36233110 0.92525068 0.00018392 -0.00166051 0.00578151
O 23.93947256 21.82100098 9.24722111 -0.00219120 0.00422733 0.00506019
O 20.03038667 23.34202699 9.21714957 0.00288965 0.00044853 0.00368661
O 23.05349611 22.01145584 0.96882660 -0.00084384 0.00424369 0.00083687
O 23.95117226 15.34116584 15.55925580 -0.00413102 -0.00352856 0.00917165
O 18.22118995 16.66722241 6.97491218 0.00271387 0.00446519 -0.00384655
O 23.18502672 14.04088542 17.59351211 -0.00500588 0.00054922 0.00472303
O 19.08770507 17.92566649 8.98111731 -0.00161409 -0.00109289 -0.00068243
O 19.27006111 24.46567450 7.15262972 0.00409072 -0.00005880 0.00065483
O 23.36581097 20.65992465 31.85243071 -0.00679518 0.00146256 -0.00118339
O 19.11784947 24.80157272 31.91224960 0.00282058 0.00583381 -0.00081100
O 23.21653830 20.57315119 7.05734362 -0.00173644 0.00108703 0.00158865
O 23.25432735 14.12076345 9.14077199 0.00078127 -0.00457180 -0.00707822
O 19.62282856 17.79464353 17.12814132 0.00148976 -0.00650263 -0.00129178
O 22.51885451 15.29187336 23.53782447 -0.00021271 -0.00170679 0.00104624
O 19.58742786 16.65930578 31.92456597 -0.00069147 -0.00377296 0.00442097
O 18.61465026 22.78529516 17.50678555 -0.00561129 0.00116912 0.00181808
O 23.63683267 21.66520614 25.72012951 0.00447126 -0.00324306 -0.00214275
O 20.05226006 23.04435459 25.91694261 0.00268213 0.00220567 0.00236025
O 22.42787408 22.27888810 17.68568327 0.00118441 -0.00071161 -0.00601281
O 23.54644604 15.66113823 31.71274132 -0.00143582 0.00208754 0.00233910
O 18.19401674 16.53545891 23.50929432 0.00416332 0.00081458 0.00030882
O 23.26506007 14.01358040 0.80963106 -0.00016044 0.00367654 -0.00110894
O 18.60000548 18.04071029 25.86886191 0.00004992 -0.00016442 -0.00035159
O 19.39660510 24.26194549 23.70099479 0.00303029 0.00502586 -0.00524334
O 22.87464389 20.67274560 15.50623132 0.00037199 0.00010548 0.00250705
O 18.18191911 24.22458958 15.47027460 0.00065163 0.00766134 -0.00482571
O 22.95454791 20.28119633 23.66570210 0.00176749 -0.00003254 -0.00509114
O 22.97950516 14.14695682 25.70984623 0.00420765 -0.00265492 0.00241542
O 19.18019164 18.18341828 0.91387828 -0.00734861 0.00355315 0.00025120
N 7.55331660 12.76898532 2.42248708 0.00405620 0.00292851 0.00038434
N 1.02925650 6.11144241 10.66507047 -0.00365558 0.00084855 -0.00890770
N 3.52726609 0.10168091 5.80275498 0.00679385 0.00081183 0.00320873
N 5.25713932 6.36852419 14.09668474 -0.00060736 -0.00351892 0.00647493
N 1.30843753 0.09593688 14.05786636 -0.00076396 0.00439954 0.00703351
N 7.47331958 6.17148252 5.78006231 -0.00870916 -0.01096946 -0.00334666
N 5.54024305 12.90306624 10.74553496 0.00143604 0.00217922 0.00137362
N 3.02466876 6.63189712 2.44699049 0.00165647 -0.00095520 0.00057113
N 7.50461326 12.99719839 19.08052723 0.00752769 -0.00055737 0.00568371
N 0.98279921 6.49842072 26.86968110 -0.00365645 -0.00061072 0.00541192
N 3.28904988 25.69519607 22.13055292 -0.00644339 0.00708062 0.00185277
N 5.17808064 6.65147958 30.82305129 0.00387659 -0.00455696 0.00085017
N 0.66480200 25.65011977 30.61465162 0.00368329 -0.00342799 0.00745218
N 7.59101883 6.33276510 22.66979825 -0.00216240 -0.00003756 0.00059209
N 5.25737793 13.00559019 27.14448747 -0.00033614 -0.00280139 0.00738943
N 3.41497479 6.02090521 18.73050288 0.00110235 0.00211306 -0.00290167
N 7.53785189 0.16148968 2.55860749 0.00058916 0.00284889 0.00361112
N 1.07888303 19.09054657 10.54585230 -0.00433392 0.00126295 -0.00083658
N 3.38863925 12.80443037 5.81905324 0.00235796 -0.00533950 0.00262781
N 5.14025168 19.59943920 13.82891588 -0.00206407 0.00590315 0.00263134
N 1.56438824 12.99174133 14.13156686 -0.00470320 -0.00017318 -0.00128672
N 7.87848218 19.51927899 5.47870355 0.00138307 0.00044769 0.00386522
N 5.35313170 25.65625632 10.72582056 -0.00282775 0.00120574 -0.00951581
N 3.62553225 19.05743631 1.98273204 -0.00230114 0.00405413 0.00480720
N 7.42867590 0.03828618 19.00926487 -0.00467671 0.00530375 0.00065090
N 0.74336122 18.92834290 27.09903201 -0.00475292 0.00260552 -0.00131377
N 3.29488112 12.49836111 22.42172976 0.00375360 -0.00269064 -0.00787250
N 5.00059525 19.59734558 30.22458933 0.00222734 -0.00142502 -0.00492170
N 1.08619229 13.25573746 30.55980851 0.00298714 -0.00744016 0.00482596
N 7.28918030 19.16937465 21.96399976 0.00225387 0.00413021 -0.00188906
N 5.04029095 25.72735470 27.30701928 -0.00167570 -0.00365869 0.00418174
N 3.12332890 19.11758292 18.76130384 -0.00178775 0.00501257 -0.00311341
N 16.12632269 13.32395745 2.27528856 0.01180688 0.00272503 0.00157737
N 9.23187579 6.41563035 10.73592406 0.00250233 0.00201467 -0.00122687
N 11.79942022 25.53486517 5.91957198 0.00266125 -0.00857417 -0.00717282
N 13.66535035 6.69501569 13.90982266 -0.00135117 -0.00520988 0.00718880
N 9.71625502 25.63880404 14.49483589 -0.00420978 -0.00889205 -0.00344211
N 16.21234352 6.96402910 5.76595627 0.00177328 -0.00049111 0.00477719
N 13.80728274 12.65968913 10.63410347 -0.00165132 -0.00591740 0.00383245
N 11.69695430 6.17526019 2.20805739 0.00044863 -0.00455078 -0.00189331
N 16.03361446 12.92532617 19.01367146 -0.00393423 -0.00364373 -0.00353859
N 9.58626763 6.45353102 27.02895315 0.00167148 -0.00121376 -0.00150341
N 11.61602842 0.01870493 22.50955048 -0.00543235 0.00353072 -0.00375055
N 13.70894765 6.59931205 30.75825881 0.00073074 0.00518113 -0.00591001
N 9.02171121 25.49194583 30.71756721 -0.00369889 -0.00039273 -0.00233190
N 16.19194434 6.29970497 22.34959544 -0.00523653 -0.00411455 -0.00637012
N 13.86932004 12.64390772 27.30148074 0.00174230 -0.00181548 0.00303811
N 11.92805680 6.46326090 19.08586468 0.00416061 0.00762080 -0.00206279
N 15.99785645 0.57665834 2.26754082 -0.00968986 0.00285056 -0.00233423
N 9.45668747 19.01578589 10.55347639 0.00134559 -0.00217526 -0.00122456
N 11.72206952 12.66840385 6.13732518 -0.00322780 -0.00297429 -0.00110969
N 13.61784899 19.35511547 14.13155273 0.00088119 0.00864556 -0.00198813
N 9.35685580 12.86455289 14.43878165 0.00763309 -0.00499216 0.00153460
N 15.77595636 19.23103684 5.91958522 -0.00124683 0.00238809 0.00340510
N 14.18758223 25.46565925 10.76737403 -0.01244370 0.00911063 -0.00002546
N 11.75533682 18.94407640 2.46907969 -0.00492595 0.00215948 0.00234355
N 16.18275548 0.21381146 19.03493606 -0.00636624 -0.00154341 -0.00177850
N 9.53154961 19.09779445 27.21954709 0.00276031 0.00421731 -0.00874727
N 11.99340836 12.39289701 22.64138615 -0.00241802 -0.00393925 0.00587738
N 13.68231738 19.61856789 30.69087293 0.00449415 -0.00485675 0.00472608
N 9.37189314 12.85635454 30.57435801 -0.00019076 0.00909086 -0.00067284
N 16.01277870 19.42144247 22.52456223 0.00620874 0.00266970 0.00444738
N 13.68773179 0.12310849 27.01860288 -0.00351821 -0.00221314 -0.00432932
N 11.65545570 19.18094537 18.65296492 -0.00758241 0.00092289 -0.00309129
N 24.59529815 13.19347570 2.46772784 -0.00553377 0.00556285 0.00156008
N 18.05494951 6.31189691 10.42194254 -0.00028166 0.00115577 0.00097852
N 20.22748273 0.07843708 5.59716607 -0.00332078 -0.00195077 0.00038410
N 21.99358610 6.50579423 13.97398077 -0.00149357 0.00434477 -0.00012449
N 17.79569274 25.58622430 13.56944894 0.00067475 -0.00693293 -0.00037023
N 24.38609719 6.78810120 5.81198821 0.00355305 0.00567590 0.00035142
N 22.37778885 12.82057436 10.88258755 -0.00522464 -0.00236850 -0.00549943
N 20.06343946 6.60692968 2.28656839 -0.00086084 0.00187365 0.00756385
N 24.59686362 13.00924481 19.05423950 0.00168095 0.00578719 -0.00666608
N 18.05521968 6.43271070 27.10919773 -0.00421944 0.00376897 -0.00061103
N 20.27650590 25.64187179 22.07272086 0.00838481 0.00925187 0.00157764
N 22.21074304 6.59381217 30.66961412 0.00062513 -0.00710909 0.00073361
N 17.63302588 25.47753092 30.29945471 -0.00378122 0.00505002 0.00063046
N 24.36567807 6.44104161 22.08239305 0.00390171 -0.00578687 0.00055719
N 21.77126398 12.95670919 27.22467016 0.00129401 0.00505484 -0.00341711
N 20.15047444 6.11434650 18.56952253 0.00093629 -0.00157901 -0.00414250
N 24.52734115 0.09036758 2.26658891 0.00132541 0.00548888 0.00639155
N 18.08671734 19.13591638 10.71760320 -0.00314893 -0.00072578 0.00139426
N 20.31667133 12.98751018 5.78853548 0.01071663 -0.00395061 0.00170529
N 22.49491313 19.05401016 13.90281296 -0.00005086 -0.00354314 -0.01057812
N 18.27057991 12.79882498 14.41975481 -0.00405455 -0.00149814 0.00240558
N 24.77097043 19.64205564 5.62883947 -0.00258891 -0.00163324 0.00752997
N 22.55532092 0.12370084 10.39492108 -0.00215940 -0.00069546 0.00538705
N 20.26091357 19.46725971 2.49166470 0.00406279 -0.00521972 0.00263375
N 24.41291041 25.71254728 18.60040033 0.00038478 -0.00727829 -0.00646469
N 17.70566531 19.32075295 27.51898023 -0.00049099 0.00464746 0.00360310
N 19.92083437 13.06561809 22.53693607 -0.00638643 0.00236617 0.00193398
N 21.71132692 19.80860527 30.60842052 0.00364774 0.00399692 0.00868247
N 17.84081579 12.51817598 30.68851968 -0.00602808 -0.00286773 -0.00768085
N 24.41363431 19.38403630 22.11841512 -0.00337925 0.00482659 0.00037986
N 22.25360926 0.25898774 26.77428868 -0.00325053 -0.00016699 0.00622325
N 19.93745767 19.22139716 18.90784403 -0.00155786 0.00174589 -0.00511122
C 7.64909310 0.63679351 4.82652097 -0.00561986 -0.00612225 0.00283772
C 0.81630981 5.71278243 13.01097963 0.00638398 -0.00596623 -0.00816514
C 3.27710065 12.69273437 3.46778122 0.00268480 -0.00343035 -0.00531886
C 5.19223733 6.79492239 11.74054259 -0.00012180 -0.00968815 0.00347414
C 1.28633217 12.54350008 11.87525520 0.01435059 0.00771303 0.00393071
C 7.70141316 6.91998135 3.48911043 0.00647828 -0.00359275 0.00677689
C 5.36582460 0.25048817 13.08219291 -0.00852191 0.00609283 0.00036201
C 3.13406673 6.36857548 4.85143983 -0.00999517 0.00438527 -0.00228245
C 7.21073823 1.18133247 5.97691419 0.00277661 0.00355335 0.00096797
C 1.26666425 5.17579950 14.18278808 -0.00644904 -0.00655376 -0.00361453
C 2.89650080 12.08308956 2.30530856 -0.00561173 -0.00078235 0.00361587
C 5.65611202 7.47528808 10.63240242 -0.00668068 -0.00168206 -0.00130693
C 1.59499928 11.83688759 10.70382773 -0.00215471 -0.00138739 0.00249911
C 7.16618719 7.52467545 2.37780461 0.00035602 0.00136182 -0.00058369
C 5.71121447 1.02743459 14.13474682 0.00231789 -0.00455352 0.00539071
C 2.86581308 5.60891772 6.02103061 -0.00234579 -0.00539699 0.00041452
C 6.28558248 2.24195920 5.86214884 -0.00390404 0.00356089 -0.00133600
C 2.27826340 4.17691461 14.22492841 -0.00735740 -0.00140830 0.00917036
C 2.14009098 10.90589476 2.29181104 -0.00124627 0.00000246 -0.00082733
C 6.43571231 8.62355872 10.75220213 0.00242053 -0.00311199 0.00141386
C 2.35947599 10.64151902 10.83147221 -0.00285797 0.00793002 -0.00404299
C 6.10814775 8.46469171 2.54791149 -0.00693981 0.00213442 -0.00021587
C 6.63748612 2.12494499 14.01343807 -0.00009591 0.00370375 -0.00598463
C 2.03774426 4.48731525 5.97343639 0.00419243 0.00537639 0.00260303
C 5.99097044 2.81065760 4.62169989 0.00358672 -0.00393799 -0.00224552
C 2.60326846 3.61651708 12.93102110 -0.00250277 0.00699693 0.00738186
C 1.72996431 10.31911901 3.52045966 -0.00760738 -0.00531740 -0.00096429
C 6.79898291 9.06635058 12.02604313 0.00012550 0.01020320 -0.00806607
C 2.69431227 10.15716070 12.10067092 -0.00245400 -0.00129210 0.00158578
C 5.86448488 8.89439422 3.84588645 0.00203250 0.00133734 -0.00751648
C 6.89647838 2.60400402 12.75208310 0.00453362 -0.00723445 -0.00075972
C 1.74796083 3.97350110 4.70467050 0.00177776 -0.00727802 -0.00321547
C 6.32487577 2.15244213 3.45672966 0.00142945 0.00339186 0.00165569
C 2.12603507 4.15761727 11.78509591 -0.00172449 -0.00453936 -0.00701099
C 2.16332175 10.90179741 4.69174284 0.00661213 -0.00147698 -0.00222918
C 6.32461597 8.44314556 13.15799677 0.00481020 -0.00123659 0.00317237
C 2.21891117 10.77462271 13.22381929 -0.00064051 0.00936331 0.00317195
C 6.35695135 8.18155234 4.98277494 0.01281439 -0.00285851 0.00213777
C 6.48133637 1.81724817 11.66804740 0.00104128 -0.00899650 -0.00067467
C 2.13606704 4.53605720 3.51798682 0.00139606 0.00619442 -0.00260162
C 7.14243280 1.02002549 3.62327145 -0.00313690 0.00810960 0.00567623
C 1.37782778 5.33899733 11.79283879 0.00352385 -0.00018853 0.00111972
C 2.94713015 12.07563141 4.70188443 -0.00451591 -0.00338552 0.00023542
C 5.59440182 7.21448084 13.03693350 0.00313972 0.00777794 -0.00966048
C 1.69165507 12.07871966 13.10583142 0.00604624 0.00025495 -0.00313696
C 7.17993900 7.09595389 4.79334616 0.01248741 -0.00076076 0.00492024
C 5.76983822 0.63636330 11.79291733 -0.00516057 -0.00239889 0.00178513
C 2.64504149 5.89123464 3.59024237 0.00189169 -0.00161509 -0.00037768
C 6.91539546 0.17154876 1.34980285 -0.00033265 0.00209701 0.00199080
C 1.73093948 6.03341637 9.47698158 -0.00479630 0.00182304 0.00244235
C 2.82719907 12.71686848 7.06775401 0.00316755 0.00025283 0.00082517
C 5.76562119 6.46282832 15.36613984 0.00108393 0.00023963 -0.00142874
C 1.59314033 12.58121535 15.43997272 -0.00975119 0.00196307 0.00418842
C 7.04144500 6.36022025 7.07501220 -0.00001851 -0.00164220 0.00120392
C 5.72547482 0.19701079 9.45276490 0.00648956 0.00477135 0.00184096
C 2.64902479 6.33781498 1.16316845 -0.00258469 0.00122605 -0.00022795
C 7.01200780 11.79147530 16.99058177 0.00074077 0.00092987 0.00026172
C 1.78667680 7.30383015 8.62291986 0.00788377 -0.00020653 -0.00273402
C 2.90944850 1.29430058 7.82822394 0.00120065 -0.00332973 0.00120485
C 5.64620307 5.68908082 0.05121759 0.00932503 0.00173939 0.00115297
C 1.35610633 1.08134944 32.61926878 0.00565266 -0.00373008 0.00890378
C 7.27070389 5.14858919 7.97539849 -0.00127441 0.00324936 -0.01192081
C 5.61299596 12.00016522 8.60262843 -0.00178234 -0.00378154 0.00176487
C 3.02055794 7.00709021 16.63692774 -0.00365623 -0.00499619 -0.00689304
C 7.56245357 0.27460077 21.37779850 0.00236653 0.00242099 0.00094603
C 0.97273780 6.23757643 29.31594912 0.00397437 -0.00056871 -0.00812230
C 3.33766915 12.20566731 20.10093204 0.00036966 -0.01064970 -0.00107185
C 5.29122925 6.90423723 28.43599875 0.00037087 -0.00627320 0.00023252
C 0.83637737 12.67505552 28.23181523 0.00404621 0.00003575 -0.00908584
C 7.51366863 6.59665690 20.22489907 -0.00637231 0.00233381 -0.00358456
C 4.90107517 0.39019645 29.68266228 -0.00781616 0.00199991 -0.00073836
C 3.70718940 5.90620867 21.10270578 0.00324180 -0.00081313 -0.00099982
C 7.30979866 0.94733252 22.58240223 -0.00679324 -0.00320601 0.00410198
C 1.32895973 5.53433737 30.45436142 -0.00255109 0.00727479 0.00308455
C 2.96569480 11.52406784 18.98777019 -0.00391701 -0.00343246 0.00150291
C 5.60737918 7.66483819 27.28802395 0.00183045 0.00629279 -0.00407361
C 1.14383214 11.86526050 27.12207873 -0.00682136 0.00086994 0.00072566
C 7.04413759 7.29424274 19.10565638 0.00045781 -0.00215734 0.00298605
C 5.16502823 1.11128110 30.82588783 0.00550467 0.00095076 -0.00379501
C 3.24854452 5.43542417 22.30470068 -0.00017695 0.00158454 -0.00081214
C 6.50294499 2.13999164 22.53719347 0.00306230 -0.00056294 -0.00037522
C 2.01247684 4.33559492 30.45351152 0.00481738 0.00358778 -0.00654233
C 2.21336880 10.31548015 19.05724851 0.00354922 -0.01148908 0.00420203
C 6.47234695 8.77561053 27.39114687 -0.00167781 -0.00144875 -0.00839107
C 1.92023150 10.73405919 27.28292827 0.00173177 0.00083161 -0.00298682
C 6.20041182 8.40185576 19.13673761 -0.00424386 -0.00155396 -0.00107517
C 6.05480086 2.15544092 30.72464415 -0.00316300 0.00972067 0.00611115
C 2.17633663 4.45743143 22.40905638 0.00086932 0.00059959 0.00675965
C 6.19256853 2.69393884 21.28131462 -0.00622866 0.00779399 -0.00036952
C 2.33008931 3.81744718 29.15327110 -0.00431702 -0.01516342 -0.00095528
C 1.92913600 9.79491814 20.33197347 -0.00419416 -0.00245464 0.00390919
C 6.72153914 9.31643684 28.60477575 0.00222132 -0.00743505 -0.00624822
C 2.37056694 10.37122837 28.55872849 0.00369036 0.00293322 0.00281126
C 5.98451364 8.93095601 20.42036051 -0.00389570 0.00458823 -0.00283147
C 6.63119906 2.53453499 29.48841705 0.00231988 0.01277813 0.00460839
C 1.85492387 3.82384267 21.18378541 0.00233325 -0.00005934 0.00369788
C 6.60679230 2.10361770 20.13485379 0.00343225 -0.00230674 0.00851809
C 1.97782302 4.49693345 28.04755833 0.00443693 -0.00243745 0.00006638
C 2.28804095 10.50129909 21.47459179 0.00069796 -0.00117815 -0.00232759
C 6.26592995 8.63250177 29.74842238 0.00246253 0.00038685 0.00128528
C 2.06891936 11.16595227 29.64707063 0.00141585 0.00045017 -0.00299952
C 6.45354007 8.31240821 21.56179221 -0.00491500 -0.00028878 -0.00163376
C 6.16989574 1.96328980 28.25155084 0.00812883 -0.00001711 -0.00058096
C 2.29436554 4.25375674 19.94135465 -0.00032155 0.00694365 0.00508515
C 7.20219854 0.81101000 20.14589990 -0.00310143 0.00476540 -0.00489196
C 1.31656798 5.76889955 28.02556888 -0.00049579 0.00297533 0.01146692
C 2.95378458 11.75614902 21.36431219 0.00284213 -0.00472858 0.00293250
C 5.57275628 7.39521790 29.70051086 0.00246058 -0.00017348 -0.00086221
C 1.34954248 12.34894898 29.53777386 -0.00618600 -0.00115901 0.00636785
C 7.19832149 7.04095901 21.48948141 -0.00185766 -0.00430018 0.00346258
C 5.32024258 0.78349750 28.39520504 0.00055392 -0.00052460 -0.00140553
C 3.12402423 5.36759073 19.89622972 -0.00372170 0.00552592 0.00217041
C 7.15765304 0.30071800 17.74169301 0.00135817 -0.00033860 0.00011086
C 1.61374242 6.34561249 25.69015347 0.00185358 0.00131951 0.00470154
C 2.87269199 12.37867233 23.67223411 0.00449112 0.00326712 0.00535292
C 5.71711843 6.83133349 32.05500295 0.00422056 -0.00288608 0.00083102
C 1.45694981 13.06541402 31.81919330 0.00064335 0.00028067 -0.00663500
C 6.95213568 6.50450724 23.89178789 0.00275817 0.00242074 0.00126149
C 5.67839651 0.10926711 26.11627225 -0.00216703 -0.00029870 -0.00259645
C 2.77945421 5.84249048 17.59657880 -0.00882698 -0.00552681 -0.00182057
C 7.09355798 11.82584142 0.35110511 -0.00039425 0.00206839 -0.00208666
C 1.39819311 7.33750153 24.62604614 -0.00017402 -0.00285304 0.00493296
C 3.11285324 0.92277892 24.31292006 0.00837136 0.00357593 -0.00155163
C 5.82617126 5.11226085 16.12932479 0.00706522 0.00517288 -0.00301347
C 1.55707247 0.95702567 16.25447484 0.00013418 0.00428027 0.00261589
C 7.10770659 5.37219463 24.86864024 -0.00357145 -0.00159871 -0.00812623
C 5.67218006 12.11645204 24.93367575 -0.00685356 0.00246370 0.00059032