1920
Time=18999.99999999 pbc="T T T" Lattice="25.54972440 0.00000000 0.00000000 0.00000000 25.64021613 0.00000000 0.00000000 0.00000000 33.00115643" energy=-12250.17841554 virial="-52.39487327 1.82294458 3.52266109 1.82294458 -48.23940139 21.45009045 3.52266109 21.45009045 -65.04225553" stress="-0.00015427 -0.00000101 0.00017453 -0.00000101 0.00000412 0.00092712 0.00017453 0.00092712 -0.00087021" Properties=species:S:1:pos:R:3:vel:R:3
O 5.74297058 2.65247163 7.46094929 -0.00148386 -0.00249253 0.00473578
O 2.71116586 3.44080146 14.73266234 0.00491969 0.00265187 -0.00076567
O 1.68345213 9.79133189 1.30903872 -0.00892166 0.00367294 -0.00206712
O 7.03567248 9.10389601 9.22320896 0.00105746 0.00484943 0.00534942
O 3.03519569 10.17783509 9.63848417 0.00296573 -0.00391902 -0.00110254
O 5.96596739 8.77182298 0.72775084 0.00001993 0.00419517 -0.00618941
O 7.40539137 2.76176841 15.66287393 0.00873188 -0.00339764 0.00759311
O 1.47755734 3.75673731 6.78742346 0.00396719 0.00569501 0.00758063
O 6.35908907 1.14388813 17.62084945 0.00804351 0.00090932 0.00019121
O 2.26458858 5.35637903 8.75067100 -0.00813385 0.00046423 0.00947091
O 2.10956018 11.62469842 7.52588468 -0.00377856 0.00021406 0.00089722
O 6.63932527 7.63385369 31.62640057 0.00353685 -0.00609901 0.00172764
O 2.38324106 11.44270728 32.04112178 -0.00269184 0.00114077 -0.00077257
O 6.41649510 7.72297872 7.16318711 0.00138187 0.00477619 0.00001320
O 6.34132996 1.41961286 9.60182542 0.00525452 -0.00617016 -0.00335429
O 2.38266030 5.30043212 16.77957276 -0.00186074 0.00637107 -0.00563631
O 5.98993726 2.45614760 23.80037924 -0.00134837 0.00277387 -0.00265550
O 3.05092501 3.01913437 31.18944640 0.00183987 0.00783828 0.00012555
O 1.22570283 9.91803200 17.75750072 -0.00083894 0.00036063 -0.00215711
O 6.88968326 9.22268941 25.67974987 0.00321560 0.00059912 -0.00489468
O 3.10379723 10.46769269 25.96989933 -0.00259878 -0.00477409 0.00113160
O 5.99760866 9.01098270 17.43647082 0.00617941 0.00547895 0.00632570
O 7.06291944 2.89063892 32.08231629 -0.00081465 0.00184435 -0.00241082
O 1.62257285 3.53239742 23.26031964 -0.00367193 0.00592908 0.00004040
O 7.04539450 1.32523558 1.20993286 0.00322452 0.00365954 -0.00036517
O 1.85312141 5.18952792 25.23687826 0.00102456 0.00302164 0.00333052
O 2.59401644 11.45837650 23.75320454 0.00188959 -0.00215593 0.00052800
O 6.51397810 7.52402016 15.44286610 -0.00565030 -0.00673085 -0.00189093
O 1.70964471 11.64917745 15.70245154 0.00095059 -0.00092253 0.00106910
O 6.29593802 7.55563257 23.85043273 -0.00387637 -0.00480378 -0.00553820
O 6.40017587 1.03292101 25.92543545 -0.00449012 0.00430851 0.00094459
O 2.60641220 4.75510196 0.38154231 0.00070246 -0.00141632 0.00179796
O 5.60510309 15.40424179 6.65780213 0.00109251 0.00590857 -0.00153048
O 2.59959989 16.70376556 15.19370184 0.00073127 -0.00476639 0.00034251
O 1.45687122 22.89477638 1.98523853 -0.00183256 -0.00367019 -0.00142266
O 7.38503018 22.06990401 9.96789000 -0.00092118 -0.00479165 -0.00073376
O 2.67364857 23.09091544 10.01013973 -0.00104401 0.00529680 0.00160306
O 6.16553134 22.02340589 1.51561721 0.00207011 0.00035257 0.00105153
O 6.61375092 15.82041825 14.70030394 0.00943363 -0.00152857 0.00177916
O 1.20569866 17.15196377 7.30786902 0.00590891 0.00524417 0.00274026
O 6.62026223 14.21658072 16.87108131 -0.00155648 -0.00221377 0.00197563
O 2.22524535 18.42264800 9.27721097 -0.00024202 -0.00859767 -0.00388774
O 2.33652398 24.61383477 7.89932259 0.00597842 0.00604551 -0.00509413
O 6.10420448 20.55607815 32.26364970 0.00159136 -0.00188375 0.00678909
O 1.62928821 24.21868378 32.71135207 -0.00234744 -0.01047355 0.00035169
O 7.21571188 20.70539799 7.69287082 -0.00262575 0.00164540 -0.00464631
O 6.24862099 14.05533384 8.65448238 -0.00354640 -0.00078270 0.00307058
O 1.85454728 18.17323402 17.36700876 -0.00301211 -0.00033193 -0.00456085
O 5.98625621 15.79452045 23.10483563 -0.00394370 -0.00400151 0.00743851
O 2.76336655 16.51210358 31.66976930 0.00663246 0.00912017 -0.00405381
O 1.35802688 23.01860855 18.31478212 0.00118320 -0.00130513 -0.00030133
O 6.55244275 21.79723358 26.06650252 -0.00090337 0.00565830 0.00267083
O 2.35898129 22.67524048 26.50964343 0.00468761 0.00088092 -0.00408782
O 5.93613080 21.88561399 17.95469075 0.00380137 0.00323630 0.00212407
O 6.45661194 15.52576907 31.61141825 -0.00041135 -0.00178100 -0.00652799
O 1.67631575 16.34930371 23.38119143 -0.00558555 -0.00360824 0.00050344
O 6.00111018 13.81543962 0.61772436 -0.00069828 0.00854077 -0.00556328
O 1.84036658 17.87012907 25.61962212 0.00033722 0.00194262 0.00114890
O 1.99665904 24.16874639 24.55833045 0.00367973 -0.00162094 0.00079522
O 6.12925762 20.41567844 15.87128611 0.00726843 -0.00359797 0.00199892
O 1.95203842 24.74355223 16.31206685 -0.00561405 0.00021381 0.00244949
O 6.05570391 20.18783692 24.05148513 0.00033132 -0.00286470 0.00137065
O 6.25870927 14.17834045 25.17711746 0.00182585 -0.00096542 0.00172454
O 2.13099881 17.77339751 0.90752665 -0.00500067 -0.00194281 -0.00109947
O 14.50542045 2.47051103 7.53657965 0.00226372 -0.00401017 0.00152851
O 10.91765323 3.29531802 14.92153548 0.00462242 -0.00331628 0.00088465
O 9.71745401 10.02204706 1.21789002 -0.00104369 0.00285807 0.00295862
O 15.15774620 8.97704998 9.30649670 0.00163397 0.00388862 -0.00311832
O 11.26279290 10.28408082 9.35342323 -0.00083472 -0.00441441 0.00355986
O 14.27198217 9.09130049 1.22032615 -0.00308322 0.00220167 -0.00947706
O 15.03361845 3.00149166 15.52347824 -0.00140621 0.00358263 0.00489002
O 10.15800749 3.45213275 6.93564415 0.00668939 0.00395497 0.00431953
O 14.74712455 1.26519594 17.82060997 -0.00065749 -0.00054711 -0.00091872
O 10.32438500 5.13929311 9.00303407 0.00249126 -0.00319490 -0.00116917
O 10.69407290 11.65693143 7.24210649 0.00016112 -0.00964506 0.00191205
O 14.61071533 7.67477107 32.18964711 0.00631235 0.00753146 -0.00556642
O 10.45715246 11.40188130 32.07061843 -0.00626533 -0.00142555 -0.00532234
O 14.70890356 7.59760313 7.33447854 0.00159448 -0.00785348 -0.00010704
O 15.54495381 0.87037897 9.49338750 0.00352188 -0.00539643 -0.00225770
O 10.89236070 4.88130858 16.92093250 -0.00917137 -0.00074813 0.00114552
O 14.55870867 2.69781859 24.06668545 -0.00301701 -0.00384632 0.00486212
O 11.11165450 3.32244464 31.60567874 0.00268471 0.00397786 -0.00223830
O 10.14463044 10.12432702 17.57705948 0.00500851 -0.00429962 -0.00265620
O 15.68298221 9.37813800 26.04543879 0.00298850 -0.00094972 -0.00074815
O 11.25743455 10.05747376 25.88005069 0.00380978 0.00281223 -0.00123887
O 14.00671069 9.11628399 17.74106287 0.00584544 0.00201849 0.00110081
O 15.49131764 2.67576979 32.02886075 -0.00013922 -0.00276042 -0.00473433
O 10.27879146 3.13308101 23.28706834 0.00238848 0.00208808 -0.00239699
O 15.00597674 1.43372882 1.23243666 -0.00151339 0.00249763 -0.00474905
O 10.33748532 4.92961486 25.18429921 0.00140151 -0.00392345 -0.00291554
O 10.83340367 11.55506075 23.89256922 0.00010725 0.00486248 -0.00185357
O 14.77959288 7.94951535 15.60767956 -0.00204290 0.00013813 0.00025218
O 10.58165975 11.67022490 15.38199318 0.00486846 -0.00045988 0.00367013
O 15.22472782 8.01195664 23.79684241 -0.00161632 0.00428055 -0.00288341
O 15.45187927 0.96494033 25.90221329 -0.00206033 0.00339895 0.00350012
O 10.54434144 4.94304498 0.60746108 -0.00104942 -0.00243606 0.00166134
O 14.05047149 15.53697651 6.37685281 -0.00176357 0.00411762 -0.00741392
O 10.96410472 16.78560339 15.43453850 0.00196106 -0.00517526 0.00234336
O 10.35381096 22.63883189 1.50685404 0.00087978 0.00084324 0.00745616
O 15.69131648 21.87845642 9.36950319 -0.00306182 -0.00133551 -0.00418042
O 11.60865728 23.06236371 9.95705248 -0.00470723 -0.00220282 0.00426082
O 13.95256674 21.81619938 1.48383639 0.00009841 0.00113267 0.00277019
O 15.17934986 15.71940234 14.82955446 0.00551361 -0.00502679 0.00637876
O 9.88115829 16.78907326 7.15420689 -0.00206740 -0.00366629 0.00046087
O 14.63095419 14.17343482 17.00321304 0.00305393 -0.00393117 0.00055232
O 10.70578204 18.15426726 9.16159985 0.00610877 0.00232772 -0.00476852
O 10.93835238 24.12280279 7.75591705 0.00058460 0.00080262 -0.00490401
O 14.73730718 20.38297098 32.40380048 0.00469188 -0.00639617 0.00044916
O 10.54678350 24.20657522 32.60632724 0.00359308 0.00295263 0.00130708
O 15.29165417 20.22205708 7.38621959 -0.00148537 0.00141488 0.00321941
O 14.41355472 14.11957363 8.63202760 0.00056832 -0.00148017 -0.00099383
O 10.39943993 17.96279375 17.89905492 -0.00055773 -0.00286913 0.00553758
O 14.23870928 15.41592721 23.11988638 0.00179902 -0.00145281 0.00001827
O 11.14987910 16.44977325 32.03254728 -0.00007466 -0.00266436 -0.00054091
O 9.90521037 22.92360916 18.30632419 0.00252591 -0.00093884 0.00644573
O 15.77864848 21.49925775 26.19600553 0.00269417 -0.00541066 0.00272585
O 11.40632472 23.06454383 26.19393807 0.00672414 -0.00021287 -0.00140559
O 13.65098444 21.66594780 18.32715385 -0.00045119 0.00693782 -0.00704042
O 15.28996762 15.67094415 31.37122448 -0.00528673 0.00354330 0.00097117
O 10.00032096 16.59310767 23.97737999 -0.00077066 0.00662994 0.00306702
O 14.98313516 14.07020298 0.30290647 0.00260804 -0.00325622 0.00228446
O 10.67866875 18.10185259 25.94598645 0.00307429 -0.00362337 -0.00460672
O 10.51697848 24.44248423 24.34389866 -0.00100926 -0.00600252 -0.00583145
O 14.43709793 20.78152103 16.00393591 -0.00604404 0.00304882 -0.00187058
O 10.33286579 24.03179492 15.99651102 0.00474174 0.00053428 0.00269581
O 15.06895689 20.16764674 24.21602276 0.00591528 -0.00043742 0.00327981
O 14.91263193 14.15754342 25.28380573 0.00041896 0.00050076 0.00399757
O 10.66716161 17.88260833 0.97595116 0.00194811 0.00299277 0.00030017
O 22.99034925 2.88664709 7.21912642 0.00086618 0.00347694 0.00217351
O 19.37433328 3.49283860 15.09746987 0.00347205 0.00233050 0.00289410
O 18.90557656 10.01857246 1.17772786 -0.00273385 -0.00400846 0.00004307
O 24.23727450 9.35498576 9.35177649 0.00173842 0.00246283 -0.00694954
O 20.03995724 10.52824610 9.68101040 0.00080816 -0.00752848 -0.00089732
O 22.67281658 8.87102871 0.97104876 0.00190978 -0.00555266 -0.00524817
O 23.98422509 2.59560314 15.45607912 -0.00155296 -0.00114542 0.00109646
O 18.34825488 4.32841188 6.74486008 -0.00445547 0.00002497 -0.00043456
O 23.54256943 0.94250557 17.47100204 -0.00015540 0.00806298 0.00288224
O 19.11262951 5.41804042 8.93905155 -0.00253275 0.00136054 0.00272068
O 18.94603374 11.67054867 7.49573476 0.00594652 -0.00146544 -0.00292935
O 23.75683997 7.75860614 31.83122976 -0.00266059 0.00364039 0.00338951
O 19.72183403 11.80940303 32.22206494 -0.00790159 0.00193205 -0.00068779
O 24.15253025 7.94387788 7.22164065 0.00203742 -0.00857880 -0.00510987
O 23.96485635 1.44584790 9.29587528 0.00688636 0.00210441 -0.00322533
O 19.23525740 5.30330810 17.01727516 -0.00548281 -0.00214551 0.00385925
O 22.99058192 2.88367884 23.50975648 -0.00222746 0.00047205 0.00067686
O 19.57984190 3.48265686 31.71291907 -0.00132953 -0.00804052 0.00087009
O 18.71135602 9.93553208 18.08029648 -0.00078084 0.00123984 -0.00399196
O 24.52766986 9.02745182 25.75340716 0.00400807 -0.00230316 0.00493093
O 20.10594633 9.84354489 26.11224763 0.00323678 -0.00578933 0.00708231
O 22.53652870 9.04728894 17.22478685 0.00196815 -0.00079997 0.00039126
O 24.08191533 2.56613559 32.03950676 -0.00528535 -0.00358984 -0.00183988
O 18.17371621 3.82398401 23.17688825 0.00662339 -0.00487014 -0.00625598
O 23.20647558 1.28664432 0.91495467 -0.00798752 -0.00152178 0.00046648
O 19.38025488 4.96182146 25.57862396 -0.00165523 0.00511953 0.00179438
O 19.43288885 11.46752835 24.22705672 -0.00327157 -0.00710680 -0.00126980
O 22.98279933 7.32505531 15.19502136 -0.00982763 -0.00139224 -0.00198893
O 18.85247987 11.38612128 15.92878522 -0.00217537 0.00908880 0.00037371
O 23.97276575 7.84516700 23.33535456 -0.00303513 0.00403594 0.00140194
O 23.60450792 1.45079663 25.71569389 0.00156404 -0.00040162 -0.00054039
O 19.13756487 4.93437694 0.69514245 -0.00161531 0.00029852 0.00080193
O 23.34332837 15.82944816 6.75954076 0.00981260 -0.00162898 -0.00214638
O 19.23937003 16.33851166 15.10525490 -0.00241336 0.00282931 -0.00000051
O 18.56888233 22.78500119 1.40804166 0.00326485 0.00026274 0.00347850
O 23.41644918 22.35569874 9.58924871 0.00128009 0.00430480 -0.00231493
O 19.80961599 23.41524287 9.30734689 -0.00426123 0.00343768 -0.00326331
O 22.77961885 21.96701287 1.46513837 0.00712165 -0.00242240 0.00062107
O 24.16371690 15.55509878 15.32166838 0.00043618 0.00584195 0.00769991
O 18.73687219 16.66496375 6.64037501 -0.00114655 0.00129955 0.00007520
O 23.61450604 14.05798049 17.30625209 -0.00254981 0.00059388 -0.00222879
O 19.30737123 17.81607868 8.86033818 0.00072085 0.00107839 0.00611481
O 19.06521314 24.79145698 7.25656141 -0.00444197 0.00133908 -0.00298014
O 23.42139479 20.66293203 32.34599517 -0.00044332 -0.00056410 -0.00556161
O 19.21585137 24.46508193 32.45045824 0.00845331 0.00267228 0.00412316
O 23.62684545 20.76072958 7.57260339 -0.00665237 -0.00731644 -0.00420530
O 23.22385840 14.51666682 9.10327616 -0.00207723 0.00518470 -0.00276020
O 18.98142394 17.90407337 17.27304028 -0.00033505 0.00543679 -0.00882237
O 22.84101824 15.27803251 23.40153324 0.00191664 -0.00954294 0.00561851
O 19.74957535 16.50267267 31.74781420 0.00016423 -0.00620737 -0.00512805
O 18.94830679 22.98523996 17.92978534 -0.00409173 -0.00082806 -0.00777919
O 23.87828654 21.91260611 25.85392680 0.00022901 0.00004647 0.00567710
O 19.55357331 22.74734101 26.31727841 -0.00304232 -0.00079219 -0.00003164
O 22.75990600 21.73856439 17.56357616 -0.00307406 -0.00761806 -0.00601168
O 23.74190621 15.32392384 31.67865014 -0.00382398 0.00354093 0.00068171
O 19.09485274 16.24737000 23.42333036 -0.00043000 0.00058086 0.00058770
O 23.29814772 13.67043692 0.77597386 0.00234690 0.00626289 0.00117105
O 19.46469339 18.02354234 25.46924332 -0.00155101 -0.00303056 0.00293279
O 19.61546669 24.39689359 24.21671557 0.00014158 0.00031330 -0.00415513
O 23.12041621 20.21495088 15.53995789 -0.00207136 0.00531525 -0.00645740
O 18.65955825 24.40453568 15.70618807 0.00313689 0.00146332 0.00355882
O 23.67480735 20.37284377 23.82181484 0.00081950 0.00070237 -0.00192287
O 23.70118146 14.13422178 25.45013322 0.00404586 0.00015147 -0.00059033
O 19.51763125 18.40845140 0.53154496 -0.00713232 0.00110545 0.00036100
N 7.43984261 12.79940193 2.11709487 0.00558037 0.00242957 0.00073791
N 0.96031608 6.44774713 10.31143011 0.00142549 0.00090251 -0.00294385
N 3.55633015 0.02055147 6.14258061 0.00332184 -0.00019408 0.00137433
N 5.37287657 6.49057166 13.75850432 0.00343172 -0.00258143 -0.00534865
N 0.81026633 0.07264875 14.56628434 -0.00222840 -0.00219752 0.00275142
N 7.66010486 6.57049249 5.52687422 -0.00277087 -0.00095764 0.00941528
N 5.20752289 12.75126582 10.27779463 0.00304515 -0.00220874 -0.00130545
N 3.20974523 6.16738735 2.02602150 0.01077624 0.00135658 -0.00349236
N 7.60615656 12.93358775 18.56534443 0.00046551 0.00085268 -0.00360521
N 1.19732661 6.37847932 27.09943455 0.00310181 -0.00116668 0.00207472
N 2.75513206 25.62354696 23.02441808 0.00805938 0.00639343 -0.00087654
N 5.23104356 6.51404161 30.28794630 0.00056869 0.00226949 0.00761849
N 1.23527722 0.09538589 31.02038282 0.00006766 0.01240337 -0.00536178
N 7.57639000 6.61006187 22.16792859 0.01034319 -0.01170028 -0.00128035
N 5.25007970 12.88928838 26.73664906 -0.00556751 0.01012251 -0.00120255
N 3.37654870 6.14253530 18.70197253 0.00188582 -0.00012553 0.00307780
N 7.50866379 25.62369055 3.00220781 -0.00172375 0.00310170 -0.00378984
N 0.96297590 19.57053893 10.69449632 0.00143853 0.00045399 0.00042485
N 3.55990281 12.46817866 5.90320683 -0.00116746 0.00589450 -0.00569193
N 5.08142685 19.35772022 14.20570192 -0.00401892 -0.00187484 0.00345401
N 0.76311525 12.72930283 13.96650352 -0.00310693 0.00380696 0.00494390
N 7.35695670 19.13455232 6.09170374 -0.00638983 0.00263257 -0.00314415
N 4.96189219 0.64590671 11.24771198 -0.00242494 0.00250051 -0.00584644
N 3.28204728 19.00426322 2.54058139 -0.00073161 0.00589731 -0.00397829
N 6.97937080 25.26322364 19.16512919 0.00133869 0.00167567 -0.00648307
N 0.79285732 19.06522398 27.28312134 0.00545234 -0.00589520 0.00456465
N 3.77163853 12.34903307 21.94885075 -0.00402487 -0.00837965 0.00620764
N 5.35046071 19.07592464 30.73350696 0.00117170 -0.00188799 0.00057826
N 0.80745807 12.41815284 30.69319913 0.00004541 0.00042979 -0.00871903
N 7.43108968 19.15630132 22.51218842 0.00172554 0.00057618 0.00678343
N 5.37033368 25.57511325 27.63295302 -0.00342330 -0.00237025 -0.00225909
N 3.29578126 19.02953249 18.88007705 -0.00623556 0.00139587 0.00269195
N 15.91477235 12.80857578 2.02110200 0.00477320 -0.00283852 0.00071440
N 9.71036508 6.58831001 10.61888589 -0.01378363 0.00325321 0.00033625
N 11.75481770 25.46169726 6.04306102 0.00077161 -0.00322638 0.00382096
N 13.88639215 6.50491893 14.06146338 0.00975491 -0.00381028 0.00156296
N 9.73150792 25.55581327 14.40302086 -0.00096023 -0.00514076 0.00281178
N 16.10601830 6.62376231 5.78532890 0.00077171 -0.00493693 -0.00278413
N 13.81007983 12.80193545 10.38499785 0.00058351 -0.00285696 -0.00650782
N 11.66311711 6.00887685 2.31524087 0.00243465 0.00082292 0.00498878
N 15.85377382 13.02227169 18.53920744 -0.00446312 -0.00400282 0.00004265
N 9.52855805 6.13669669 26.95998284 0.00528266 0.00334613 -0.00056606
N 11.73487275 25.42352300 22.75277644 -0.00294291 0.00686476 0.00176346
N 13.74075228 6.46377844 30.39398679 0.00013307 -0.00479487 0.00908813
N 9.59500540 25.42133521 30.90162449 -0.00356883 -0.00822436 0.00155787
N 15.72441995 6.50243060 22.13452496 0.00372324 0.00191710 -0.00529516
N 13.94173435 12.73503670 26.81623800 -0.00705610 -0.00108615 -0.00806006
N 11.54987351 6.12786250 18.80817571 -0.00671162 0.00276102 -0.00678206
N 15.98935697 0.02623658 2.76761823 -0.00496361 -0.00187651 0.00264594
N 9.43168857 19.16658271 10.77808063 -0.00151525 -0.00329585 -0.00139078
N 11.82177761 12.73257540 5.55434796 0.00233173 0.00176216 -0.00013960
N 13.50195377 19.76984649 14.13338456 0.00001886 -0.00475951 -0.00540323
N 9.22896958 12.74278695 13.85913149 0.00029917 -0.00116776 0.00212239
N 16.41432988 19.09062058 5.70465184 -0.00067510 -0.00301067 -0.00059386
N 13.85750598 0.23621091 10.88342297 0.00648673 0.00680380 -0.00001234
N 11.88590975 19.17159668 2.48485534 -0.00487854 0.00285298 -0.00040084
N 16.18589576 0.30444366 19.29614650 0.00079428 0.00257015 0.00085583
N 9.40081106 19.21158863 27.46729561 -0.00224480 0.00095728 0.00121887
N 11.90628933 12.58964923 22.24979449 0.00274421 0.00361046 0.00191037
N 13.54414080 19.28332294 30.70217396 -0.00225851 0.00857635 0.00267373
N 9.35754310 12.54271526 30.42288525 -0.00603149 -0.00761347 0.00150196
N 16.23621332 19.21856076 22.53337011 -0.00956925 0.00129079 -0.00079143
N 14.08240580 25.60665574 27.47616536 0.00070549 0.00367910 0.00442320
N 11.60201796 19.23893110 19.35440976 -0.00145969 0.00049213 0.00096081
N 24.27602269 12.46781922 2.41770148 -0.00243932 0.00275586 0.00325202
N 17.97888426 6.39503400 10.58563634 -0.00856296 0.00295368 -0.00035204
N 20.32679307 0.20115976 5.69859475 0.00145457 -0.00028197 0.00217442
N 22.27660087 6.21119206 13.36578310 -0.00443980 -0.00122511 -0.00993311
N 17.82431524 25.62764154 13.94330516 -0.00311747 -0.00003979 0.00950071
N 24.87436201 6.65340564 5.44036573 0.00133011 -0.00624560 0.00233986
N 22.23346457 13.31344467 10.79297383 -0.00271934 -0.00006107 -0.00035529
N 20.11040657 6.44867386 2.14229279 0.00689769 -0.00526686 -0.00724736
N 24.41543691 12.58333672 18.86586523 -0.00163060 -0.00350992 -0.00354158
N 18.12261667 6.06146427 27.10286840 0.00628989 0.00393323 -0.00150961
N 19.93872327 0.24690421 22.56617856 0.00409128 -0.00286264 0.00524841
N 22.49897780 6.55192323 30.38733085 0.00464521 -0.00683539 0.00201901
N 18.05768928 25.62451465 30.82947253 0.00085084 0.00217580 -0.00036167
N 24.96741270 6.73792227 21.66201945 -0.00130856 -0.00172430 0.00454032
N 22.39149568 12.99264108 26.88728749 -0.00787852 0.00259539 0.00490602
N 20.03491861 6.68421380 18.68122692 0.00250516 0.00143518 -0.00081427
N 24.53238854 0.21485200 2.56127811 0.00092841 -0.00602215 0.00144313
N 18.35763628 19.12074487 10.55149847 0.00088821 -0.00384992 -0.00028251
N 20.24749395 12.69437384 5.86414132 -0.00020673 -0.00402156 0.00331778
N 21.89753615 19.32416308 13.89958533 -0.01118219 0.00595682 -0.00207671
N 17.75525328 12.49719473 14.27604003 0.00375424 0.00111194 -0.00191770
N 24.16110951 19.27698035 5.96771229 -0.00450142 -0.00468844 0.00886734
N 22.33255428 0.51711101 10.59243670 0.00149234 -0.00394649 -0.00495719
N 20.33814760 19.60791402 2.28636978 -0.00248440 -0.00459041 0.00064367
N 24.49941489 25.45379748 19.18884815 -0.00423910 0.00044946 0.00415410
N 18.35636184 19.25046454 27.14137183 0.00572463 -0.00045846 -0.00007569
N 20.14686413 12.90233024 22.59250182 0.00170332 -0.00443251 0.00094725
N 22.28140006 19.59528223 30.65025780 -0.00582573 0.00213531 -0.00380546
N 18.30794239 12.72606067 30.54020145 -0.01077265 0.00229205 0.00460109
N 25.03156103 19.52465401 22.15871399 -0.00303779 -0.00375976 0.00214559
N 22.42004001 0.32310138 27.25713174 0.00206696 -0.00092945 0.00078443
N 20.13327103 19.13950311 18.82842481 0.00380423 -0.00533344 0.00529660
C 7.58554408 0.40538465 5.32130931 -0.00069013 0.00253807 0.00411393
C 0.97445604 6.01681732 12.70886027 0.00847688 0.00609146 0.00327550
C 3.32953828 12.28258533 3.50605161 0.00110121 -0.00328143 0.00392186
C 5.35625438 6.73328267 11.35484571 0.00098332 0.00418599 -0.00566361
C 1.16525298 12.50459020 11.62023959 -0.00090427 0.00384548 0.00250704
C 7.72290823 6.67269220 3.09302034 -0.00027992 0.00979626 0.01168062
C 5.13805067 0.83314637 13.62183085 -0.00246884 0.00121914 0.00179649
C 3.23445858 5.98515515 4.53165856 0.00143758 -0.00188387 0.00328146
C 7.09694344 1.08072566 6.36848375 0.00404807 0.00520427 -0.00061795
C 1.51150440 5.33989342 13.81282808 0.00050211 0.00166857 0.00037984
C 2.90642501 11.62882791 2.33867643 0.00389120 -0.00230383 -0.00278767
C 5.74298335 7.42425487 10.25386651 -0.00368238 0.00381590 -0.00116393
C 1.65445505 11.89213086 10.50769597 0.00363909 -0.00826391 -0.00457634
C 7.23131819 7.17396375 1.89915609 -0.00416027 -0.00695453 -0.00687338
C 5.69142344 1.41177060 14.74831144 -0.00394029 0.00342711 0.00414554
C 2.79210677 5.38381647 5.67212180 -0.00078877 0.00270640 -0.01072228
C 6.33076231 2.30737240 6.29018483 0.00627850 -0.00306641 -0.00929535
C 2.19708366 4.10819537 13.63309877 -0.00452307 -0.00162371 -0.00492108
C 2.19408595 10.42410418 2.42188595 0.00087383 0.00203800 0.00059391
C 6.50360443 8.58882674 10.27593237 -0.00420810 0.00347093 0.00165044
C 2.43425132 10.71492960 10.70739376 0.00592484 -0.00430634 0.00684516
C 6.45023050 8.32297198 1.89474471 -0.00969611 0.00369798 -0.00181199
C 6.64982403 2.42179919 14.58283944 -0.00034540 0.00152930 0.00029492
C 1.97802227 4.29897618 5.64065542 -0.00456551 -0.00580718 0.00760538
C 6.05826761 2.81055991 5.02671731 -0.00712642 0.00134460 -0.00468978
C 2.39491282 3.66451791 12.26730046 -0.00328997 0.00035971 0.00544830
C 1.97772194 9.87326645 3.69795335 -0.00231048 -0.00785724 0.00198304
C 6.75153246 9.21189813 11.60023945 -0.00289589 -0.00884189 0.00539096
C 2.40253392 10.11793340 11.99374747 -0.00641043 -0.00599279 0.00139425
C 6.18402706 8.96080788 3.09020492 -0.00217645 0.00487002 -0.00410381
C 6.91700352 2.98006327 13.31547435 0.00170092 0.00443137 -0.00158064
C 1.71500403 3.62402309 4.34457234 0.00726546 0.00574588 0.00577522
C 6.54504434 2.11686138 3.88738157 -0.00169466 0.00600856 0.00504666
C 1.98608689 4.44620994 11.20728076 0.00400474 0.00317427 0.00034441
C 2.38272619 10.48606141 4.86428674 0.00411400 0.00086605 -0.00224040
C 6.26592718 8.52269315 12.72971434 -0.00632193 0.00538165 0.00511843
C 1.86622967 10.73018768 13.07596998 -0.00450091 0.00053912 -0.00193385
C 6.57599123 8.40847658 4.34818675 0.00070613 -0.00039285 0.00176502
C 6.32125223 2.37515450 12.24219815 -0.00890568 0.00326018 -0.00180775
C 2.13488141 4.24582493 3.22330408 0.00188792 0.00300676 0.00293999
C 7.24842112 0.87544423 4.03386723 0.00319322 -0.00077310 0.00131427
C 1.31471743 5.62553577 11.41114911 0.00448128 -0.00206153 0.00814354
C 3.07739452 11.73628652 4.73774946 0.00113555 0.00440482 -0.00089206
C 5.67200871 7.26737484 12.67437247 -0.00256672 0.00574351 0.00622838
C 1.27760894 12.02175837 12.91749259 0.00222726 -0.00017277 0.00327180
C 7.27970075 7.20320328 4.38974859 -0.01701504 0.00116793 -0.00247678
C 5.43341417 1.31353704 12.36794580 0.00495745 -0.00356394 -0.00426714
C 2.75944628 5.51133661 3.23865744 -0.00561904 -0.00606404 0.00349387
C 7.21887269 0.20537687 1.71440176 0.00811250 -0.00092774 0.00328920
C 1.68923338 6.34709651 9.12749737 0.00302706 0.00340456 -0.00150177
C 2.87346485 12.50303469 7.08725175 0.00770348 -0.00155259 -0.00544677
C 5.87627561 6.58821932 14.99343185 -0.00208633 0.00327991 -0.00190366
C 1.38161313 12.67762041 15.15752049 0.00484836 0.00242341 -0.00480123
C 7.14127102 6.77899036 6.77002471 0.00661925 -0.00050414 -0.00741824
C 5.67613162 0.52902848 10.09434135 -0.01072707 -0.00527328 0.00665132
C 2.81957293 5.88600763 0.76813864 0.00509168 -0.00145470 -0.00068002
C 6.92933438 11.97920961 16.38339084 0.00045364 0.00115672 -0.00734827
C 1.54149363 7.65725675 8.32651785 -0.00132141 0.00037290 0.00405631
C 3.02404169 1.19243249 8.19670067 -0.00830909 0.00286604 0.00877697
C 5.71479188 5.56963154 32.51377784 0.00568937 0.01058210 -0.00056148
C 1.51205373 0.88837287 0.23144114 0.00133328 -0.00706175 -0.00153092
C 7.28950191 5.66903481 7.75011886 -0.00571183 -0.00366409 0.00006837
C 5.80245484 11.71931729 8.19840079 -0.00250268 0.00397390 -0.00133824
C 2.55613502 7.66455486 16.92796518 0.00327680 0.00286752 -0.00121165
C 7.26103721 25.61226623 21.52219488 -0.00368944 -0.00519850 -0.00398094
C 1.28666636 5.73079659 29.42736395 0.00569826 0.00029081 0.00136599
C 3.49353583 12.09213191 19.58355748 -0.00003414 -0.00097522 -0.00689908
C 5.41242510 6.70412214 27.87154874 0.01186667 0.00363624 -0.00355638
C 0.91785978 12.38464874 28.36821750 -0.00011409 -0.00425752 -0.00276605
C 7.50124935 6.68281202 19.83790537 -0.00707805 -0.00293337 -0.00078679
C 5.54687228 0.34527213 29.98785339 -0.00111737 -0.00494646 0.00385885
C 3.22821521 5.98796079 21.11555483 -0.00542951 -0.00138530 -0.00023024
C 6.89687086 0.54964662 22.66958348 0.00273512 0.00558681 -0.00461308
C 1.78419842 4.90492719 30.43244869 -0.00687642 0.00515462 0.00416559
C 2.92517522 11.42400984 18.53044220 -0.00027433 -0.00520403 0.00707845
C 5.75357553 7.38608264 26.74150879 0.00826884 0.00021051 0.00059858
C 1.52901477 11.92685838 27.17466590 0.00043030 -0.00078656 0.00472695
C 7.19365907 7.29152339 18.62554938 -0.00296600 0.00076010 -0.00539268
C 5.83100209 1.11885085 31.06921873 -0.00730451 -0.00824260 0.00524933
C 2.79497158 5.31808274 22.23956476 -0.00162495 -0.00595717 0.00543553
C 6.31333329 1.87476683 22.69267839 -0.00714545 -0.00319621 -0.00252449
C 2.53393943 3.76709897 30.16701457 -0.00090059 0.00737658 -0.00230146
C 1.99192774 10.35357185 18.74569190 0.00239579 0.00247856 0.00166295
C 6.60681065 8.51465513 26.77008741 0.00422231 0.00390503 0.00266424
C 2.41041839 10.79090431 27.14167035 -0.00414081 -0.00628632 0.00260517
C 6.45219326 8.49929813 18.55769745 -0.00747948 -0.00061529 0.00623281
C 6.67015037 2.20754575 30.96294985 0.00320922 -0.00516175 0.00433329
C 2.07700461 4.15926499 22.15253222 -0.00400105 0.00640786 -0.00015366
C 6.04673581 2.40179944 21.47368911 0.00613433 -0.00529709 -0.00541407
C 2.81142652 3.41486370 28.82933857 0.00494906 0.00477343 0.00250477
C 1.88942640 9.91554063 20.05983931 0.00164634 0.00052982 -0.00254401
C 6.82223886 9.10359496 28.01098045 -0.00080072 0.00004204 0.00320669
C 2.55876173 10.08449010 28.35011550 0.00453159 -0.00238913 -0.00348318
C 6.22002803 9.11323472 19.86616323 0.00144598 0.00188108 0.00105458
C 6.94025844 2.70393127 29.66226607 -0.00278036 0.00542549 0.00172397
C 1.75264580 3.63629871 20.89123806 0.00193900 0.00442179 0.00021848
C 6.20282184 1.68226122 20.27165366 0.00630065 -0.00365717 0.00143102
C 2.20043246 4.15786111 27.80029781 -0.00181963 0.00193390 0.00151557
C 2.58913795 10.46834764 21.08548532 0.00513832 0.00205865 0.00289251
C 6.39164536 8.43229754 29.14382356 0.00507708 0.00170420 0.00149375
C 2.08430115 10.55610798 29.52739471 0.00813404 0.00326625 -0.00143702
C 6.59499473 8.54704277 21.11565193 0.00265152 0.00547560 -0.00462246
C 6.56537965 1.95419213 28.50754051 0.00092133 0.00250809 -0.00151433
C 2.32891680 4.22399698 19.76786695 0.00026154 -0.00232100 0.00026244
C 6.81096331 0.41214910 20.27998430 0.00380632 0.00091490 0.00388873
C 1.53250809 5.36838515 28.01170409 0.00615433 -0.00326422 0.00165263
C 3.27402158 11.69543217 20.89668081 -0.00454279 0.00297313 -0.00437912
C 5.67679965 7.18936996 29.09739592 0.00603259 -0.00237492 0.01274279
C 1.23796794 11.78518255 29.55679656 0.00382255 0.00625500 0.00152829
C 7.20577558 7.32282453 21.04107269 -0.00840444 0.00687204 -0.00229083
C 5.84533217 0.74858033 28.65064744 0.00136372 -0.00150232 -0.00659358
C 2.94552152 5.49985569 19.85267470 -0.00193145 0.00711059 0.00616402
C 6.83811254 0.03732058 17.93318468 -0.00122752 0.00680979 0.00612946
C 1.66476517 6.24513165 25.84145255 -0.00257233 0.00190561 -0.00383909
C 3.16885685 12.40644022 23.13786457 -0.00142419 0.00442088 -0.01135674
C 5.82306324 6.67148584 31.47858303 -0.00811467 0.00704965 0.00342445
C 1.49472001 12.29043224 31.85424187 0.00358988 -0.00472957 -0.00595945
C 6.86102886 6.58045728 23.36312244 -0.00190776 0.00956337 -0.00264153
C 5.70544807 0.07309880 26.28570291 0.00228928 -0.00270883 -0.00477456
C 2.74565360 6.23991902 17.43653333 -0.00749013 0.00009500 -0.00465576
C 6.73272585 11.55815534 0.24056754 0.00030490 0.00149645 -0.00263293
C 2.00301494 7.56400493 25.17322491 -0.00132344 -0.00531368 0.00260926
C 2.60093629 0.69970001 25.19540616 -0.00178017 -0.00161176 0.00874204
C 5.65786455 5.36658491 15.85760861 -0.00096928 -0.00167377 -0.00131382
C 1.12725448 1.31404845 16.65785035 -0.00349144 -0.00040501 -0.00359137
C 6.95127465 5.35692817 24.14316663 -0.00123090 0.00322081 -0.00567500
C 6.08071407 11.86031570 24.77399536 0.00563838 -0.00265929 0.00407404
C 2.86635637 7.12179896 32.84177537 -0.00287523 0.00524090 0.00187948