1920
Time=13000.00000000 pbc="T T T" Lattice="25.68801113 0.00000000 0.00000000 0.00000000 25.59721535 0.00000000 0.00000000 0.00000000 32.80952917" energy=-12251.97804785 virial="-69.33158655 25.41409090 -2.95200861 25.41409090 -50.23775916 -21.82530892 -2.95200861 -21.82530892 -72.07963395" stress="-0.00103300 0.00118362 -0.00015434 0.00118362 -0.00017610 -0.00103909 -0.00015434 -0.00103909 -0.00119414" Properties=species:S:1:pos:R:3:vel:R:3
O 5.79599579 2.74542942 6.80241514 0.00180228 0.00354441 0.00529145
O 2.52868116 3.35853624 15.47280746 -0.00151831 -0.00600685 0.00513762
O 1.31560555 10.36493673 1.35624968 -0.00528937 -0.00153204 0.00259488
O 6.95379535 9.03886312 9.37846369 0.00078583 -0.00181476 -0.00529365
O 2.51586438 10.34986325 9.09625371 -0.00519397 0.00196068 -0.00005548
O 6.06940147 9.46657723 1.27916083 -0.00020768 0.00019961 0.00084607
O 6.56612764 2.79577093 14.86462830 -0.00379331 0.00317776 0.00682199
O 1.84236306 3.85717889 7.29740190 0.00036052 0.00233086 -0.00084141
O 6.56429520 1.29192256 16.94227339 0.00771465 0.00642095 -0.00188630
O 2.22761596 5.12443879 9.47815847 0.00065221 -0.00085534 0.00099234
O 2.59745465 12.26568575 7.42326377 -0.00356848 0.00296767 -0.00174413
O 5.66639977 8.17033552 31.67659571 -0.00747792 -0.00809627 -0.00337721
O 1.89773636 11.45818628 31.89722019 -0.00415005 0.00625417 0.00129958
O 6.38680871 7.55215104 7.33244001 -0.00286919 -0.00229453 0.00802940
O 6.21184146 1.10971814 8.76634205 -0.00170824 0.00445251 0.00594603
O 2.57212664 5.12007206 17.27576723 0.00093059 0.00067658 -0.00157940
O 6.13375401 2.57106053 23.13547066 -0.00419714 0.00464808 -0.00065430
O 2.32722561 3.53462287 32.11264071 -0.00106596 -0.00245126 -0.00287208
O 1.54883574 10.03788223 17.53459031 0.00067917 0.00594783 -0.00106322
O 7.09142094 9.25177781 25.48195011 0.00519981 -0.00258888 -0.00022818
O 2.92911013 9.83727605 25.78907387 0.00143919 0.00457266 -0.00205973
O 6.09642326 9.27902912 17.59426372 -0.00409015 -0.00278341 -0.00255900
O 6.82951736 2.87845614 31.24477382 0.00478545 0.00262307 -0.00626785
O 1.41945365 3.61729487 23.32402984 -0.00098776 0.00121218 -0.00280678
O 6.22544247 1.43225636 0.64749182 0.00126879 0.00181860 0.00076567
O 1.75474575 4.85542340 25.67549389 0.00416076 0.00125033 0.00296909
O 2.33835703 11.48572123 23.82761321 0.00186998 -0.00191633 -0.00171192
O 6.27806823 7.57165769 15.50357454 -0.00130036 -0.00223656 0.00117010
O 2.08075334 11.42315155 15.48232369 0.00063304 0.00028445 0.00264680
O 6.38202276 7.54545200 23.71507694 0.00001278 -0.00172291 0.00245569
O 6.56343918 0.97323374 25.15516546 0.00164365 -0.00356961 -0.00188102
O 1.60662355 5.11480912 1.31397485 0.00409121 -0.00324001 -0.00512523
O 6.18623802 16.03000203 6.84291230 -0.00067620 -0.00517360 -0.00988557
O 2.61761221 15.88527528 14.93651496 0.00416013 -0.00266702 -0.00052615
O 1.59849237 22.67888224 1.33213502 -0.00272316 0.00180817 0.00524056
O 7.04377717 22.17710786 9.70290147 -0.00676667 -0.00058316 -0.00381856
O 2.87024504 23.20875208 9.36325103 0.00253126 -0.00711368 0.00113908
O 5.75825339 22.14101426 1.49491646 -0.00504968 0.00308277 -0.00193742
O 6.92868484 15.70498639 14.91120723 -0.00519524 -0.00256859 0.00130118
O 1.40333359 16.81861775 6.98587160 -0.00369648 0.00367696 -0.00201810
O 6.94278325 14.03153171 16.86725834 -0.00008145 0.00093661 0.00019755
O 1.62614661 18.23892302 9.06964706 0.00279233 -0.00228493 0.00395836
O 1.98703742 24.80275883 7.42798295 0.00888578 0.00367334 -0.00076839
O 6.29186174 20.40144640 32.38071982 0.00116528 -0.00270908 -0.00127743
O 1.77622898 24.23881624 32.13806429 -0.00058114 0.00148450 -0.00617720
O 6.82044582 20.63949671 7.74001284 0.00101591 -0.00353081 -0.00361991
O 6.72372319 13.96817117 8.77771424 0.00409685 0.00297169 -0.00476006
O 2.00450220 17.74588212 17.47765369 -0.00060416 0.00256698 -0.00266878
O 6.65918344 15.56003663 23.12386703 0.00306343 -0.01152702 -0.00508169
O 2.57557269 16.54421508 31.99088636 0.00806061 -0.00213467 0.00048499
O 1.79817076 22.89135219 17.97326477 0.00366652 0.00282617 -0.00150740
O 6.80736082 21.97728633 26.25789663 0.00206894 0.00063712 0.00033857
O 2.77721647 22.81974029 26.04839008 -0.00608861 -0.00221833 0.00283640
O 5.90316258 22.09185059 17.84927286 -0.00094196 0.00659777 0.00085323
O 6.90234944 14.88062605 31.59395996 -0.00313091 0.00409602 0.00056854
O 1.52148314 16.59484851 23.78910205 0.00022003 0.00323850 0.00350807
O 5.99384551 13.83336827 0.86944756 0.00166615 -0.00276618 0.00036725
O 2.29841907 17.95508770 25.93448462 0.00379663 0.00153413 -0.00178830
O 2.55181421 24.41667237 24.01630584 -0.00304342 -0.00741404 -0.00500744
O 5.91512281 20.55913709 15.76637606 0.00068037 -0.00601822 -0.00402454
O 1.94714797 23.91917333 15.58299032 0.00401063 0.00357733 0.00364577
O 6.47655309 20.48227313 24.09784182 -0.00056246 -0.00386261 0.00025494
O 6.43367032 14.18210370 25.33680675 0.00615717 0.00321478 0.00241441
O 1.85102629 18.07359537 1.09326897 -0.00373777 0.00247854 0.00607231
O 14.08973077 2.75534636 6.91860165 0.00057403 -0.00767053 0.00407960
O 11.24060689 3.46850375 14.34457408 -0.00248736 -0.01091702 -0.00347826
O 10.40034633 10.20656673 1.13061499 0.00053340 -0.00497685 -0.00609380
O 15.53337782 9.46698807 9.37562655 -0.00739249 -0.00066682 0.00204534
O 11.79741769 10.22805265 9.68117461 -0.00119938 0.00106511 -0.00140352
O 14.12691394 9.25520994 1.42370080 -0.00246124 -0.00345733 -0.00032529
O 16.07945261 2.36334142 15.04587267 0.00091857 0.00658241 -0.00047329
O 10.12344117 3.61616032 6.52503955 0.00219718 0.00266217 0.00368265
O 15.26351564 1.08587831 17.38336504 0.00077241 0.00784585 -0.00385163
O 10.45986716 5.46764199 8.28337511 0.00201360 0.00423598 0.00245633
O 11.17379062 11.35617890 7.43282206 0.00591923 -0.00308510 0.00636182
O 14.89345211 7.70918082 32.17696853 0.00229379 -0.00161919 -0.00252364
O 10.85033158 11.50455108 31.73970942 -0.00383976 -0.00064047 0.00123983
O 15.22488955 7.77220772 7.48380139 -0.00430883 -0.00007079 0.00425645
O 14.90625435 0.98168344 9.04381776 0.00036015 -0.00604567 0.00446059
O 11.03886547 4.69541752 16.76525209 0.00183137 -0.00042141 -0.00271131
O 14.28165230 2.51012868 23.41251430 0.00176280 0.00534432 -0.00417536
O 11.29625169 4.10654675 31.45975497 0.00182635 0.00070719 0.00092357
O 10.09237526 9.58020750 17.47879256 -0.00058810 -0.00210310 0.00214689
O 15.32184874 9.27506729 25.62899429 -0.00673583 -0.00195885 0.00154651
O 11.53132430 10.65885193 25.32950478 0.00033262 -0.00046696 -0.00688579
O 14.22929951 8.96580371 17.52881722 0.00139590 -0.00334523 0.00512793
O 15.21726956 2.70875123 31.55779547 -0.00262853 -0.00712607 0.00040030
O 9.97726702 3.76252765 22.98002662 0.00311895 0.00258040 -0.00519545
O 15.06328463 1.20069099 0.91858803 -0.00325580 -0.00166780 0.00051312
O 10.65986801 5.07388294 25.10346307 0.00493292 0.00233131 0.00220365
O 10.29538674 11.82846087 23.20001278 -0.00951481 -0.00107461 -0.00099911
O 14.61362187 7.68823115 15.37603625 0.00496729 0.00331898 0.00318815
O 10.40895143 11.56152235 15.57814615 -0.00655085 0.00401395 -0.00153002
O 14.91031932 7.44512198 23.71644851 0.00243259 0.00224004 -0.00182581
O 14.96652495 1.21950517 25.37171328 0.00132955 -0.00354397 0.00354355
O 10.47702653 5.72809648 0.50905315 -0.00723741 -0.00693355 -0.00256122
O 14.68393426 15.91764662 6.86276339 -0.00401091 0.00333624 0.00244017
O 11.33288406 16.52420939 15.69781915 -0.00741528 -0.00175339 -0.00032774
O 10.50173443 22.98214194 1.15234054 -0.00032062 -0.00260694 -0.00284369
O 15.20595583 22.13508814 9.56932530 0.00072001 0.00633597 -0.00099160
O 11.09242947 22.81164534 9.44849887 0.00189543 0.00231044 0.00340255
O 14.77101111 21.66573959 1.03848438 -0.00416492 -0.00844705 0.00488541
O 15.41338907 15.29357451 15.31640483 0.00507639 0.00932718 0.00165660
O 10.46285075 16.53897401 7.11087548 0.00783969 0.00026703 -0.00261608
O 14.98277350 13.83891414 17.29517976 -0.00282612 0.00031804 -0.01145214
O 10.71535284 17.91671620 9.29639830 0.00075276 -0.00492540 0.00751544
O 11.05097692 24.30729911 7.35898427 0.01039920 -0.00300723 -0.00118968
O 15.16091455 20.35570070 31.63667379 -0.00017868 -0.00550638 0.00126018
O 10.85395854 24.83692138 32.11949474 0.00823189 -0.00394733 -0.00104031
O 15.35812417 20.90110187 7.37572422 0.00190693 0.00185105 0.00449909
O 14.69639914 14.36032511 8.90439510 0.00361410 -0.00264628 0.00235613
O 10.60581065 18.42581663 17.47300970 0.00013886 -0.00466766 0.00564982
O 14.30365365 15.63318120 23.14599487 -0.00354848 -0.00112909 -0.00255534
O 11.51265675 16.31616728 31.62768434 0.00272414 -0.00135557 -0.00426813
O 10.32961363 23.36458909 17.30948377 -0.00174081 0.00568023 0.00249915
O 15.86626236 22.10626219 25.57808360 -0.00562568 0.00167891 0.00428820
O 11.42842506 22.69339582 25.99360894 0.00000890 0.00340857 0.00153305
O 14.34767103 22.13152158 17.60437738 0.00303586 -0.00119353 -0.00896910
O 15.10702968 15.16453038 31.57098193 0.00546394 -0.00157946 -0.00073047
O 10.18240958 16.65226868 23.51133958 -0.00152155 0.00030652 0.00247396
O 14.94663866 13.81779839 0.84239521 0.00107712 0.00189751 0.00692408
O 10.63444931 18.12739918 25.50746450 -0.00115574 -0.00234992 0.00382110
O 11.16823326 23.89779136 23.69084684 0.00051934 -0.00340998 -0.00141817
O 15.45950181 20.15118073 15.68157646 0.00261470 -0.00251981 -0.00002687
O 11.21994177 24.88806533 15.53915968 0.00170817 -0.00427003 -0.00367137
O 15.16455915 20.45363976 23.74381622 -0.00407917 0.01043816 -0.00159220
O 14.96941317 14.31261664 25.24667718 -0.00497129 0.00453949 -0.00154425
O 10.49015254 17.85484621 0.82600434 -0.00869244 -0.00530284 -0.00163641
O 22.83250464 3.02391881 7.06350289 -0.00500086 0.00053346 -0.00106709
O 19.95792679 3.55387424 15.35607163 -0.00051125 0.00258390 -0.00075082
O 18.79766858 10.29919333 1.13661663 -0.00149767 0.00112733 -0.00106247
O 23.67850662 9.55192206 9.70447129 0.00669545 -0.00491609 -0.00865505
O 19.46363577 10.11353362 9.41257212 -0.00509683 -0.00418781 0.00136108
O 23.52945657 9.25641574 1.61111804 0.00384484 -0.00952696 0.00247142
O 24.28506648 2.48001681 15.30460081 0.00026889 -0.00169919 0.00437523
O 18.35022103 3.72221502 6.70086109 0.00060090 0.00617519 0.00360038
O 23.58985746 0.71331694 17.17778272 -0.00038578 0.00792221 -0.00157396
O 18.61687331 5.15246530 9.11925233 -0.00070706 -0.00229406 0.00104546
O 18.94428202 11.52553726 7.33756711 0.00058372 -0.00112711 -0.00345447
O 23.32126099 7.51993166 32.43822445 -0.00093857 0.00079479 -0.00370955
O 19.49782781 11.77017958 31.99607319 0.00170633 -0.00256970 -0.00683487
O 23.57169057 7.76648714 7.81609940 -0.00450061 -0.00364325 0.00218744
O 23.55230510 1.35240737 9.19257926 0.00427418 0.00239052 -0.00329860
O 19.26138999 5.29469429 17.35612235 0.00838919 0.00145405 -0.00398675
O 23.25825777 2.66492025 23.47240375 0.00443759 -0.00136275 0.00442671
O 19.71421489 3.65010409 32.09032823 -0.00526488 -0.00139645 -0.00532829
O 18.92866007 9.98902951 17.57378664 -0.01255456 0.00131881 0.00081396
O 23.62498778 9.18624072 26.18531185 -0.00187833 -0.00413648 -0.00947019
O 19.52270480 9.86024849 25.86580126 -0.00062440 0.00028946 -0.00225793
O 22.99259909 9.17502892 17.95750498 -0.00205520 -0.00144587 0.00168143
O 23.84761346 2.56233271 31.77580179 0.00105850 0.00115770 0.00005930
O 18.69760083 3.95046716 23.50870912 -0.00197753 -0.00812074 -0.00302070
O 23.13498843 1.05151877 0.96640528 -0.00255238 -0.00004834 -0.00248229
O 19.60607171 4.91361475 25.68652422 -0.00208228 -0.00068721 -0.00243739
O 19.56765165 11.71957540 23.80415287 -0.00475863 -0.00188416 0.00888309
O 23.20555302 7.70000685 15.68526073 0.00089496 -0.00064325 0.00156273
O 19.39531407 11.57456159 15.68710725 -0.00422013 -0.00246361 -0.00116751
O 24.41325060 7.56376397 24.28501216 -0.00208941 0.00109048 -0.00178037
O 23.87386979 1.24172988 25.57245952 -0.00227356 -0.00563672 0.00381526
O 18.86556967 5.57503261 1.03632321 0.00286238 0.00046497 -0.00207710
O 22.61142612 15.66084169 6.54496780 0.00741232 -0.00157870 0.00108456
O 19.73966438 16.42859543 15.00702622 -0.00361752 0.00017170 -0.00529736
O 18.76331714 22.68478152 1.49929788 -0.00009262 -0.00251623 -0.00802682
O 23.26484823 22.13790954 9.73377902 -0.00117215 -0.00139804 -0.00170153
O 19.94955847 23.05683523 9.47264856 0.00424004 -0.00087052 -0.00258476
O 22.91098425 21.57534315 1.35672688 0.00150694 0.00793618 -0.00037918
O 24.07127282 15.27264855 14.84936531 -0.00028803 -0.00471035 0.00229666
O 18.84176529 16.76634226 6.97019132 -0.00401528 0.00214776 -0.00241764
O 23.69333567 13.90204144 17.12107066 0.00030128 0.00370111 -0.00293763
O 19.40236966 18.32899577 8.87059078 -0.00047507 0.00285171 -0.00380006
O 19.04341128 24.62715635 7.52472054 -0.00687256 -0.00178094 -0.00337551
O 23.33663830 20.30820298 31.94042716 0.00461262 -0.00240535 -0.00116320
O 19.12524106 24.38247958 32.37679894 -0.00396629 0.00094940 -0.00738515
O 23.39467898 20.31912927 7.71172441 -0.00514422 0.00083396 -0.00409953
O 23.23704296 14.33162980 8.67560991 0.00407128 -0.00314727 0.00230250
O 19.44916901 17.73515189 17.16106143 -0.00709207 -0.00007158 -0.00161644
O 22.76841215 15.26551212 23.10292723 -0.00470178 -0.00586448 0.00282131
O 19.55810185 16.63874140 31.32502786 -0.00228395 -0.00450646 0.00074906
O 18.79484088 22.63852063 17.84286176 -0.00481140 0.00305883 0.00522551
O 24.27796994 21.75725075 25.97037898 -0.00154131 -0.00392294 -0.00051479
O 19.54351879 22.66531654 26.19008250 -0.00005486 0.00797024 0.00070101
O 23.18096503 21.72570434 17.90227009 -0.00082350 0.00010736 0.00350598
O 24.16419226 15.31712725 31.27603696 -0.00472257 0.00589702 -0.00043373
O 18.53360150 16.65367201 23.37297447 0.00151309 0.00194410 -0.00310377
O 23.39495076 13.66731473 0.59096965 0.00377599 -0.00283383 -0.00779335
O 19.42446042 18.10758298 25.17675305 -0.00334458 -0.00262016 -0.00337424
O 19.42784394 24.11449378 24.07824134 -0.01002768 -0.00213573 -0.00909705
O 23.31219855 20.26547739 15.83578567 0.00014906 -0.00196864 0.00750465
O 19.17952445 24.13888025 15.66763426 -0.00036773 -0.00064379 0.00461271
O 24.08053751 20.19986618 24.01466503 0.00788852 -0.00178833 0.00559087
O 23.70872525 13.66602547 25.12044868 0.00791651 0.00255270 0.00491722
O 18.80907289 18.02823261 0.78023052 -0.00307173 0.00252077 -0.00468065
N 7.51228117 12.96058995 2.36894934 0.00291024 0.00014059 -0.00095626
N 1.22871893 6.53486052 11.17522921 0.00160047 0.00193753 0.00733295
N 3.38436527 0.04536754 5.69447303 0.00288282 -0.00298828 -0.00064984
N 5.47651686 6.22008493 13.87694836 0.00053486 0.00293715 -0.00125853
N 1.16628746 25.43289876 14.04195636 -0.00725054 0.00394452 0.00328637
N 7.35359352 6.41217082 5.60126541 -0.00029949 -0.00499488 0.00403082
N 5.51043756 12.90648732 10.42511213 -0.01131690 -0.00376223 -0.00487634
N 2.93812735 6.49905056 2.59160814 -0.00265590 0.00554450 -0.00956049
N 7.61550877 12.46499594 18.46707023 0.00357886 -0.00806161 0.00286407
N 1.15794476 6.19454804 27.49874558 -0.00491143 -0.00481395 -0.00417992
N 3.32197620 0.29448179 22.38482449 -0.00298124 -0.00343531 0.00259330
N 5.14024453 6.76193190 30.03737082 0.00456578 -0.00122085 -0.01107979
N 0.92819373 0.04536531 30.59025716 0.00192775 -0.00181638 0.00141307
N 7.67806454 6.42848349 22.11677359 -0.00011500 -0.00406734 -0.00307417
N 5.20634049 12.87750383 26.77375844 -0.00617968 0.00393513 0.00052228
N 3.73264562 6.25635558 18.91376411 -0.00320964 0.00036886 -0.00448914
N 7.40335121 0.22217390 2.16244314 0.00852130 -0.00157292 -0.00299480
N 0.90596960 19.33890781 10.94128640 -0.00183031 0.00187748 -0.00465581
N 3.57500701 13.24305487 5.57813474 -0.00502495 0.00128272 -0.00437817
N 5.41629347 19.14955494 14.00129077 0.00453586 0.00369589 -0.00601671
N 1.02598948 12.68473359 13.85235510 0.00056956 -0.00075891 -0.00475389
N 7.61455735 19.33824786 5.93859992 -0.00408098 -0.00215310 -0.00293229
N 5.27023225 25.46112864 10.37472307 0.00262055 0.00393400 -0.00092225
N 3.35393836 19.12252820 2.46159149 -0.00850811 -0.00018768 -0.00162378
N 7.62098163 25.54842667 18.51157174 -0.00038026 -0.00162731 0.00684472
N 0.90489066 19.13048953 27.36265436 -0.00057084 0.00528824 0.00442731
N 3.45021315 12.61476253 22.11369049 0.00544885 -0.00221310 0.00565857
N 5.35648865 19.14322268 30.67090602 -0.00467982 0.00012048 -0.00261723
N 0.99120432 12.64069415 30.13640023 -0.00121988 0.00423777 -0.00463988
N 7.68450862 19.44030343 22.41121498 0.00246093 -0.00106175 0.00141469
N 5.47496954 25.45321135 26.79229331 -0.00487080 0.00057708 0.00150646
N 3.07910099 18.88438075 19.07668581 0.00762525 -0.00431386 0.00177227
N 16.51495933 13.22886962 2.46336745 0.00053074 0.00208139 0.00076828
N 9.88502588 6.71606253 10.16033784 -0.00505481 -0.00702026 0.00215675
N 11.57975834 0.23683843 5.74111977 -0.00143298 0.00208608 0.00139410
N 13.64861190 6.58067136 13.66291720 0.00062743 -0.00958612 0.00056522
N 9.98896295 0.28456371 13.91820295 -0.00729841 -0.00544131 0.00817956
N 15.90937667 6.41072230 5.79967979 0.00294652 0.00276125 0.00095445
N 14.09515818 12.93228406 10.56890454 0.00893011 -0.00505717 0.00318782
N 11.72245190 6.67961705 2.20370214 0.00027943 0.00465184 0.00167945
N 16.38255705 12.89431850 18.81096366 -0.00371172 -0.00098850 0.00348099
N 9.83515262 6.48528457 26.66615115 0.00280741 -0.00506482 -0.00195775
N 12.21419136 25.21206952 22.12256732 -0.00014534 -0.00075659 -0.00287181
N 14.01779697 6.65458300 30.40414974 0.00488053 0.00463988 -0.00116984
N 9.49278876 25.54388718 30.30071623 -0.00240339 -0.00339185 0.00179986
N 16.31370258 6.69209472 22.09846420 0.00214552 0.00368355 0.00731111
N 14.06877572 12.72613216 26.75532252 0.00544712 0.00221550 -0.00392320
N 11.89696743 6.04227335 18.37206259 0.00256963 -0.00205446 0.00005090
N 16.12428010 0.04638912 2.56434891 0.00786043 0.00385615 -0.00216088
N 9.60676832 19.01769744 10.98633072 -0.00051452 0.00231505 0.00389603
N 11.93257746 12.70677635 5.77474565 0.00480586 0.00248012 0.00239004
N 13.81378524 19.47662235 14.21904487 -0.00121512 0.00198591 0.00416591
N 9.58705479 12.90495440 13.92444843 -0.00123987 0.00486365 0.00195183
N 15.96117086 19.28258499 5.85329814 -0.00583463 0.00023665 -0.00066262
N 13.52611516 0.15804014 10.67389191 0.00449824 -0.00513224 -0.00395079
N 11.61099311 19.15136509 2.43112302 0.00159259 -0.00177370 -0.00520255
N 16.54321087 0.07687814 18.93906535 -0.00390773 0.00626876 -0.00357915
N 9.42249137 19.02612259 27.18312095 0.00024842 0.00043658 -0.01135966
N 11.82037055 12.64392575 21.79294062 -0.00123735 0.00848929 0.00020042
N 13.78687051 19.47206612 29.90858721 -0.00153314 0.00221496 -0.00793806
N 9.70946923 12.67877525 30.11793693 -0.00289043 -0.00527331 -0.00491301
N 16.22164502 19.28957746 22.10398308 -0.00373899 0.00393620 0.00280329
N 14.05174549 25.47430268 26.94049158 -0.00494325 0.00286403 0.00288816
N 12.00802603 19.23210859 19.01508558 -0.00001198 0.00495650 -0.00461070
N 24.59537669 12.65801694 2.20731180 -0.00380278 -0.00050827 0.00477024
N 17.79059582 6.30694084 10.84094766 -0.00423357 -0.00697506 -0.00394018
N 20.31336624 0.09415591 6.00535184 -0.00184395 -0.00179899 0.00393800
N 22.35742884 6.33714816 14.02484160 -0.00648779 0.00054961 0.00140899
N 18.02030595 25.44054631 14.11808144 -0.00448781 -0.00082963 -0.00036747
N 24.57233809 6.40638846 6.26523160 0.00085849 0.00597884 0.00238388
N 22.66640739 12.77413257 10.26349680 -0.00025258 -0.00771396 0.00381180
N 20.37936862 6.48904077 2.39231791 0.00317624 -0.00093604 -0.00124668
N 24.93208952 12.74689969 18.70480919 -0.00138520 0.00089770 0.00117099
N 18.07835563 5.82516661 27.21455358 0.00155771 0.00057553 -0.00351782
N 20.41271908 25.31243281 22.39105716 -0.00434698 0.00142956 -0.00695272
N 22.28456566 6.34656883 30.72324367 0.00097755 -0.00216559 -0.00467639
N 18.17921017 25.55951874 30.72441866 -0.00860596 -0.00372735 0.00269671
N 24.64381948 6.31547672 22.38039143 -0.00005920 0.00201521 0.00174233
N 22.20927938 12.78204675 26.73832347 -0.00095353 0.00267033 -0.00826460
N 20.61585956 6.23985155 18.90055751 0.00828928 0.00117170 0.00122110
N 24.46498291 0.12792511 2.59970591 0.00213286 0.00016538 -0.00057081
N 18.08684461 19.29002062 10.59638733 0.00082611 0.00120894 -0.00089921
N 19.97101918 12.82286809 5.78078643 -0.00079964 -0.00362845 0.00080165
N 22.30660905 19.07065597 14.18506185 -0.00029905 -0.00120914 0.00004624
N 18.28748860 12.78962141 14.07343064 -0.00254696 0.00553124 0.00015537
N 24.73338628 19.38655161 6.01207701 -0.00212320 0.00194726 -0.00650213
N 22.02353347 0.47569972 10.58857627 -0.00072356 0.00240222 -0.00103380
N 20.14822857 19.18349839 2.25926267 0.00291665 -0.00136474 -0.00224240
N 24.49412168 25.25246086 19.06217446 -0.00138731 0.00115735 -0.00116289
N 18.09767797 19.20623007 26.65711626 -0.00041924 0.00600151 -0.00352414
N 20.39948401 12.96843643 22.08454550 0.00495706 -0.00905898 0.00336843
N 22.15542490 19.20957225 30.26210492 0.00050278 0.00605120 -0.00373025
N 17.91182715 12.59910050 30.49778089 0.00753761 0.00269829 -0.00058687
N 24.62822754 18.70807466 22.41798016 0.00136994 -0.00058689 -0.00396241
N 22.82117538 25.45928621 27.04141332 0.01060042 -0.00014150 0.00154988
N 20.46405956 19.00348907 18.71156110 -0.00798412 0.00047699 0.00173840
C 7.53085463 0.48456657 4.52583895 -0.00327957 0.00390149 0.00377970
C 1.08009891 6.02497513 13.51283467 -0.00005515 -0.00606869 -0.00013864
C 3.38737372 12.67992534 3.24217032 -0.00083737 0.00268149 -0.00073696
C 5.39285261 6.57751718 11.42623277 0.00472229 0.00103878 -0.00975563
C 0.84054882 12.45622099 11.52236910 0.00415657 -0.00329834 -0.00456517
C 7.58442401 6.92012319 3.29093576 0.00387533 0.00509676 0.00395230
C 5.23970578 0.27967520 12.69409744 -0.00311822 -0.00033729 0.01109578
C 3.24753613 6.26385311 4.95077216 0.00331130 -0.00269200 0.01026475
C 7.38311401 1.17447973 5.65827987 -0.00341088 -0.00471437 -0.00191116
C 1.39515099 5.29057296 14.58928231 0.00380153 0.00170189 0.00166365
C 2.89004473 11.97123495 2.15769116 0.00030742 -0.00114289 -0.00102233
C 5.58207762 7.38393110 10.36670999 0.00322759 0.00234066 -0.00601121
C 1.08398734 11.81148593 10.31582452 -0.00559737 0.00426281 0.00771570
C 7.24572887 7.61710256 2.16955397 -0.00703790 -0.00235193 0.00898773
C 5.59550205 0.93820118 13.80188345 -0.00471899 -0.00258836 -0.00035895
C 3.14010819 5.49122507 6.07054377 0.00761115 0.01105428 -0.00479202
C 6.31030542 2.19009293 5.62837934 0.00202062 -0.00312341 0.00099004
C 2.07613051 4.04030046 14.42840277 -0.00222261 -0.00178039 0.00116047
C 1.96314765 10.96766400 2.36707924 0.00311064 -0.00125089 0.00352440
C 6.44658529 8.47550034 10.50715263 0.00396811 -0.00382672 -0.00531501
C 2.06121057 10.81347930 10.23681207 0.00250514 0.00072299 -0.00974862
C 6.40584400 8.71492430 2.29619475 0.00373612 0.00369219 0.00149375
C 6.39271624 2.11720558 13.76469427 -0.00249603 -0.00514651 0.00957919
C 2.27764345 4.34722005 6.11965032 0.00030788 -0.00673376 0.00428618
C 5.87173058 2.69662689 4.42284770 0.00468582 -0.00123313 -0.00160340
C 2.36894796 3.57820326 13.08897857 0.00163119 0.00121441 -0.00456193
C 1.72486466 10.58860409 3.72778352 -0.00001060 0.00281026 -0.00027867
C 6.71553844 8.93765683 11.82320578 0.00639829 0.00555557 0.01089001
C 2.60416927 10.31943180 11.48361888 0.00036184 0.00151086 -0.00075130
C 6.08446396 9.18036370 3.55857087 0.00705717 0.00857291 -0.00020533
C 6.75418096 2.53784280 12.44477797 0.00030574 -0.00135853 0.00007626
C 2.02467453 3.74753059 4.90239964 -0.00448203 0.00570471 -0.00083878
C 6.29517937 2.11373739 3.25724485 -0.00318365 -0.00375467 -0.00221473
C 2.05906603 4.33232265 12.00284237 0.00041123 -0.00844918 0.00248792
C 2.42511983 11.10504591 4.76580232 -0.00244685 0.00410920 0.00082684
C 6.26753943 8.25867472 12.91692082 -0.00197943 0.00137561 -0.00720504
C 2.24121786 10.82829157 12.70998592 0.00861102 0.00032500 0.00469680
C 6.40814882 8.44648155 4.67055640 -0.00078664 -0.00848545 0.01054846
C 6.35170884 1.87778849 11.32024739 0.00174401 0.01039618 0.00757803
C 2.21936672 4.40174523 3.72911682 0.00283789 -0.00248370 -0.00175911
C 7.04179222 0.91953052 3.28421648 -0.00152874 0.00761881 0.00090468
C 1.41717352 5.59964970 12.16778251 -0.00093379 -0.00220035 -0.00476385
C 3.11365650 12.35462339 4.63240638 -0.00282685 0.00188170 -0.00546413
C 5.68523406 7.00573160 12.71039051 -0.00366740 0.00864767 0.00077225
C 1.37294592 11.94301901 12.67510741 -0.00516449 0.00417124 0.00155215
C 7.09023031 7.26654630 4.58897133 -0.00605230 0.00651747 0.00028635
C 5.55291764 0.73469841 11.44645857 -0.00094259 0.00069385 0.00743569
C 2.74734636 5.71691090 3.70137534 0.00314700 -0.00427797 -0.00428200
C 6.93472752 0.38701565 0.94162995 0.00073576 -0.00229079 -0.00394210
C 1.68845427 6.22901216 9.92830450 0.00176513 0.00530721 -0.01043837
C 3.10683910 13.25083177 6.88456432 -0.00741032 0.00383498 -0.00178668
C 5.85840906 6.46527218 15.14248025 -0.00473380 0.00672025 -0.00275781
C 1.40343363 12.41943534 15.12753943 -0.00233013 -0.01015810 0.00193263
C 6.85909452 6.52665888 6.85454663 0.00180348 -0.00335143 0.00005523
C 5.82518195 0.01329980 9.14539537 0.00578371 0.00167888 0.00460107
C 2.23863552 6.23510629 1.45992744 0.00104989 -0.00985940 -0.00042801
C 7.01033315 11.70935714 16.26682930 0.00679032 0.00487292 -0.00234047
C 1.45949861 7.28102164 8.87837634 -0.00179083 -0.00287687 0.00264565
C 3.20402369 1.15992501 7.79032696 0.00274809 0.00011127 0.00504750
C 5.63766125 5.88553605 32.26798329 0.01064798 -0.00125340 -0.00156605
C 1.14682550 0.88762162 32.77592937 -0.00502648 0.00918673 0.00140085
C 7.00450448 5.27164073 7.70315084 0.00737346 0.00162911 -0.01012258
C 5.84983651 11.85027603 8.37761925 -0.00094414 -0.00217207 -0.00258115
C 3.22054369 7.40994846 16.87080473 -0.00869535 0.00053496 -0.00117920
C 7.91327470 0.22661502 20.93526133 0.00508687 -0.00581502 0.00420377
C 0.76381021 5.72980932 29.74191409 -0.00444952 -0.00192118 -0.00138310
C 3.46605172 12.23042030 19.66257331 -0.01170651 -0.00256244 -0.00531629
C 5.23045047 6.94336477 27.65448571 -0.00505200 0.00430644 0.01054922
C 0.83528598 12.05226952 27.83151270 0.00884170 -0.00166421 0.00513339
C 7.66924246 6.81952828 19.77255334 -0.00302476 -0.00056857 0.00132369
C 5.37244417 0.42849329 29.09460599 0.00517371 -0.00286670 0.00494666
C 3.46781150 5.94414599 21.30424167 0.00334196 -0.00235268 0.00225120
C 7.53114340 0.91314874 22.07260834 -0.00091746 -0.00239501 0.00602495
C 0.91832093 5.01532501 30.88830903 -0.00081485 0.00202006 0.00514959
C 3.03565791 11.55497480 18.54742787 0.00564057 -0.00248331 0.00020247
C 5.73691488 7.48822628 26.51355372 0.00217160 0.00424868 0.00126142
C 1.25195438 11.29484303 26.76062342 0.00269655 -0.01178035 -0.00225892
C 7.29743180 7.44997038 18.59449019 0.00178593 0.00049111 -0.00301065
C 5.68325659 1.11597483 30.22204399 0.00819028 -0.00022226 0.00378867
C 2.75102393 5.35718976 22.34660288 0.00493456 -0.00673503 -0.00472408
C 6.67437606 2.06327146 22.00832166 -0.00080307 -0.00717497 0.00185136
C 1.88392781 4.01338789 30.91633810 -0.00568697 -0.00262334 -0.00606081
C 2.10618116 10.56519878 18.66070276 -0.00235126 0.00933612 -0.00047065
C 6.45995773 8.71123274 26.53990247 0.00295759 0.00410792 -0.00048795
C 2.22311394 10.30165771 26.85222318 0.00423163 0.00252578 0.01178806
C 6.46925464 8.63076280 18.70009151 -0.00498587 -0.00041629 0.00225666
C 6.40361851 2.29127134 30.11721061 0.00333484 -0.00957371 0.00613364
C 2.03182018 4.14691876 22.22796341 -0.00265937 -0.00576154 -0.00910876
C 6.35033898 2.55349970 20.74625376 -0.00468598 -0.00144820 -0.00400297
C 2.36433140 3.50823830 29.71089828 0.00478991 -0.00374129 0.00232557
C 1.82215243 10.07591423 19.95361375 0.00175260 0.00478802 -0.00168967
C 6.62943578 9.32037983 27.80468327 -0.00054896 0.00386183 -0.00686842
C 2.36264459 9.80184534 28.15112641 -0.01181067 0.00152430 0.00344814
C 6.18407633 9.08522386 20.00078083 -0.00154421 -0.00496215 0.00330292
C 6.62734518 2.81018421 28.84035381 -0.00995346 0.00896779 -0.00351431
C 1.81428366 3.66491393 20.94229799 0.00732168 -0.00076101 0.00391152
C 6.81858917 2.02467426 19.59384914 -0.00316441 -0.00071355 0.00400321
C 2.01384766 4.12766938 28.48221332 -0.00607746 -0.00080198 -0.00157358
C 2.23206099 10.75543595 21.11591062 -0.00030208 0.00531927 -0.00061678
C 6.33269654 8.65690592 28.95256555 -0.00094581 0.00371190 0.00249682
C 1.89274505 10.52941400 29.21405867 0.00667211 -0.00020880 -0.00007595
C 6.59832028 8.43810409 21.12591572 0.00087499 -0.00194368 -0.00314115
C 6.37665591 2.09071604 27.64946860 -0.00225296 -0.00458486 0.00322205
C 2.48402086 4.29898823 19.82145463 0.00239861 0.00956879 0.00205579
C 7.48296408 0.73576075 19.65490087 0.00145475 0.00205247 0.00117340
C 1.37193674 5.31131316 28.53317431 0.00370379 0.00399116 -0.00934927
C 3.05967338 11.83479456 21.01997877 0.00629571 0.00513088 0.00821217
C 5.59464686 7.46510535 28.89313122 0.00295104 -0.00037317 -0.00186998
C 1.24201693 11.76740329 29.10163415 0.01259378 -0.00423743 0.00380139
C 7.27419545 7.15581826 21.07656307 0.00293058 0.00370922 -0.00804938
C 5.70453373 0.84411294 27.77556963 -0.00493460 0.00037209 0.00256303
C 3.25920944 5.44878485 19.99506173 -0.00028356 -0.00374411 -0.00056825
C 7.10482321 0.23338691 17.23470172 0.00737565 0.00563177 0.00806193
C 1.47907909 5.95306923 26.14214945 0.00026338 0.00186434 -0.00463200
C 2.89604187 12.49386224 23.33419577 0.00268069 -0.00667640 -0.00695962
C 5.52888572 7.00683355 31.31610685 -0.00416831 0.00279580 0.00271667
C 1.48893013 12.52058505 31.39923966 0.00492118 0.00079743 0.00165732
C 7.12918225 6.62123243 23.43621060 0.00320978 0.00520580 -0.00469435
C 5.92355186 25.57735012 25.49894918 -0.00054576 0.00462861 0.00105125
C 3.16286354 6.12877983 17.69000482 0.00174360 -0.00823770 -0.00167978
C 7.32741456 11.93337100 0.16432768 -0.00149609 -0.01338850 0.00281291
C 1.62420869 7.21852991 25.29484424 0.00099508 0.00013616 0.00292314
C 3.12102501 1.11347651 24.63027069 -0.00742456 0.00340117 -0.00007627
C 5.70857499 5.28763404 16.04246044 -0.00717504 0.00069406 -0.00293213
C 1.80166140 0.69734902 16.24743629 0.00365497 -0.00034705 -0.00247498
C 7.50105148 5.55537928 24.37928404 0.00359458 -0.00435080 0.00315459
C 5.87165523 11.98611385 24.60837293 0.00098548 0.00122212 -0.00693541