1920
Time=77000.00000008 pbc="T T T" Lattice="25.64193643 0.00000000 0.00000000 0.00000000 25.50346871 0.00000000 0.00000000 0.00000000 32.82578111" energy=-12252.37024295 virial="-62.31203591 -34.69059022 9.94280910 -34.69059022 -82.34876848 -12.82424454 9.94280910 -12.82424454 -29.50211930" stress="-0.00067716 -0.00172229 0.00049706 -0.00172229 -0.00170116 -0.00061092 0.00049706 -0.00061092 0.00070965" Properties=species:S:1:pos:R:3:vel:R:3
O 6.23479002 2.68908866 7.31131859 0.00319898 -0.00124890 -0.00335473
O 2.18286289 3.27469208 15.14076380 0.00174281 0.00077583 -0.00910551
O 1.16785466 10.20133752 1.00237912 0.00037262 -0.00190361 0.00747108
O 7.05668151 8.87067452 9.29280241 0.00135795 0.00029147 0.00197623
O 2.59705528 9.86441364 9.30616167 0.00437623 -0.00795701 0.00160224
O 5.70159446 9.10794346 0.94545822 -0.00211200 0.00637700 -0.00042465
O 7.34906582 2.45300497 15.38115585 0.00295541 -0.00218863 -0.00421924
O 1.74124273 3.74360821 6.45286792 0.00078173 0.00086448 -0.00106645
O 6.49108818 1.16085907 17.58069071 -0.00144319 0.00086903 0.00399125
O 1.63027723 4.77716576 8.87486443 -0.00281443 0.00237943 0.00339100
O 2.69760026 11.48590604 7.19515090 -0.00121708 -0.00140787 0.00212123
O 6.52075520 7.69453050 31.84545111 -0.00101834 0.00113943 0.00440549
O 1.74479322 11.80195651 31.74344896 -0.00320935 -0.00304826 0.00158258
O 6.26352564 7.52717571 6.98751629 0.00399240 0.00011825 0.00031808
O 6.75291178 1.04692629 9.22299313 -0.00543562 0.00113611 0.00097396
O 2.40957058 4.84623289 17.17142533 0.00560158 0.00481491 0.00271467
O 5.84976586 2.62092466 23.69167821 -0.00514786 0.00305273 0.00464362
O 2.66728744 3.88762912 31.07211519 -0.00239607 -0.00158845 -0.00151856
O 1.48128262 9.66952976 17.50745377 0.00601222 -0.00250225 -0.00189421
O 7.50249253 9.28482007 25.82952281 -0.00601097 0.00100377 -0.00033902
O 2.73224088 10.20723306 25.65958326 0.00131419 -0.00130163 0.00654549
O 5.50164677 8.97995253 17.44692213 0.00033807 -0.00033293 0.00305907
O 7.02002822 2.77329407 32.02139491 0.00055318 0.00643863 -0.00546392
O 1.47800730 3.91655304 23.39537801 -0.00069733 0.00210230 0.00217441
O 6.41600344 1.10013299 1.08950560 -0.00410298 0.00027450 -0.00015229
O 2.15770852 5.48560667 24.98958749 -0.00663631 -0.00859609 -0.00368346
O 2.50504542 11.60008549 23.47050033 -0.00831938 0.00546889 -0.00029098
O 6.24269691 7.51094576 15.51530071 -0.00028690 -0.00185255 -0.00583123
O 1.82261403 11.49822458 15.51346520 0.00270062 0.00179939 -0.00030644
O 6.45138072 7.74480753 23.66356485 0.00123381 -0.00690143 0.00026036
O 6.45210542 1.36470183 25.78817976 0.00331109 0.00387193 -0.00263351
O 2.06082335 5.39884193 0.51813518 -0.00337632 0.00101308 0.00757104
O 6.23791564 15.88794614 7.06550731 0.00518569 0.00060001 -0.00020830
O 2.62652470 16.65009515 15.12381778 -0.00332736 -0.00204881 -0.00121163
O 1.59796241 22.72325885 1.37853680 0.00597903 -0.00414612 0.00553235
O 7.23918092 21.60522247 9.59431116 -0.00019792 0.00464441 0.00243951
O 2.87964303 22.65664886 9.68105507 -0.00187322 -0.00314443 0.00522227
O 5.92314731 21.82103900 1.31451878 -0.00561761 0.00081716 -0.00367997
O 7.11732051 15.51991489 14.77848343 0.00140875 -0.00357518 0.00084837
O 1.63822150 16.61129497 6.82109601 0.00154164 -0.00243703 0.00328919
O 6.27120878 13.71877620 16.74345687 0.00236956 0.00451437 -0.00300390
O 2.56858561 17.91402701 8.95852906 0.00111533 -0.00410316 0.00159724
O 2.55994302 24.22974058 7.53380758 0.00537805 -0.00344383 -0.00045006
O 6.47782599 20.23513730 31.89006992 -0.00237859 0.00172274 0.00162858
O 2.23904908 24.37092848 31.93724371 0.00519163 -0.00590978 -0.00264035
O 6.27500344 20.44285612 7.51075153 -0.00868547 -0.00094944 -0.00210533
O 6.27800677 13.83910165 8.72574970 0.00199448 -0.00431101 -0.00140647
O 1.76225013 18.07608667 17.17612923 -0.00122916 -0.00444142 -0.00205996
O 5.92634023 15.40142651 22.99595218 0.00649521 -0.00134054 -0.00273296
O 2.76096672 16.58165799 31.28487649 -0.00120589 0.00343096 0.00061096
O 1.63574619 22.74761071 17.86365740 0.00044986 -0.00378369 0.00338756
O 6.90974050 21.85338045 25.76529874 0.00029929 -0.00096443 0.00322281
O 2.40142203 22.56566934 25.89154473 -0.00142179 -0.00148019 -0.00452942
O 6.16176441 21.98075271 17.85961899 0.00282154 0.00056708 -0.00072837
O 6.99957601 15.21410485 31.37131227 0.00094619 -0.00132556 0.00183839
O 0.92407703 16.65566682 23.30128257 0.01123192 0.00162244 0.00359563
O 6.59673718 14.29013505 0.84742364 0.00416177 0.00088553 -0.00286818
O 1.85522469 18.01326250 25.24054067 -0.00166754 -0.00646321 -0.00144996
O 1.96685305 24.39787060 24.04738568 0.00725461 -0.00402867 -0.00858249
O 6.13096269 20.29013168 15.89914109 0.00168031 0.00310129 0.00439802
O 2.26763028 24.24121941 15.89074807 0.00241186 -0.00140596 0.00056093
O 6.20368924 20.19801129 23.87103945 -0.00254830 0.00394834 0.00630287
O 6.24117538 13.84172807 25.09829398 0.00239014 0.00408069 0.00365945
O 2.37197943 17.93571460 0.66729490 0.00704763 0.00599755 0.00374569
O 14.60714423 2.48419897 7.37483584 0.00726027 -0.00057885 -0.00224298
O 11.48280763 3.57066230 14.99462689 -0.00250112 0.00348155 0.00378597
O 10.65887468 9.79297436 0.92609319 -0.00636383 -0.00106695 0.00646849
O 15.77922263 9.20806650 9.25663156 -0.00192630 -0.00545499 -0.00317000
O 11.63952978 10.27948103 9.28661461 0.00650123 -0.00424181 0.00310264
O 14.21220034 9.10675127 1.50790720 -0.00266395 -0.00110766 -0.00161812
O 15.43178431 2.72416152 15.45661754 0.00259148 0.00112187 -0.00544279
O 10.42690942 3.56747390 7.01886021 0.00603701 0.00003062 0.00144043
O 15.15170065 1.10996841 17.55771462 -0.00256888 0.00839220 -0.00508768
O 11.15269433 5.27245920 8.79132771 -0.01005724 -0.00076409 0.00444259
O 11.05694643 11.25517980 7.14626989 0.00232309 -0.00349796 0.00190212
O 14.71221059 7.66172634 32.06503381 0.00000346 0.00075128 -0.00202956
O 10.61065013 11.82787999 31.92881006 -0.00571032 0.00252370 -0.00569159
O 15.28414711 7.59389955 7.29006863 0.00177333 0.00393831 -0.00264409
O 15.35049087 0.98471877 9.23518603 0.00990108 -0.00883242 0.00014004
O 10.84352491 5.28430608 17.07216189 -0.00081554 -0.00647505 0.00550290
O 13.89144899 2.98684975 23.43660165 0.00548752 -0.00270159 -0.00438303
O 11.18885649 3.13322045 31.18280873 0.00069119 0.00174922 0.00471422
O 10.33714074 9.91984874 17.39688369 -0.00230306 -0.00229268 0.00221800
O 15.31603503 9.23131996 25.84186048 -0.00214551 -0.00176767 -0.00318611
O 11.42362999 10.48902909 25.84475301 0.00358123 -0.00088158 0.00231693
O 14.60030945 9.23212041 17.35757845 0.00070546 -0.00038145 0.00117777
O 15.70911504 2.48296257 31.94356575 -0.00117814 -0.00233492 0.00117510
O 9.95828157 3.69885349 23.07542738 -0.00322775 -0.00243317 -0.00728918
O 14.69631082 1.25410900 1.13601510 0.00192194 0.00359320 0.00757252
O 10.38619496 5.19017662 25.19748748 0.00400499 0.00233366 -0.00261356
O 10.61784208 11.52016321 23.66974934 -0.00254027 0.00345280 -0.00032460
O 14.62011819 7.71912486 15.31376806 -0.00006324 0.00006750 0.00292288
O 10.77098688 11.52082999 15.48739083 -0.00173541 -0.00673741 -0.00070302
O 14.86193612 7.84978756 23.63062208 -0.00129049 0.00003777 -0.00621106
O 14.42246815 1.33860759 25.73185729 -0.00158751 0.00089150 -0.00256865
O 10.95202470 4.79575056 0.76187958 0.00613756 0.00299557 0.00740631
O 14.72762310 15.71666204 6.53670965 0.00186287 0.00107785 -0.00114872
O 10.88613483 16.47748934 15.38495131 -0.00130469 0.00196104 0.00047773
O 10.21301067 22.91766257 1.57576786 0.00029879 -0.00602620 -0.00312839
O 15.38956920 21.81830220 9.97406584 0.00285331 -0.00327374 -0.00557322
O 11.31589075 22.74551151 9.72438890 -0.00152810 -0.00204109 -0.00572753
O 14.21073069 21.85837262 1.74251605 0.00425040 -0.00053472 0.00080242
O 15.73759363 15.63601989 14.86042848 0.00054800 0.00063198 -0.00264099
O 10.15227091 16.19886801 7.17087993 -0.00343423 -0.00310705 -0.00305251
O 15.51539806 13.98976455 16.83785328 0.00292293 -0.00048006 0.00254837
O 10.81800935 17.94374901 9.28521492 -0.00041080 0.00397783 -0.00507272
O 10.86933499 24.31100357 7.68231570 -0.00474367 -0.00069195 -0.00002426
O 14.89526123 20.59108308 32.46110328 -0.00312958 0.00374737 0.00325708
O 10.67724911 24.38984672 32.17723771 0.00446465 -0.00236244 0.00125673
O 15.22371188 20.36823062 7.68992890 0.00121478 0.00483966 -0.00674931
O 14.57037444 14.45021612 8.80625914 0.00496180 0.00353465 0.00384447
O 10.10870168 17.91150064 17.44098159 0.00570037 0.00292619 -0.00069341
O 14.52551734 15.54881318 22.93879717 0.00209217 -0.00069013 0.00138687
O 11.61837971 16.95325093 31.88477836 -0.00082244 0.00045445 0.00272375
O 10.13701893 22.65921432 17.98780647 0.00147245 0.00161315 0.00808476
O 15.41149007 21.91440011 26.22317680 -0.00197954 -0.00271109 0.00255357
O 10.83140507 22.89254602 26.04798924 -0.00572168 0.00089426 -0.00037363
O 14.26249193 21.65583727 18.02580769 -0.00254054 -0.00040551 0.00401379
O 15.46935448 15.54866850 31.17995889 -0.00601516 0.00459988 0.00754567
O 9.91627186 16.48917081 23.59175574 0.00308495 0.00098173 0.00292588
O 15.25797492 13.83329046 0.34514332 0.00087133 0.01104978 -0.00094222
O 10.83362135 17.76197882 25.69466665 0.00133051 0.00082553 -0.00479924
O 10.60444942 24.30366651 23.97641960 -0.01191830 0.00308057 0.00014253
O 15.08576606 19.99774949 15.88779059 0.00190773 -0.00428543 0.00124333
O 10.62997895 24.25707402 15.94742664 -0.00445132 -0.00737132 -0.00203776
O 14.91274877 20.18065249 24.27165193 -0.00479773 0.00029084 -0.00715328
O 14.67420347 14.14009458 25.03902940 0.00266064 0.00208501 -0.00515626
O 10.57711716 18.05385383 1.18880464 -0.00336356 -0.00562048 -0.00162532
O 23.03832226 2.36598792 7.03201514 -0.00228660 -0.00222459 -0.00442952
O 19.44118595 3.26404852 15.37980188 -0.00011243 -0.00129669 0.00089864
O 19.19510890 10.29426041 1.02796994 -0.00470783 -0.00405865 -0.00545996
O 24.28162134 8.88089595 9.51592800 0.00378037 -0.00324642 0.00660288
O 19.78762350 10.00745246 9.31999160 0.00697857 -0.00219769 0.00419944
O 23.41522796 9.12064119 1.11189867 -0.00287841 0.00317873 0.00097365
O 23.92484771 2.54002671 15.49582261 0.00438383 -0.00158566 0.00032874
O 19.31953292 3.24649565 7.18417040 0.00186005 -0.00065117 -0.00047993
O 23.27464556 0.91219620 17.25189760 0.00371043 -0.00422695 0.00057939
O 19.75128815 4.96684848 9.26157388 -0.00087843 -0.00208694 0.00881484
O 19.18235321 11.29068242 7.28038883 -0.00442613 0.00679266 0.00637358
O 23.06716042 7.54065968 31.83097452 -0.00243313 -0.00197974 -0.00383966
O 19.36789861 11.86464916 31.81253520 0.00188965 0.00587025 0.00137577
O 23.78471168 7.32286089 7.27454082 0.00236654 0.00344772 0.00298242
O 23.70417704 0.97561827 9.35955235 -0.00316032 -0.00311098 0.00408194
O 19.38528517 5.09571081 17.46432073 -0.00384262 0.00363938 0.00277309
O 23.10298727 2.69396777 23.39303142 0.00422135 0.00031602 0.00781826
O 19.81063095 3.74500618 31.42155569 0.00171176 0.00127254 0.00435380
O 18.96498682 10.20692558 17.35621923 0.00232879 0.00138920 0.00844489
O 24.34617274 9.16278991 25.90002148 -0.00590174 -0.00428920 0.00296524
O 19.53908503 10.25705754 25.89942602 -0.00544769 -0.00418477 0.00139070
O 23.22443107 9.01930917 17.72964602 0.00668991 -0.00102258 0.00020710
O 24.20938308 2.62597991 31.44962999 0.00112410 0.00094548 -0.00024030
O 18.39516859 4.11435924 23.63089524 0.00055854 0.00645741 -0.00511269
O 23.40066167 1.41084294 0.67347840 0.00327261 -0.00327689 0.00109175
O 19.31963726 5.63296200 25.41612655 0.00209892 -0.00069406 -0.00388650
O 19.16674582 11.21563890 23.65184013 -0.00083711 -0.00129467 0.00611543
O 23.59514667 7.58922396 15.68226489 -0.00159989 0.00256239 -0.00693955
O 19.55514272 11.54924768 15.38408900 -0.00123931 0.00299960 -0.00066393
O 23.42957622 7.59053833 23.89927616 0.00050661 0.00113229 0.00346895
O 23.88981587 1.04893402 25.40558942 -0.00178541 -0.00311448 0.00286151
O 19.48087506 5.05739477 0.88984058 0.00181110 -0.00216182 -0.00250685
O 22.71150312 15.22851154 6.95625622 -0.00247227 -0.00082244 0.00365084
O 19.56945568 16.25843012 15.02363323 0.00139056 -0.00546010 0.00251332
O 18.81438709 22.88409886 1.72423657 0.00336697 -0.00552360 0.00427444
O 24.33719575 21.67401100 9.37830569 0.00043075 0.00544519 0.00046292
O 19.72190108 22.48526248 9.62741987 -0.00517706 0.00769992 0.00545770
O 22.90075425 21.39500487 0.97469668 -0.00378541 0.00103406 -0.00167846
O 24.24853736 15.61132291 14.85839524 -0.00322020 -0.00500063 0.00057161
O 18.61232199 16.38053869 6.73429849 -0.00054350 -0.00394087 0.00249602
O 23.56697627 14.17584452 16.90379170 0.00376118 0.00162512 -0.00194518
O 19.32236012 17.84250848 8.89592201 0.00429788 -0.00141083 0.00095813
O 19.22724790 24.15115131 7.80535750 -0.00002756 -0.00329949 -0.00371334
O 23.80331425 20.32373648 31.72310210 0.00364557 -0.00114454 -0.00559360
O 19.33745405 24.49193509 32.52992395 0.00642825 0.00679798 0.00219352
O 23.72922855 20.41888186 7.17919993 0.00725391 0.00337371 -0.00192525
O 23.71837899 13.90946997 8.92616630 -0.00644671 -0.00259617 0.00031203
O 18.98635232 17.58900595 17.13661598 -0.00584667 -0.00138403 -0.00506245
O 22.47965459 15.02399801 23.14247042 0.00094289 0.00439489 0.00428337
O 19.76817390 16.54458131 31.62323828 0.00382649 -0.00387557 0.00231519
O 18.56386813 22.81604455 18.19796781 -0.00540471 -0.00625011 0.00178962
O 23.41187208 21.94819010 25.70269982 0.00749388 -0.00224357 -0.00130428
O 19.15391304 22.91436669 26.31483160 -0.00260559 -0.00112183 0.00074468
O 22.66052224 21.32153922 17.50319436 0.00026759 0.00205545 -0.00059980
O 23.36323582 15.79523502 31.57590491 -0.00007309 0.00202750 0.00091822
O 18.57194889 16.48444392 23.34742187 -0.00174563 0.00325896 0.00076675
O 23.33763789 14.18978431 0.72880748 -0.00174458 0.00181430 0.00028899
O 18.69527434 17.95541397 25.43341327 0.00340959 0.00468581 0.00257703
O 19.42482217 24.61993781 24.37237367 -0.00021383 -0.00511979 -0.00411980
O 23.47451520 20.36814755 15.38088509 0.00425849 -0.00027043 -0.00294883
O 19.51695456 23.72787817 15.88043428 0.00049901 -0.00771126 0.00321986
O 22.95887434 20.31288118 23.67451394 -0.00419390 -0.00433445 -0.00012571
O 23.06314189 13.94361029 25.32103252 0.00147069 -0.00428730 0.00213304
O 19.27669471 18.09641011 0.71255607 0.00833358 -0.00054710 0.00312013
N 7.32243171 12.84005052 2.46860250 -0.00085097 0.00047064 0.00554453
N 0.87601203 6.16916478 10.58433615 0.00286710 -0.00323928 0.00079326
N 3.34617758 0.05115534 5.88617533 0.01020524 -0.00024215 -0.00599755
N 5.12970006 6.37758970 13.88781384 0.00159347 0.00244849 -0.00214606
N 0.91692085 25.11770574 14.32784751 -0.00595107 -0.00655748 -0.00357922
N 7.71024603 6.68167308 5.49946027 -0.00035717 0.00258053 -0.00019668
N 5.31097002 12.66316584 10.35644718 -0.00154240 -0.00083177 0.00217719
N 3.49340748 6.33894911 1.98936436 0.00185493 -0.00756927 0.00170832
N 7.35413247 12.63004272 18.46002349 -0.00192085 -0.00190670 0.00515679
N 1.05726811 6.62587197 26.61263000 0.00117979 -0.00215994 0.00272635
N 3.01723828 0.02051094 22.34635126 0.00401666 -0.00529756 0.00948895
N 5.27033072 6.77852366 30.19319594 0.00206167 0.00076643 0.00142699
N 1.11023621 0.01461068 30.32547765 0.00207160 0.00024045 0.00120140
N 7.53180471 6.53845893 21.93364296 0.00905675 -0.00085970 0.00626357
N 5.26791576 12.70614344 26.83792751 0.00118556 0.00036508 0.00391273
N 3.31889848 6.27490079 18.62818957 0.00145686 -0.01336691 0.00154531
N 7.74607015 0.21294698 2.67361882 0.00354090 -0.00164621 0.00075457
N 1.12075533 19.01888497 10.36017773 0.00095988 -0.00126324 -0.00336764
N 3.20793216 12.89815484 5.43754092 -0.00192490 -0.00434139 -0.00919659
N 5.45773996 19.04744709 14.10594598 -0.00602816 0.00052790 0.00432265
N 0.94396632 12.66911514 13.70173500 -0.00359220 0.00366621 0.00230385
N 7.57747230 19.28468613 6.01424337 0.00106999 -0.00038252 0.00295367
N 5.25775338 0.15613111 10.70983748 0.00162012 -0.00061223 -0.00263474
N 3.45026535 19.15905507 2.30699697 -0.00362784 0.00163278 0.00132465
N 7.63230185 0.02902985 19.18232854 -0.00226577 -0.00227951 -0.00250311
N 0.59212787 19.02590371 26.88541294 0.00250721 0.00334326 0.00090744
N 2.96102371 12.97012855 21.70851575 0.00368387 0.00422860 0.00217774
N 5.15427561 19.22059743 30.35965927 -0.00362700 0.00279071 -0.00378357
N 0.64926436 12.88108804 30.12752254 -0.00229973 -0.00438377 0.00391777
N 7.38299703 18.96755239 22.37268565 0.00570062 -0.00279001 -0.00460600
N 5.03807801 0.47037476 27.37964532 0.00426763 0.00101583 -0.00815378
N 3.23463980 18.86538066 18.78747197 -0.00212104 -0.00369293 0.00259656
N 16.12228850 12.66015226 2.09772206 -0.00260947 -0.00249934 0.00425181
N 9.77479378 6.25399281 10.44352372 -0.00360426 0.00235932 -0.00062533
N 12.16225155 25.43789199 6.14907636 0.00042827 -0.00781935 -0.00234903
N 13.95632827 6.39109819 13.63144992 -0.00477233 -0.00091853 0.00426367
N 9.38324506 25.24395938 14.24232300 -0.00144491 0.00489197 -0.00671593
N 16.45308653 6.41461316 5.78397754 -0.00228596 -0.00229921 0.00125147
N 14.15577872 12.91725456 10.43565248 0.00055837 -0.00287612 -0.00190219
N 11.80525161 6.26810137 2.30635516 0.00230250 0.00594962 0.00192602
N 16.19622989 12.59830154 18.58331459 -0.00187234 0.00128421 0.00546382
N 9.58980294 6.45103996 27.00292791 0.00081415 0.00233874 -0.00054858
N 11.85722705 25.42806342 22.48592714 -0.00164949 0.00262194 0.00632770
N 13.82781190 6.39063099 30.38543177 0.00416042 -0.00253065 0.00130019
N 9.49256894 0.11599923 30.59282217 -0.00927828 0.00623980 -0.01140771
N 16.17689352 6.72503530 22.07122618 -0.01208971 0.00852341 -0.00345540
N 13.54029200 13.05274296 26.70701203 -0.00273647 0.00470549 0.00545972
N 12.11965798 6.17285700 18.76246658 0.00708572 0.00166487 -0.00703086
N 16.03196549 0.07114570 2.55589707 0.00224000 0.00284224 0.00059105
N 9.72963253 19.25887580 10.79651052 0.00561856 0.00188411 0.00437672
N 11.82050047 12.68831626 5.58779429 0.00205657 0.00099813 -0.00381480
N 13.63560303 19.00402670 14.36832882 0.00132710 0.00279413 -0.00493789
N 9.64878089 12.60017021 13.86440055 0.00272530 -0.00256916 -0.00019177
N 15.81949189 18.83440140 6.04784571 -0.00317436 0.00800206 -0.00202739
N 14.07286916 0.01308043 10.79312784 -0.00095159 -0.00122673 0.00373467
N 11.67260994 19.23613969 2.79709872 -0.00102903 -0.00071375 0.00207691
N 16.32912291 0.18979490 19.24434862 0.01180475 -0.00105310 0.00377011
N 9.42297210 18.77759846 27.19413634 0.00336647 0.00077710 0.00172089
N 11.75502564 12.63007097 21.94666693 -0.00358304 -0.00400707 -0.00101541
N 13.74086463 19.42153874 30.87471303 0.00381499 -0.00048281 -0.00567106
N 9.63213489 13.01958951 30.28675530 -0.00122843 0.00293818 -0.00128633
N 16.14505031 19.20101268 22.50395050 0.00697924 0.00118494 0.00049105
N 13.57087279 0.03653714 27.33175066 -0.00316513 0.00275199 -0.00224313
N 11.53781400 18.92520352 18.90685877 0.00404535 -0.00711550 -0.00101042
N 24.49338501 12.95695527 2.27470401 -0.00091473 -0.00098215 0.00053329
N 18.48710378 6.14161341 10.76981319 -0.00337646 -0.00436920 -0.00075226
N 20.39756635 25.46570472 6.31938307 0.00106921 0.00085975 -0.00764976
N 22.34835884 6.46453159 14.12448157 0.01198426 -0.00263212 -0.00228182
N 18.14575789 24.86484730 14.40617172 -0.00012811 -0.00059798 -0.00913939
N 24.81047909 6.19668567 5.62407326 0.00060216 0.00238473 -0.00357320
N 22.41052766 12.92944996 10.36804514 -0.00243745 -0.00380563 -0.00150342
N 20.51030918 6.28894385 2.53620687 -0.00234147 -0.00520230 0.00167137
N 24.47908467 12.80755561 18.53825407 0.00386608 -0.00383135 0.00220458
N 17.84803232 6.38555667 26.98565176 -0.00257362 0.00015423 0.01011466
N 20.31427847 0.15897902 22.57917607 0.00316951 0.00064513 -0.00455160
N 22.18394755 6.30669405 30.13433274 0.00120832 -0.00290792 -0.00210120
N 18.25967170 0.25224975 30.92049562 0.00201377 0.00041259 -0.00000175
N 24.68280198 6.26367812 22.41169277 0.00276307 -0.00521264 -0.00072973
N 22.06361895 12.90643462 27.03850464 0.00049243 0.00021562 0.00240875
N 20.42089480 6.36605928 19.03255833 0.00312667 -0.00605911 -0.00481721
N 24.74166748 0.13902033 2.12013506 0.00184719 -0.00288122 -0.00490809
N 17.89520314 18.88003013 10.45695015 -0.00826708 -0.00016953 0.00439504
N 20.25355983 12.64124806 5.85760293 0.00364795 -0.00497325 -0.00186238
N 22.40188252 19.15736840 13.86591002 -0.00344648 -0.00087594 0.00639240
N 18.20085263 12.75804337 13.90303381 -0.00403558 0.00312239 -0.01314944
N 24.66574880 19.03999013 5.59035625 0.00222613 -0.00054231 -0.00122444
N 22.48850360 25.21540443 10.84153864 0.00005740 -0.00407156 -0.00343074
N 20.40433720 19.24072121 2.35088205 0.00051404 -0.00265593 -0.00151369
N 24.47586535 25.35559751 18.86965191 -0.00033663 -0.00416214 -0.00009194
N 17.80572364 19.15103124 27.14698981 0.00146661 0.00392918 0.00263091
N 20.34438491 12.50835298 22.21899252 0.00067508 0.00431796 -0.00034631
N 22.43954125 19.07144457 30.36217980 -0.00180573 0.00473856 -0.00078293
N 17.70094639 12.79706995 30.55611411 0.00119693 -0.00232570 -0.00188680
N 24.36355036 19.15396524 22.23136041 -0.00468988 0.00336500 0.00036242
N 22.45603337 0.01203118 26.89480390 -0.00427060 0.00634985 -0.00987579
N 20.22419719 18.84587306 18.67472419 -0.00149284 -0.00600898 -0.00074643
C 7.75667327 0.33888730 5.06382295 -0.00216270 0.00513511 0.00413041
C 0.90438319 5.94878101 13.01585527 0.00136128 0.00030533 0.00120700
C 3.22070428 12.45738090 3.08400493 0.00460248 0.00346284 -0.01120131
C 5.19812106 6.65188661 11.49701471 0.00803207 0.00606388 0.00230995
C 0.95159184 12.27803120 11.36061727 0.00866977 0.00124510 0.00403898
C 7.61140275 6.84353092 3.06982064 0.00272676 0.00705680 0.00178819
C 5.27967271 0.35308657 13.11614678 -0.00309430 -0.00048479 0.00149352
C 3.80009265 5.87034434 4.33371727 -0.00160054 0.00463696 0.00420896
C 7.16400061 0.80053009 6.18771061 -0.00583765 -0.00036613 -0.00010691
C 1.15739102 5.23994709 14.17720831 0.00319201 0.00041239 -0.00044786
C 2.87876978 11.76175684 1.93745759 0.00080559 0.00175474 0.00787884
C 5.56124669 7.30200458 10.33439684 -0.00270264 -0.00045578 0.00196658
C 1.35130977 11.63360572 10.25898910 0.01100193 -0.00519631 0.00123616
C 7.24968306 7.49974179 1.91976632 -0.00466526 0.00716460 0.00166287
C 5.69648478 0.97771510 14.28421923 0.01310947 -0.01196982 0.00222393
C 3.40113888 5.22794356 5.46966080 -0.00936970 0.00416716 0.00297486
C 6.61452966 2.13960941 6.15242327 -0.00466524 -0.00149145 0.00689985
C 1.87919481 4.00481322 14.03147617 0.00027820 0.00765431 -0.00558828
C 1.93000092 10.66748360 2.04353085 0.00273224 -0.00274515 0.00109790
C 6.43131000 8.40152946 10.39060786 -0.00431471 -0.00071301 -0.00121491
C 2.15072716 10.47091954 10.43571924 -0.00340695 0.00341640 0.00095250
C 6.28357828 8.62707539 2.04845684 -0.00674414 0.00559593 0.00046792
C 6.54040635 2.12057770 14.29372706 -0.01015101 -0.00118651 -0.00114235
C 2.44235623 4.20283305 5.36519997 0.00138664 0.00369163 0.00287547
C 6.39980234 2.76040226 4.93317523 0.00136683 0.00333073 0.00072830
C 2.30793352 3.53331683 12.78567789 -0.00656773 -0.00502783 0.00431225
C 1.67016645 10.10752615 3.38262818 -0.00250124 -0.00042255 0.00081594
C 6.70872776 8.91453065 11.65676970 -0.00034064 -0.00000629 -0.00169711
C 2.48573392 9.92628426 11.68330076 -0.00061416 -0.00568964 0.00023338
C 5.93575275 9.09058984 3.31838720 0.00500305 0.00522966 0.00100499
C 6.70570580 2.70035025 13.04818994 0.00117534 0.00579330 0.00524695
C 2.20732193 3.55737372 4.16069017 -0.00493465 -0.00995148 0.00512598
C 6.81581993 2.22601194 3.75159296 0.00478481 -0.01257274 0.00341362
C 1.89223203 4.22195516 11.59450169 -0.00035198 0.00007992 -0.00195993
C 2.00873588 10.84609139 4.50940976 0.00608162 0.00775055 0.00399806
C 6.37166729 8.33534543 12.85965489 0.00194137 0.00124566 -0.00114414
C 2.05226957 10.60943476 12.78531058 -0.00148039 -0.00275084 -0.00234818
C 6.44039571 8.50188815 4.42294049 -0.00344344 0.00565902 0.00680647
C 6.19185364 2.18544115 11.88846526 -0.00089390 -0.00191680 -0.00778952
C 2.68611084 4.21917700 2.97361054 0.00128795 0.00200661 0.00466392
C 7.41596552 0.89869547 3.80384424 0.00371932 -0.00941446 -0.00775455
C 1.26759543 5.42783224 11.73800180 0.00655667 0.00492120 0.00433022
C 2.78774381 12.07843241 4.36851376 0.00157103 0.00310842 -0.00408041
C 5.58700131 7.16251703 12.78300061 0.00323686 -0.00066605 0.00023595
C 1.30219956 11.79394042 12.64977082 0.00219997 0.00191046 -0.00429111
C 7.24064336 7.33727846 4.32847358 -0.00451107 -0.00368475 -0.00302703
C 5.60578931 0.92520108 11.81432141 0.00161376 0.00928714 0.00265688
C 3.25238127 5.49599654 3.09718144 0.00520992 -0.00237673 0.00763705
C 7.13515436 0.17548195 1.46762733 -0.00190607 0.00198976 0.00241263
C 1.34180557 5.93521933 9.28309545 -0.00726782 -0.00126139 0.00318036
C 2.95601240 12.61544892 6.73733321 -0.00003592 0.00081962 0.00085557
C 5.81581430 6.42091062 15.10137305 0.00364798 0.00373371 -0.00164084
C 1.37394125 12.54255694 15.01724139 0.00456229 -0.00331452 0.00429241
C 7.08731664 6.64204459 6.67983004 -0.00232839 0.00127499 0.01041868
C 6.09643592 0.08140538 9.69035595 0.00923728 -0.00236412 0.00294589
C 2.76193700 6.34738919 0.87282221 0.00272071 -0.00139217 0.00126261
C 6.89669238 11.42835815 16.46836707 -0.00580105 0.00175279 -0.00710534
C 1.44899457 7.18011416 8.40176663 -0.00273587 0.00042399 -0.00968179
C 2.91408063 1.02176716 8.06548032 0.00350106 -0.00837562 -0.00424053
C 5.36712177 5.54971026 32.31317208 -0.00130509 0.00084647 -0.00127367
C 1.47058156 1.10778795 32.46486953 0.00335420 0.00091632 0.00309839
C 7.40730168 5.41747415 7.55181157 -0.00536311 0.00028500 -0.00254072
C 5.78270705 11.46866610 8.35463347 -0.00043609 0.00798182 -0.01073447
C 2.86605085 7.01123962 16.32129672 -0.00696915 0.00190974 0.00074999
C 7.69720817 0.41540344 21.51693537 0.00613181 0.00313478 -0.00659974
C 0.74806633 6.04371676 28.89325535 -0.00072421 0.01045667 -0.00308685
C 3.14680345 12.40284917 19.38151275 0.00220451 -0.00328846 0.00234687
C 5.39435825 7.20250394 27.92613634 0.00759742 0.00075859 0.00336489
C 0.75148319 12.44398487 27.71094331 -0.00224058 0.00577500 -0.00758554
C 7.72654091 6.92770181 19.56553502 -0.00340610 -0.00868491 0.00139233
C 5.10169453 0.64412448 29.76487808 -0.00514384 0.00071681 0.00261431
C 3.30903416 6.11398827 21.09183159 0.00663726 -0.00066290 -0.00389965
C 7.42895297 1.08728524 22.70833831 0.00104192 0.00028227 0.01013882
C 1.11461800 5.32032528 30.01248721 0.00477216 0.00601962 0.00725059
C 2.78792101 11.52612258 18.36125308 0.00516225 0.00358455 -0.00308931
C 5.80862770 7.92582839 26.83062282 -0.00250485 0.00302416 -0.00340738
C 1.18977330 11.78415641 26.58174731 0.00044730 0.00622054 -0.00086431
C 7.23530570 7.59748127 18.45572682 0.00673901 0.01037152 0.00866415
C 5.51397594 1.11139674 30.96880272 -0.00133530 0.00051092 -0.00473871
C 2.94173348 5.50991617 22.27951501 -0.00437813 0.01015903 -0.00978087
C 6.50106489 2.17323134 22.63267365 0.00728362 -0.00495380 -0.00364199
C 2.12592158 4.35529940 29.92881298 0.00050052 0.00038956 -0.00090095
C 2.00297778 10.37956439 18.55067189 -0.01232747 -0.00002044 -0.00183439
C 6.85517429 8.79864562 26.91670922 0.00017925 -0.00145393 0.00090310
C 2.08932055 10.72197571 26.73293890 0.00194784 -0.00510828 0.01259667
C 6.18122375 8.53865187 18.48969352 -0.00045723 -0.00049348 -0.00061379
C 6.42533221 2.25503686 30.89575993 0.00623201 -0.00426917 0.00088621
C 2.06356167 4.38365541 22.29265959 -0.00542424 -0.00519348 -0.00468730
C 6.07600134 2.64294215 21.37497545 0.00928087 -0.00053967 0.00383632
C 2.48498620 3.85598435 28.67955813 0.00352258 0.00067702 -0.00520872
C 1.79513361 9.97423443 19.89048911 -0.00725456 0.00218302 -0.00657497
C 7.15245372 9.33318412 28.21750871 0.00419406 -0.00210129 -0.00354112
C 2.34510247 10.24082672 28.05644422 -0.00573314 -0.00241682 0.00633894
C 5.93685259 9.01961678 19.84184387 0.00290896 -0.00873588 -0.00446712
C 6.64404141 2.86839637 29.65906358 -0.00189885 -0.00183320 0.01006107
C 1.94303535 3.74609089 21.05042686 -0.00217650 -0.00564173 -0.00018737
C 6.47207175 1.99377987 20.22749314 -0.00496823 -0.00296116 0.00020114
C 2.06132552 4.50945080 27.56315977 0.00029364 -0.00696311 -0.00585906
C 2.26960279 10.76257741 20.92248913 -0.00549617 0.00027063 -0.00388279
C 6.52095096 8.85217385 29.35692233 0.01190799 0.00250859 0.00108805
C 1.76651085 10.82811121 29.15988701 -0.00124531 -0.00068041 0.00481973
C 6.48319265 8.42895862 20.96905536 0.00225040 -0.00545058 -0.00406328
C 6.33371284 2.26690056 28.44832810 0.00428730 0.00163739 0.00075562
C 2.42852761 4.24242245 19.88300049 -0.00431283 0.00275837 -0.00443725
C 7.32141180 0.90675790 20.27848702 -0.00890757 0.00085471 -0.00057652
C 1.34272835 5.72720453 27.63578428 0.00373001 -0.00372607 0.00430409
C 2.83169207 12.04812430 20.71525306 -0.00068023 0.00597376 -0.00580865
C 5.74913844 7.60159731 29.22120967 -0.00068330 0.00682508 -0.00277976
C 1.10370777 12.04947208 29.05947465 0.00245988 -0.00089078 -0.00339076
C 7.29461683 7.34985119 20.86514610 0.00384576 -0.00381348 0.00230597
C 5.48447852 1.17275403 28.48897990 -0.00344703 0.00052953 -0.00440883
C 3.02928137 5.55949187 19.82790192 -0.00192411 -0.00224155 0.00362111
C 7.14351012 0.18099288 17.91897138 0.00217573 -0.00524378 0.00494156
C 1.65183397 6.54843824 25.40995866 -0.00213218 0.00164708 0.00294879
C 2.83724592 12.69877916 23.02199649 0.00467799 -0.00196730 0.00538409
C 5.75027870 6.77141769 31.43287377 0.01231001 -0.00384048 0.00119701
C 1.12135148 12.84174211 31.36942274 0.00692148 0.00011147 -0.00007478
C 7.06807786 6.77581112 23.21223076 -0.00177020 0.00332244 -0.00367974
C 5.74370577 0.39853098 26.21107756 -0.00101201 0.00904862 0.00183798
C 2.90138161 5.91743985 17.34569564 0.00150477 -0.00135194 -0.00462471
C 7.12761689 12.12358664 0.10597563 0.00019167 0.00055177 -0.00156397
C 1.67520246 7.74068830 24.53224071 0.00670564 0.00450701 0.00485357
C 2.60049978 1.13343634 24.46589123 -0.00372870 0.01000158 0.00500837
C 5.98623483 5.26525711 15.92085219 0.00275242 0.00448550 0.00347894
C 1.36859740 0.80284927 16.52218728 0.00446100 0.00604339 -0.00590913
C 7.32732586 5.60522315 24.17891517 -0.00137632 0.00196130 -0.00047038
C 5.67314520 11.55575215 24.74648805 0.00397342 -0.00548623 0.00751321
C 2.81269592 7.57900709 0.01080588 -0.00426464 0.00201339 0.00214731