1920
Time=38000.00000002 pbc="T T T" Lattice="25.53709559 0.00000000 0.00000000 0.00000000 25.62249488 0.00000000 0.00000000 0.00000000 32.80185988" energy=-12250.70621872 virial="-40.40125065 -7.58260922 5.05206526 -7.58260922 -43.14229010 0.26394467 5.05206526 0.26394467 -18.44255142" stress="0.00038117 -0.00034712 0.00025037 -0.00034712 0.00027606 0.00005069 0.00025037 0.00005069 0.00120087" Properties=species:S:1:pos:R:3:vel:R:3
O 5.92374951 2.74035146 6.44041675 0.00264809 -0.00314565 0.00134187
O 1.90513806 3.93523732 14.78433886 0.00115023 0.00489921 0.00599330
O 1.73499911 10.03757171 1.44677349 0.00301463 -0.00077618 -0.00456035
O 6.87795557 9.16266536 9.67767889 0.00627010 0.00408970 0.00329745
O 2.49527503 9.96919417 9.82130580 -0.00161868 0.00037783 0.00162599
O 6.20141234 9.36540851 1.14538270 -0.00235577 0.00541289 -0.00331608
O 6.65691226 2.84232478 14.63350945 -0.00412934 0.00425223 -0.00500906
O 1.12368929 3.79100515 6.68250382 -0.00920720 -0.00110820 -0.00482607
O 6.22822281 1.11302631 16.65301513 0.00449892 -0.00594681 -0.00387001
O 1.81564607 5.28443155 8.65209520 -0.00128938 -0.00189420 -0.00432011
O 2.20101053 11.59330995 7.67668771 0.00343528 -0.00295403 0.00341975
O 6.69889107 7.69824061 31.98788769 0.00120032 0.00241275 -0.00375230
O 1.77751720 11.50049814 32.09373001 0.00140778 -0.00202118 0.00715153
O 6.72023841 7.89874590 7.37420076 -0.00547988 0.00199602 -0.00313605
O 6.32095209 1.22087571 8.39307377 -0.00624444 0.00020543 -0.00098232
O 1.83025132 5.17194662 16.95722036 0.00475274 -0.00137041 -0.00016794
O 6.21203846 2.71909495 22.85517876 0.00236022 0.00554680 0.00060787
O 2.21004717 3.57304831 31.48161972 0.00258916 -0.00309692 -0.00418104
O 1.55373999 9.61768000 18.03334617 0.00007654 -0.00360305 -0.00939590
O 6.92045385 8.90891188 25.84164494 -0.00053451 -0.00130454 0.00132584
O 2.14115998 9.75143542 26.12089172 -0.00385868 -0.00463715 0.00056025
O 5.68415837 8.75672911 17.61053352 0.00210761 -0.00291430 0.00015601
O 6.91923370 2.43779653 31.06707023 0.00161780 -0.00188024 0.00771384
O 1.98233196 3.80206911 23.27224857 -0.00108301 -0.00007922 0.01035842
O 5.91662010 0.98698777 0.30686543 0.00028141 -0.00609081 -0.00455477
O 2.75987959 5.26873735 25.42212266 0.00057226 -0.00514551 0.00049383
O 2.30682581 11.45532074 24.21469502 0.00224459 -0.00238078 0.00192852
O 6.08247835 7.18408345 15.55344549 0.00205668 0.00430026 0.00271952
O 2.19684671 11.24946508 15.89192628 -0.00554192 -0.00844512 -0.00393327
O 6.33983984 7.61237687 23.73948838 -0.00522208 -0.00287461 -0.00612596
O 6.04122709 0.92137526 24.83364740 -0.00155433 -0.00383959 0.00609206
O 2.03872248 5.25984827 0.63813930 0.00061612 -0.00150887 -0.00155353
O 5.91175266 15.72377633 7.31408990 -0.00196659 0.00322914 -0.00119197
O 2.48267152 16.41180846 15.29275762 -0.00105038 -0.00425561 0.00253196
O 2.42682593 22.53991437 1.16974227 -0.00312703 -0.00368607 -0.00149465
O 6.80626748 22.05442630 9.63603751 0.00016319 -0.00402470 -0.00131480
O 2.82735497 22.88609521 9.39255764 0.00519046 -0.00165411 -0.00474928
O 6.42709844 22.05796224 1.23020281 0.00548387 -0.00456021 -0.00146232
O 6.58086101 15.24474339 15.84521524 -0.00418999 0.00107319 0.00781360
O 1.63512477 16.41116359 7.34456393 0.00795971 0.00182666 -0.00388340
O 5.97514944 13.77060761 17.71118647 -0.00758458 -0.00204350 -0.00577945
O 2.14178175 18.01077071 9.28268352 0.00274846 -0.00354823 -0.00219985
O 2.46304661 24.47496690 7.20809846 0.00211872 0.00423111 0.00176930
O 6.49223397 20.30624362 32.00307566 0.00362079 -0.00294416 -0.00145212
O 2.16753076 24.12441388 32.01936327 -0.00789129 0.00894123 0.00166783
O 6.23352032 20.77661061 7.41382438 0.00363702 0.00537894 0.00712235
O 5.85473234 14.33677935 9.43122223 0.00554932 -0.00069203 -0.00395773
O 2.23011684 17.91987720 17.37436459 0.00000500 -0.00147013 0.00417350
O 5.58038122 15.33907423 23.72719103 0.00220124 0.00640742 -0.00070673
O 3.01809290 16.62711077 31.75608516 -0.00157078 0.00225875 0.00096323
O 1.22596802 23.04006746 17.73798579 0.00165694 0.00400862 0.00071379
O 7.13886336 21.72626190 25.80927514 0.00378115 -0.00573167 0.00652485
O 2.83306556 22.50016765 25.81957251 -0.00031278 0.00660540 -0.00148400
O 5.85765186 22.06288948 17.67316917 -0.00182025 0.00682624 -0.00104178
O 7.63280355 15.19093169 31.85204265 -0.00454256 0.00173329 -0.00032079
O 1.52539216 16.61677131 23.58054046 -0.00289852 -0.00433138 0.01188531
O 6.55734802 14.25833799 1.21803694 0.00195949 -0.00068264 0.00293202
O 1.97534098 18.04107902 25.64075906 0.00292160 -0.00505185 -0.00164281
O 2.72714480 24.40247410 24.03878907 0.00429191 -0.00398672 -0.00254113
O 6.01809801 20.36514174 15.63476640 0.00011736 0.00371284 0.00314636
O 1.45070509 24.75202071 15.58371720 -0.00447812 0.00427165 -0.00232577
O 6.57753399 20.28434439 23.86765298 -0.00141064 -0.00074000 0.00004536
O 6.45948232 14.12564810 25.91519906 0.00244125 0.00797523 0.00340157
O 2.31832061 17.62926334 1.18088982 -0.00171185 0.00019296 0.00086793
O 15.08258445 2.73774553 7.01861648 0.00341944 0.00107439 0.00079138
O 11.06655046 3.78390953 14.79377085 -0.00283290 0.00620220 -0.00215451
O 10.62426749 9.64018020 1.68909564 0.00302075 -0.00318648 0.00561864
O 15.46577671 9.25172992 9.44107461 -0.00000044 -0.00125357 -0.00406060
O 11.28956923 10.06950078 9.89606997 -0.00063395 -0.00087604 0.00299858
O 14.53158722 8.70654532 0.93938617 -0.00459554 0.00091281 0.00258217
O 15.13684936 2.86424477 15.13811929 0.00622966 0.00231160 -0.00072075
O 9.88181262 3.49619651 6.50072391 0.00763547 0.00386674 0.00164382
O 15.35622875 1.39359960 17.20351598 -0.00455271 -0.00011767 -0.00068416
O 10.53873473 5.23470437 8.69744218 -0.00182115 0.00375655 0.00075102
O 10.92920998 11.72652562 7.77171883 -0.00314244 -0.00058666 -0.00222001
O 15.25404595 7.36316667 31.59159945 -0.00507629 -0.00097061 0.00008992
O 10.41399174 11.32044719 32.28120485 -0.00504339 0.00220160 0.00312351
O 15.14415392 7.75404493 7.42671602 -0.00174381 -0.00718521 -0.00524257
O 14.98807566 1.07657195 8.91288097 -0.00538824 -0.00260238 0.00367555
O 10.69794603 5.57723726 16.66246911 0.00257314 -0.00326497 0.00075443
O 14.68346387 2.55766513 23.45019148 -0.00075258 -0.00549952 -0.00172418
O 11.03493392 3.41335134 30.96873892 -0.00264255 0.00570059 0.00006473
O 10.06871167 9.89633678 18.14317889 0.00156742 0.00998562 -0.00753451
O 15.80741198 8.84079485 25.52011822 -0.00046937 0.00392061 0.00251766
O 11.57425544 10.00070424 26.06322005 0.00344927 0.00821133 0.00259794
O 13.98387429 9.67370637 17.46890494 -0.00141438 -0.00104708 0.00241452
O 15.93344675 2.55458844 31.56351212 0.00312862 0.00554911 -0.00729396
O 10.31259147 3.88902577 22.98952440 0.00223800 -0.00307817 -0.00010209
O 14.76794757 1.06551676 0.82799762 -0.00125668 0.00794607 0.00169450
O 11.14311833 5.47104775 25.02697013 -0.00054562 -0.00063967 0.00326315
O 11.36403063 11.60610494 24.04080216 0.00095479 -0.00127756 0.00308317
O 13.94318209 7.89736281 15.64552952 -0.00093263 0.00048818 -0.00147816
O 10.29151081 11.60654210 16.12880077 -0.00266139 0.00007193 0.00297729
O 14.92700659 7.56654064 23.47124146 -0.00429292 -0.00540878 -0.00337895
O 15.36768087 1.19654152 25.46706953 -0.00236301 -0.00415704 -0.00070371
O 10.66839171 4.94343592 0.34524972 -0.00279378 -0.00464313 -0.00198994
O 14.30567146 15.50879165 7.10811181 -0.00289927 0.00347490 0.00124792
O 10.80385831 16.77863394 15.08507240 -0.00062653 -0.00245309 -0.00743593
O 10.34845512 23.06716581 0.92989161 -0.00672514 0.00131215 -0.00104937
O 15.61661892 21.75316520 9.33515200 0.00407023 -0.00513078 0.00253856
O 11.40949962 22.99717897 9.07853610 0.00072597 0.00352901 -0.00029604
O 14.48976749 22.15181662 1.07813874 0.00212816 0.00568834 0.00808895
O 15.36328685 15.37165482 15.48169866 0.00033538 -0.00118774 0.00534092
O 9.58590644 16.55409910 6.77468232 -0.00085453 0.00370977 0.00120975
O 14.70765251 13.80093405 17.34365827 -0.00090346 0.00426266 -0.00068005
O 9.84667542 18.05714659 8.82143570 0.00137567 -0.00483323 0.00323611
O 10.38367180 24.56555386 7.15438876 0.00027295 0.00361995 0.00390101
O 14.53447810 20.54409105 31.85462587 0.00313946 -0.00102901 0.00638003
O 10.44129376 24.35181687 31.59454693 -0.00427246 -0.00373992 0.00116117
O 14.69241415 20.37881875 7.29450281 -0.00368325 0.00081751 0.00301323
O 14.70211929 14.16743483 9.23584763 -0.00321458 0.00130282 -0.00147097
O 10.32231170 18.06473701 17.17964105 0.00624055 0.00393002 -0.00101900
O 14.82711837 15.53818875 23.44600971 0.00164951 -0.00025106 0.00393088
O 11.47999680 16.42695446 31.62740724 -0.00689539 -0.00916394 0.00061189
O 9.85386839 23.19136736 17.26597707 0.00059299 0.00135180 -0.00187571
O 15.44470209 22.58019676 25.80969370 0.00269203 -0.00072842 -0.00250977
O 11.58706749 23.00815387 25.70292155 0.00179420 0.00093290 0.00120915
O 14.19502966 21.83635320 17.54313024 -0.00453228 0.00258729 0.00031703
O 15.41439786 15.24888510 31.55946619 -0.00101344 -0.00513886 0.00023326
O 10.15143198 15.92432816 23.14491951 0.00387360 -0.00366715 0.00063118
O 14.81064969 13.77953956 1.06913031 -0.00337241 0.00120370 -0.00215490
O 10.30607210 17.60146786 25.34932226 0.00413340 0.00687087 0.00564493
O 10.88997941 24.36133406 23.58253540 0.00105173 0.00292262 0.00298232
O 14.75523513 20.34003169 15.41743513 -0.00247512 -0.00642108 -0.00056695
O 10.61330622 24.29126906 15.15087251 0.00443411 0.00515494 -0.00410208
O 15.00749795 20.55769680 23.73157478 0.00537079 -0.00401163 -0.00140694
O 14.95856869 13.84881428 25.33327222 0.00155622 -0.00275174 0.00412827
O 10.72311991 18.05511262 0.70528837 0.00211829 0.00340841 -0.00747972
O 22.63034742 2.71631731 6.71249505 0.00832360 -0.00478651 -0.00183790
O 19.51829622 4.01254220 15.38988406 0.00220341 0.00670637 -0.00462462
O 18.75131724 10.16129534 1.91777804 -0.00660987 -0.00295671 -0.00253671
O 24.14548794 9.15189694 9.57356516 -0.00047803 0.00430027 0.00137631
O 18.95490961 10.47632735 9.77055806 0.00228290 -0.00406565 -0.00574273
O 23.13752856 9.31447152 1.30210245 -0.00143195 -0.00609571 -0.00216063
O 23.22490995 2.83990335 15.17417694 -0.00671876 0.00260676 0.00458697
O 18.99519014 3.70829661 7.44356490 0.01476265 0.00179409 0.00145885
O 22.93496797 1.15010135 17.19776545 -0.00262274 -0.00102869 -0.00036889
O 19.20363618 5.49902964 9.21872093 -0.00656098 0.00727211 0.00084824
O 19.45843687 12.08776668 7.84596906 0.00407892 0.00093442 0.00056287
O 23.28955738 7.75003965 32.22143445 -0.00262109 -0.00451007 0.00080600
O 19.32192914 11.54908567 32.44050018 0.00131092 -0.00154506 0.00379545
O 23.30179409 7.76693294 7.48452207 0.00683888 0.00745676 0.00512064
O 23.05694225 1.43819479 8.89083381 0.00875572 0.00591671 0.00089634
O 18.72493044 5.54123792 17.40842049 0.00480511 0.00177647 -0.00035736
O 23.24044419 2.72336995 23.26751419 -0.00014744 0.00264286 0.00248071
O 19.60748299 3.67098815 31.68555931 0.00071381 -0.00036904 -0.00695551
O 18.51241384 10.34072248 17.87099901 0.00419985 -0.00196225 0.00078318
O 23.82705291 9.09380429 26.06421429 -0.00055318 -0.00585909 -0.00258132
O 19.63565098 9.64940011 26.31481546 0.00017490 0.00444631 -0.00293958
O 22.80273913 9.00074521 17.59238962 0.00106606 0.00421346 0.00791435
O 23.88271925 2.96080595 31.66870717 0.01014970 0.00342211 0.00212863
O 18.71535158 3.27789358 23.14229621 -0.00414597 0.00392983 -0.00169110
O 23.97557949 1.37650884 0.87065832 -0.00518415 -0.00030978 0.00152931
O 19.28470078 4.73458163 25.18247620 0.00019947 -0.00426640 0.00471948
O 19.18143787 11.23770375 24.33842240 -0.00382078 -0.00216906 0.00022985
O 23.47662962 7.45243880 15.56506570 0.00598384 -0.00158168 -0.00600177
O 19.42304824 12.19766686 16.00796793 0.00507989 -0.00170840 0.00113810
O 23.13362281 7.90552320 23.80586312 0.00294665 0.00090393 -0.00472022
O 23.49425436 1.15975432 25.36228378 0.00177944 0.00083199 -0.00135552
O 19.55562916 5.12054390 1.23730737 -0.00415067 -0.00397536 0.00201180
O 23.50665969 15.22200796 7.16800513 0.00356094 -0.00248282 0.00468529
O 19.57865998 16.75825997 14.78022631 0.00113330 0.00067016 -0.00033333
O 18.79622540 22.70481108 1.35161526 0.00438047 0.00536134 -0.00277274
O 24.09213672 22.12001616 9.41722665 -0.00088154 0.00374075 0.00081156
O 19.48274844 22.59769830 9.60078317 -0.00120281 0.00009805 0.00261780
O 22.77392534 22.18759783 1.27450190 0.00053955 0.00020087 -0.00079588
O 23.87361771 15.31861647 15.83527822 0.00468913 0.00225281 -0.00458344
O 19.25952909 16.05650882 6.71579720 0.00783887 0.00100893 -0.00085004
O 23.08787871 13.83234961 17.74197163 0.00795084 -0.00574046 0.00357801
O 18.87003519 17.91378324 8.53520231 -0.00041767 -0.00403407 -0.00095424
O 19.28891453 24.29003321 7.50850716 -0.00068166 -0.00096657 0.00376000
O 23.23451772 20.71282145 31.96595635 0.00633237 -0.00272527 -0.00147273
O 19.45927453 24.10108232 31.97023061 0.00260927 0.00027220 -0.00469941
O 23.74478633 20.76454799 7.32749965 -0.00136211 -0.00520243 0.00052026
O 23.78807169 14.27732498 9.43198303 -0.00226987 0.00297331 0.00150890
O 18.92686864 18.41539740 16.97174919 0.01034916 0.00093637 -0.00423763
O 22.87755929 15.53273132 23.61624993 -0.00085547 0.00549656 0.00607897
O 19.34180887 16.19137079 31.28225042 -0.00836131 -0.00298007 -0.00261777
O 18.55631591 22.88407363 17.67047528 -0.00235211 -0.00956454 -0.00195617
O 23.87300396 21.98409580 25.84171287 0.00409573 -0.00084022 0.00048769
O 19.27510458 22.70656937 25.57142098 0.00363117 -0.00521325 0.00295990
O 22.85080699 21.88152903 17.37479029 -0.00036260 0.00294716 0.00141155
O 24.07421060 15.89999426 31.86022407 -0.00345236 -0.00051285 0.00044744
O 18.91159331 16.46104160 23.18284635 -0.00577864 -0.00558242 0.00186390
O 23.82949710 14.05754049 0.79904006 0.00037801 -0.00089770 -0.00444574
O 19.25226515 18.06926856 25.26397591 0.00472161 0.00039842 0.00919508
O 19.11120206 24.54184158 23.81981117 0.00237060 0.00287996 -0.00270233
O 23.39334387 20.39657274 15.39851412 -0.00200247 0.00381668 -0.00191350
O 19.10958621 24.48603152 15.76067799 -0.00052412 -0.00288927 -0.00328169
O 23.26019904 20.51214206 23.65072422 0.00327213 -0.00357408 -0.00044467
O 23.27526955 14.07058243 25.85143281 0.00342249 -0.00346581 0.00534550
O 19.47855574 17.84046705 0.60168642 -0.00544192 -0.00099537 -0.00158706
N 7.83422341 13.06636595 2.75300971 0.00118169 -0.00335505 -0.00580119
N 0.71517877 6.60993133 10.16657183 0.00086835 0.00688702 -0.00731242
N 3.14348463 0.33353373 5.49045836 0.00595130 -0.00228219 -0.00469421
N 4.99072541 6.01376595 13.82401498 -0.00326085 0.00114723 -0.00084805
N 1.23564647 0.36010113 13.69600409 0.00242761 0.00049383 0.00458796
N 7.60945124 6.53890397 5.72969224 -0.00465223 -0.00054580 -0.00086059
N 5.17255225 12.83402226 11.10108554 0.00201769 -0.00047815 0.00158444
N 3.43009337 6.11028184 2.37694386 0.00117666 0.00055814 0.00548412
N 7.26208381 12.69109514 19.25412015 -0.00360049 0.00356463 0.00071327
N 1.13017802 6.20280782 26.76253659 -0.00102167 -0.00066585 0.00360106
N 3.42115422 0.01970654 22.24329885 -0.00034712 0.00498412 0.00113256
N 5.55804820 6.43391533 30.48951271 0.00135959 -0.00388338 0.00151048
N 0.86654695 25.14688838 30.41450495 0.00027878 0.00342036 -0.00248773
N 7.59972536 6.38226113 22.22518063 0.00080044 0.00260809 -0.00256829
N 4.97889269 13.18961754 27.45500116 -0.00525097 0.00014333 0.00142425
N 3.07815009 6.40345672 18.43794215 0.00460202 -0.00159918 -0.00173146
N 7.22825115 25.49420812 1.91970517 -0.00508217 -0.00184667 0.00001130
N 1.17753885 19.39797421 10.81261180 -0.00125232 -0.00091542 0.00562126
N 3.44272112 12.65779828 6.10669511 -0.00218281 -0.01014141 0.00216847
N 5.04087583 19.10563207 13.95578098 0.00153684 0.00708205 -0.00359274
N 0.72657627 12.23955549 14.47937249 0.00253676 -0.00355653 0.00237881
N 7.42831464 19.50907726 5.97550167 0.00302377 -0.00897840 0.00100930
N 5.52134335 0.02789896 10.18024328 0.00144459 0.00605619 -0.00302621
N 3.67246107 18.61434604 2.74166250 -0.00464943 0.00296608 -0.00181719
N 7.15201365 25.41520700 18.30201917 0.00182576 0.00056981 -0.00182738
N 0.64368823 18.98414816 27.21251269 -0.00349733 -0.00132541 -0.00396032
N 3.12196390 12.63601757 22.41509249 -0.00269111 -0.00636350 0.00825990
N 5.17293505 19.21287880 30.44489141 -0.00552278 -0.00272726 -0.00523268
N 0.98151207 12.88244354 30.45220117 -0.00287283 0.00125497 0.00182259
N 7.63097050 19.26623091 22.11775143 -0.00218924 0.00390405 0.00579740
N 5.18030983 25.30905503 26.56112378 -0.00477608 -0.00386679 0.00263971
N 3.25241102 19.13592021 18.97418493 0.00487618 -0.00026997 -0.01098309
N 16.06291214 12.81622352 2.71587066 0.00626724 -0.00214369 -0.00623193
N 9.62282147 6.67331217 10.33786693 0.00080879 0.00856994 -0.00506456
N 11.92963466 25.53636232 5.67832950 -0.00018959 -0.00617547 -0.00245127
N 13.62597633 6.43386125 13.88617800 0.00129828 -0.00172024 0.00058926
N 9.37167224 25.43354622 13.65570524 0.00064056 0.00580955 -0.00407028
N 15.93175713 6.39179033 5.84531544 0.00959883 0.00557529 0.00239376
N 13.61498030 12.98145111 10.84194667 0.00189700 -0.00596138 0.00243358
N 11.81792332 6.15071102 1.93119631 0.00205833 -0.00660231 -0.00188271
N 15.69793223 12.35955455 18.80558701 0.00038610 0.00294719 0.00040937
N 9.55791683 6.38368562 26.46325004 0.00069150 -0.00594198 0.00544519
N 11.73661898 0.02003671 21.94331893 -0.00056325 0.00643866 0.00645870
N 13.84023391 6.43098850 30.00328046 0.00016122 0.00374894 -0.00032686
N 9.36913778 25.48716557 29.97332356 0.00088501 0.00033471 0.00035402
N 16.16819979 6.75275182 21.63144944 0.00332837 0.00360335 0.00212163
N 14.06664952 12.49324592 26.91125036 0.00048391 -0.00212637 -0.00268020
N 11.41306136 6.80645340 18.45994180 0.00406503 -0.00123086 0.00321804
N 16.13292574 25.47353371 2.32860128 0.00304100 -0.00025806 -0.00124428
N 9.28782269 19.43989426 10.48646069 -0.00045385 0.00578783 0.00393671
N 11.69001843 12.99627268 6.00086393 0.00002028 0.00758935 0.00293316
N 13.55246738 19.28421151 13.76737742 0.00456570 -0.00156790 -0.00000235
N 9.08658604 12.28592831 14.37775567 -0.00606348 -0.00392659 -0.00038252
N 15.99962059 19.34950527 5.66137778 0.00362243 0.00195135 -0.00141366
N 13.69501982 0.09451297 10.54909885 0.00088596 -0.00113030 -0.00479606
N 11.75952796 19.17329970 2.40330857 0.00429424 0.00201847 -0.00350501
N 15.92950646 25.47729032 18.79490376 0.00016084 -0.00031509 -0.00757247
N 9.64575585 18.93521146 27.13809073 -0.00249965 0.00307555 0.01007989
N 11.51127727 13.11213585 22.31195250 0.00386231 0.00540035 0.00529982
N 14.02128815 19.19031035 30.06601429 -0.00071495 -0.00358870 -0.00241835
N 9.67593840 12.60550461 30.52884862 0.00369023 -0.00326530 -0.00258840
N 15.99972518 19.31823310 22.07977206 0.00382902 -0.00620674 -0.00052899
N 13.83286244 0.27518767 26.88920885 -0.00160637 0.00645481 0.00572727
N 11.58355779 19.03950353 18.81500561 0.00159275 0.00128668 0.00299139
N 24.76464590 12.70662182 2.37619568 -0.00326940 0.00281410 -0.00078562
N 18.08412503 6.70283341 10.77566142 0.00137620 0.00520462 -0.00318796
N 20.14147375 25.58495216 5.84331566 -0.01054790 -0.00171289 -0.00229208
N 21.98710443 6.56998122 14.04633668 -0.00014203 0.00119558 -0.00329076
N 17.97154825 25.58193522 14.08528145 0.00313594 0.00451481 0.00090293
N 24.40447293 6.56712473 5.87966798 -0.00494529 -0.00134819 -0.00001009
N 22.45995091 13.20651482 10.89249914 0.00308979 -0.00052224 0.00283906
N 20.17033657 6.61286224 2.82719245 0.00244487 -0.00042212 -0.00257883
N 24.48912719 12.72779883 19.21051948 0.00798408 -0.00364223 0.00056129
N 18.47378881 6.17863391 26.73421288 -0.00018728 0.00255412 -0.00211468
N 20.50174064 25.39816691 22.22593694 -0.00086994 -0.00258459 0.00304613
N 22.32194943 6.30424248 30.66902492 -0.00243956 0.00457769 -0.00027054
N 18.18174101 25.28241300 30.40426318 0.00949712 -0.00013968 -0.00393679
N 24.59354499 6.85842487 22.35392497 0.00208391 0.00148846 -0.00458037
N 22.05329231 12.99950084 27.51764194 -0.00183216 -0.00788370 0.00150036
N 20.23772584 6.44260530 18.84783284 0.00249825 -0.00274769 0.00002489
N 24.57106936 25.52688706 2.43018563 -0.00683469 -0.00378103 -0.00530227
N 18.07138977 19.41413524 10.16014479 -0.00016628 0.00473469 0.00153468
N 20.54855499 13.22714685 6.15305412 -0.00532352 0.00308209 -0.00897989
N 22.18516688 19.33861635 13.81917636 -0.00399651 -0.00410281 -0.00147353
N 18.08856467 13.31613658 14.45433487 -0.00254010 0.00844561 0.00044736
N 24.76372985 19.54914438 5.66147617 -0.00525190 -0.00218588 -0.00040923
N 22.22886383 0.08199583 10.43752944 0.00359705 0.00104887 -0.00392990
N 20.27246735 19.15824716 2.28554212 -0.00550803 -0.00205759 0.00154917
N 24.28317668 25.59931520 18.64803211 0.00182625 0.00381748 -0.00224038
N 18.22209394 19.36615152 26.80681857 0.00604276 0.00010202 0.00054124
N 20.29990586 12.39563957 22.72448707 0.00218961 -0.00037185 -0.00388548
N 22.50386297 19.16870213 30.36077123 -0.00014028 -0.00305155 0.00282967
N 18.19012770 12.63661629 30.75396848 0.00487247 0.00566039 -0.00229242
N 24.50859604 19.42791708 22.00807922 0.00592576 -0.01021245 0.00267354
N 22.48467312 0.07032410 27.13182889 0.00115722 0.00613419 -0.00479333
N 20.16029517 19.49432769 18.56927821 0.00292472 -0.00042563 0.00146153
C 7.48811560 0.32634950 4.31556832 -0.00274828 -0.00239153 0.00148135
C 0.65302440 6.38334876 12.59222716 0.00400480 -0.00298394 -0.00173808
C 3.46461280 12.37027782 3.73603640 0.00226994 -0.00032243 -0.00532855
C 5.18323473 6.54113690 11.47906041 -0.00221779 0.00061183 -0.00596323
C 0.95483879 12.26923595 12.10951877 -0.00446245 -0.00316981 0.00471381
C 7.65383765 6.80435401 3.30779011 -0.00324695 -0.00707617 -0.00490694
C 5.03534785 0.60184991 12.37579274 -0.00078557 0.00033075 0.00023633
C 3.41659272 5.75866995 4.74814362 0.01056703 -0.00985241 0.00641390
C 7.36395659 1.14900884 5.37937146 0.00677478 0.00184156 0.00933632
C 0.83455669 5.69051056 13.72974422 0.00054999 0.00567588 0.00366552
C 3.03034129 11.79788084 2.55916258 0.00076701 0.00071317 -0.00096054
C 5.50048012 7.44212329 10.50289818 0.00034445 0.00944095 -0.00076356
C 1.36105049 11.65725979 10.92766026 0.00212159 0.00627780 -0.00357065
C 7.27228075 7.48928415 2.18552382 0.00603961 0.00703815 0.00783509
C 5.25967092 1.31886413 13.49829949 -0.00182387 0.00198983 -0.00635777
C 2.78950702 5.15896636 5.78579762 -0.00640882 -0.00689093 0.00220112
C 6.38759614 2.18025468 5.31706446 0.00226095 -0.00030061 0.00270898
C 1.69385305 4.57669146 13.64920173 -0.00190222 -0.00617177 -0.00132728
C 2.29796761 10.62371653 2.60281272 0.00687074 0.00272118 -0.00212290
C 6.36124033 8.53317873 10.72065458 0.00325865 -0.00073719 -0.00240252
C 2.10630692 10.48059543 10.98687554 -0.00040251 -0.00940582 0.00571178
C 6.63356556 8.77925810 2.24128187 -0.00619931 0.00595648 0.01187453
C 6.19599433 2.34311079 13.49730493 0.00640605 0.00527310 -0.00138449
C 1.84586468 4.13021737 5.65816700 0.00140539 -0.00153868 -0.00289757
C 6.00476715 2.58761072 4.04427936 0.00360312 -0.00210575 -0.00749761
C 2.19724237 4.12919012 12.44399185 -0.00017700 0.00836784 -0.00015958
C 2.09612333 10.01794481 3.82320168 -0.00239637 -0.00173030 0.00369083
C 6.48613238 8.96818608 12.07100504 0.00096714 -0.00455064 -0.00090755
C 2.38558630 9.82985343 12.16581977 0.01422811 -0.00118794 0.00452441
C 6.21075857 9.25918524 3.50028609 0.00200932 0.00681924 0.00358114
C 6.71992591 2.73814173 12.25552438 0.00338392 0.00204940 -0.00095239
C 1.65811761 3.57523869 4.37651426 -0.00440534 0.00083067 -0.00404741
C 6.27511378 1.88453699 2.94204379 -0.00700515 -0.00269591 0.00325581
C 1.81390702 4.72211251 11.29872185 0.00689039 0.00003223 0.00290125
C 2.45104500 10.56926707 5.08903374 0.00458843 -0.00126284 -0.00192084
C 5.98905987 8.17101487 13.04229859 -0.01192183 0.00365930 0.00037999
C 1.93528822 10.37259267 13.36585562 -0.00196653 -0.00504587 0.00183032
C 6.60658913 8.55011577 4.63493228 0.00100508 -0.00218119 0.00092582
C 6.48136878 2.09880331 11.10006261 -0.00097843 0.00387781 -0.00494838
C 2.14593023 4.31911278 3.27675756 -0.00164337 -0.00251332 -0.00649631
C 7.01454032 0.69442700 3.05274710 -0.00077046 -0.00250999 0.00598209
C 1.03179080 5.91983283 11.38116656 -0.00742858 -0.00367275 0.00460069
C 3.09300844 11.82575772 4.96706248 0.01172761 0.00336584 -0.00448127
C 5.40656286 6.90491693 12.82798130 -0.00589920 -0.00769486 0.00425137
C 1.24861007 11.64995598 13.31944085 0.00382074 0.00151776 -0.00524616
C 7.26689515 7.31012307 4.60535620 0.00124215 0.00095420 0.00415381
C 5.64818278 0.95597890 11.15630423 0.00302542 0.00590804 0.00454876
C 2.99762816 5.38694752 3.48294183 0.00651348 0.00691447 0.00277888
C 6.64734108 0.04525575 0.67011267 -0.00320995 0.00632515 0.00184038
C 1.29985192 6.35854968 9.00456959 0.00057668 -0.00563958 0.00173652
C 2.76671417 12.64313508 7.31665840 -0.00669821 0.00087296 0.00287135
C 5.58870256 6.10893791 15.14170836 -0.00418612 -0.00611853 0.00785999
C 1.46423284 12.21663890 15.61547712 0.00394776 -0.00178857 -0.00497300
C 7.07106348 6.78532731 7.01875906 0.00415588 0.00335154 -0.00754686
C 5.78773399 0.16898820 8.86140247 -0.00880562 0.00520682 0.00104465
C 2.80175487 6.11006522 1.12079564 0.00112006 -0.00282977 -0.00364814
C 6.96395320 11.62848021 17.13296464 0.00683337 0.00522853 0.00077037
C 1.39125927 7.57790224 8.01978467 -0.00163044 -0.00543564 -0.00766272
C 2.82494499 1.07511415 7.78012210 -0.00183126 0.00478725 0.00025133
C 6.17848987 5.42428759 32.51205890 -0.00112111 -0.00204736 0.00066352
C 1.54037693 0.78472206 32.34107981 0.00255993 0.00235165 0.00311850
C 6.78634726 5.51359393 7.92336290 -0.00010191 0.00218651 0.00439746
C 5.50823065 11.97355874 8.82657147 0.00188206 0.00435555 0.00163199
C 2.80567295 7.27522838 16.31963940 0.00017642 -0.00188966 -0.00360941
C 7.32069974 0.11287779 20.62121171 -0.00154829 -0.00131103 0.00079870
C 1.14347951 6.12778521 29.12819196 -0.00354870 -0.00480280 -0.00569726
C 3.23506260 12.21410670 20.02126805 0.00533649 -0.00575209 0.00367688
C 5.27044126 6.71077409 28.11164913 0.00544391 0.00454723 -0.00159115
C 0.68985139 12.39443314 28.12319078 -0.00463668 -0.00247425 -0.00811823
C 7.60704158 6.67555012 19.88181072 0.00147531 0.00246480 0.00680962
C 5.01132512 0.14712135 28.88285308 0.00526780 -0.00367084 -0.00797422
C 3.31388954 6.20990123 20.80748435 -0.00387027 -0.00445579 0.00267227
C 7.20392403 0.89366359 21.71795858 -0.00541844 -0.00150649 0.00075706
C 1.33180132 5.42064477 30.28666204 -0.00450572 0.00096588 0.00387476
C 2.89545851 11.38918490 18.98502680 -0.00032636 0.00168802 -0.00707153
C 5.55166103 7.29528964 26.89401770 0.00549350 -0.00049849 0.00262396
C 1.08911258 11.68816631 27.07136005 -0.00166196 -0.00639692 -0.00277019
C 7.29575308 7.36880045 18.71338456 -0.00129598 -0.00379057 -0.00024275
C 5.51578480 0.69673669 30.04295673 0.00009702 -0.00351783 -0.00373337
C 3.09403314 5.62944784 22.00032964 -0.00011840 -0.00000790 -0.00176173
C 6.55329372 2.13491403 21.71942108 0.00151869 0.00367928 -0.00250424
C 1.96194061 4.19122908 30.29821062 0.00336599 -0.00504202 -0.00451839
C 2.06778518 10.28892870 19.13168348 -0.00401537 0.00334617 -0.00244181
C 6.39905117 8.41641347 26.93642268 0.00296074 0.00559193 0.00232577
C 1.94855064 10.51568192 27.17712247 -0.01243417 0.00140389 -0.00109385
C 6.31762357 8.36661931 18.70187265 -0.00179035 -0.00993853 0.00064088
C 6.35567313 1.87855847 30.00858946 0.00457922 0.00498531 -0.00581965
C 2.21105735 4.48806313 22.08952887 -0.00352574 -0.00126152 -0.00714370
C 6.26957600 2.72444565 20.52016941 0.00198095 -0.00463087 0.00202545
C 2.34699625 3.66579050 29.08387188 -0.00542526 0.00653432 0.00224023
C 1.84025414 9.81363180 20.42972896 0.00462730 0.00051186 0.00144448
C 6.68318130 9.02997634 28.12107902 -0.01065405 0.00647771 0.00679496
C 2.37268753 10.06809463 28.42880625 -0.00349743 0.00228909 0.00471233
C 6.03377082 8.91313229 19.99377970 0.00061609 -0.00331087 -0.00308672
C 6.58060097 2.46892567 28.72413975 0.00797087 0.00198119 -0.00763704
C 1.71525073 3.93172032 20.90575437 -0.00211661 0.00238501 -0.00237987
C 6.58195389 2.03034518 19.31406295 -0.00401504 0.00388122 -0.00566185
C 2.14068014 4.26782180 27.88873940 -0.00407718 0.00539302 0.00128361
C 2.15625635 10.50382947 21.52065258 0.00852085 -0.01051877 0.00506300
C 6.36282917 8.41702570 29.34013666 -0.00092277 -0.00315737 0.00286122
C 1.99426832 10.80703439 29.56759680 -0.00406022 0.00598050 -0.00094274
C 6.46559892 8.31706907 21.12137014 -0.00439076 0.00336095 0.00716377
C 6.22816515 1.75433316 27.58474873 -0.00231543 0.00385561 0.00347583
C 2.02340776 4.50765757 19.65016782 -0.00392187 -0.00141670 -0.00501566
C 7.01800458 0.66758985 19.32438756 0.01022948 0.00275326 0.00240000
C 1.51849355 5.59251264 27.90146680 0.00478179 0.00189056 0.00268486
C 2.86488795 11.77203649 21.32498060 -0.00018697 0.00660825 -0.00125116
C 5.75610878 7.18691276 29.34825822 0.00191517 0.00472236 0.00043464
C 1.20455102 11.98382476 29.41534395 -0.00783643 0.00714320 -0.00491416
C 7.22814058 7.14546423 21.13237265 -0.00183559 0.00208616 0.00383767
C 5.47232312 0.52969634 27.62968132 -0.00306795 -0.00623375 -0.00565899
C 2.82579827 5.67737575 19.56550117 -0.00150995 0.00442866 -0.00099806
C 6.74812352 0.02960584 17.04539100 0.00353564 -0.00048204 0.00968844
C 1.90908216 6.10962866 25.60300859 -0.00446667 0.00395015 0.00235307
C 2.65227051 12.53119302 23.64887633 0.00645433 -0.00480660 -0.00111938
C 6.17718026 6.64984391 31.66166227 0.00044739 0.00332719 0.00401328
C 1.43840451 12.68084414 31.71701124 -0.00526009 -0.00233722 -0.00524950
C 7.05326774 6.65102833 23.46432785 0.00132821 -0.00395573 0.00207264
C 5.80433510 25.46895937 25.36998114 -0.00367658 0.00333607 0.00766204
C 2.51966451 6.15180754 17.24918546 -0.00022425 0.00061934 0.00260280
C 7.56269226 12.12058826 0.57944109 0.00280796 0.00278365 -0.00490972
C 1.49657713 7.20787313 24.61983130 -0.00290596 0.00733176 -0.00698259
C 3.16586328 1.20838247 24.30565284 -0.00195359 0.00765944 0.00204749
C 5.47957668 4.92571049 16.00380065 0.00528352 0.00054784 0.00737122
C 1.14372694 1.43058943 15.89200872 -0.00355776 0.00507630 -0.00454142
C 7.28416149 5.43450085 24.36624106 -0.00547429 -0.00134159 0.00519001
C 5.43713066 11.99729989 25.33126175 -0.00306898 0.00202066 -0.00240926