1920
Time=91000.00000003 pbc="T T T" Lattice="25.43989987 0.00000000 0.00000000 0.00000000 25.62898387 0.00000000 0.00000000 0.00000000 32.93422996" energy=-12252.34095788 virial="-46.97399701 40.26565794 -11.45866131 40.26565794 -38.67961904 -11.37043186 -11.45866131 -11.37043186 -9.41311706" stress="-0.00006895 0.00188775 -0.00052685 0.00188775 0.00031062 -0.00059750 -0.00052685 -0.00059750 0.00168567" Properties=species:S:1:pos:R:3:vel:R:3
O 6.30685452 3.14491548 7.35324117 -0.00136712 -0.00348741 -0.00118126
O 2.66181324 3.73311061 15.33248942 -0.00161057 -0.00538255 -0.00221838
O 1.46607916 10.10052373 1.46659743 0.00405628 -0.00037328 -0.00313447
O 6.88199868 9.08091000 9.86575194 0.00183507 0.00606846 0.00521831
O 2.57978770 9.96584335 9.39431230 -0.00083232 0.00152402 -0.00568929
O 5.87327797 9.10049490 1.42604607 -0.00399023 0.00461976 0.00699736
O 6.97911473 2.75422742 15.25494064 -0.00373524 -0.00271500 0.00212049
O 1.44340791 3.29449115 6.77086635 -0.00166258 -0.00590652 -0.00090532
O 6.44507780 1.12495395 17.26042698 0.00525564 -0.00259836 -0.00190865
O 2.13285927 4.83338063 9.09922822 -0.00383464 -0.00375588 -0.00065158
O 2.56801242 11.56056968 7.46122148 0.00198668 -0.00146745 -0.00216418
O 6.53479853 7.81714352 32.29229935 0.00546912 0.00280446 0.00094039
O 1.56337382 11.68782072 32.16881488 -0.00443767 -0.00134427 0.00512003
O 6.38596265 7.79602498 7.70745046 0.00017782 -0.00064057 0.00285543
O 6.26988601 1.25936969 9.22932890 0.00196274 0.00053887 -0.00027499
O 2.20204960 5.37945035 17.36470086 0.00265209 0.00799093 -0.00558103
O 5.67585689 2.32242031 23.54141781 -0.00297329 -0.00019354 0.00200435
O 2.76031099 3.80301291 31.85168866 0.00277142 -0.00042359 0.00063928
O 1.73295500 10.02837819 17.53542888 -0.00879664 -0.00084399 -0.00631590
O 7.11166623 8.78445105 26.06671325 0.00145464 0.00095113 0.00193068
O 2.65978348 10.20234538 25.85831500 0.00069124 0.00166333 -0.00381813
O 5.96900786 9.44012403 18.04082175 -0.00082120 0.00363414 0.00031361
O 6.76822815 2.55926185 31.99464761 0.00409121 0.00151033 -0.00313750
O 1.49289387 3.61174957 23.39073065 0.00276321 0.00545087 0.00311569
O 6.37072362 1.33742725 1.26823953 -0.00263952 -0.00018775 0.00713572
O 1.34467004 5.05653037 25.54664933 -0.00429592 -0.00132670 0.00728793
O 2.79905117 11.56149445 23.77100202 -0.00404855 -0.00187768 0.00139594
O 6.04467611 7.80096941 16.13412173 -0.00591500 -0.00213978 0.00186698
O 2.04592663 11.55369434 15.47033061 -0.00454572 0.00095052 -0.00592232
O 6.19498819 7.55538066 24.05145693 0.00702365 0.00047072 -0.00129692
O 6.39424984 1.16884221 25.71598447 0.00270509 0.00813197 0.00289532
O 2.36270524 5.35265626 0.79943060 0.00152684 -0.00132377 0.00154927
O 5.68268610 15.44662350 6.79932262 0.00201646 0.00052547 0.00277648
O 3.06966670 16.40143782 14.81045680 -0.00425909 0.00296762 -0.00001600
O 1.11373975 23.38007981 1.56361155 0.00738319 -0.00560604 0.00609756
O 7.39632065 21.85809475 9.52521222 0.00303173 -0.00343132 -0.01067720
O 2.85978040 23.10924168 9.95606443 0.00105069 -0.00721195 0.00186874
O 5.68453129 21.84709507 0.97804265 0.00118210 -0.00726089 0.00192988
O 6.72717386 15.63528452 15.12026325 0.00349273 0.00029759 0.00733342
O 1.81241436 16.62174983 6.66137359 -0.00423057 0.00251154 -0.00051802
O 6.80893687 14.02372870 17.09708400 -0.00040310 0.00076526 0.00598065
O 2.43806326 18.31541281 8.83386441 0.00422070 -0.00020735 -0.00474029
O 2.34972367 24.48814505 7.70193208 0.00333228 -0.00309551 0.00394765
O 6.49451607 20.47098469 31.77127950 0.00152971 0.00205290 0.00500869
O 1.87684534 24.42452718 32.30693773 0.00531317 -0.00096286 -0.00030840
O 6.57095377 20.63718295 7.34126234 -0.00170366 -0.00127636 -0.00197614
O 6.48538071 14.01014953 8.86529846 -0.00352505 -0.00405305 0.00537946
O 2.46931967 17.63179211 16.97881185 -0.00656573 0.00582365 0.00126977
O 5.46303970 15.51279793 23.04136494 0.00406649 0.00428960 -0.00037263
O 2.49782530 16.54028563 31.42703634 -0.00331059 0.00326747 -0.00375632
O 1.73580852 22.35763474 18.00278122 0.00967910 0.00271420 -0.00133152
O 6.69769006 21.83784134 25.69754404 0.00128610 -0.00198542 -0.00282491
O 2.60262551 22.85677899 26.21817536 0.00795284 -0.00119905 -0.00080503
O 5.58998489 21.85430728 17.67480850 -0.00021840 0.00254819 -0.00220882
O 6.94244803 15.45468529 31.47917309 -0.00611032 0.00721240 0.00257238
O 1.63677353 16.62537308 23.32414919 0.00028334 0.00363529 0.00161814
O 6.07971652 14.18978836 0.65462993 -0.00541863 -0.00156504 -0.00585789
O 2.38581747 18.04074997 25.32049540 -0.00136387 -0.00104896 0.00025363
O 2.71724425 24.34612820 23.97770132 0.00461721 -0.00179464 0.00402856
O 6.49959965 20.58226328 15.63028051 -0.00351252 0.00205473 0.00378679
O 2.07057251 24.14788656 16.10401648 0.00331870 0.00038752 -0.00063539
O 6.26317854 20.41452461 23.56293958 -0.00180268 -0.00112141 -0.00168603
O 5.99346892 14.13517488 25.15019601 0.00059499 -0.00168786 -0.00334174
O 1.76709747 18.06375508 0.43032223 0.00238769 0.00404643 -0.00266962
O 14.46372251 3.13737736 7.11303740 -0.00484349 -0.00368175 0.00226812
O 10.71147059 3.51752018 15.30363525 -0.00144826 0.00425044 -0.00451893
O 10.11311876 10.31803049 1.02505098 -0.00448852 -0.00268607 0.00031957
O 15.80259917 8.96279673 9.61107064 -0.00373219 0.00744413 -0.00753012
O 11.45687737 10.54106626 9.66897488 -0.00351130 0.00199759 -0.00598868
O 14.37192955 9.23879778 1.09917581 0.00370313 -0.00196342 -0.00042085
O 15.11098993 2.39343947 15.30769186 0.00480913 0.00477044 0.00128098
O 10.38347982 4.11937611 7.17446628 0.00850727 0.00521263 -0.00050687
O 14.68347674 1.10316797 17.58471531 -0.00278626 0.00088338 0.00577557
O 11.05296233 5.41522210 9.37367170 0.00553152 -0.00099545 0.00424270
O 10.66127585 11.70219176 7.43830720 0.00223256 -0.00604586 0.00211392
O 14.67787810 7.63684156 32.13869410 0.00377449 0.00577035 -0.00681924
O 10.78496884 11.83525746 32.13177474 -0.00328993 0.00205846 -0.00464378
O 14.81994982 7.95551483 7.29397752 0.00464628 0.00509875 -0.00446590
O 14.14672210 1.35436986 8.93772334 0.00246810 -0.00126468 -0.00238866
O 10.30156148 4.98429779 17.31042048 0.00154798 -0.00108195 -0.00877306
O 14.15587054 2.85632285 23.74256720 -0.00224616 0.00148590 -0.00412188
O 11.21003253 3.72551299 31.93790098 0.00124024 0.00269660 0.00026101
O 10.05315677 10.12282715 17.84940258 0.00012328 0.00084863 0.00249856
O 15.21522665 9.36842598 25.84122127 0.00513246 0.00542635 -0.00343330
O 10.88656432 10.15331163 26.05757100 0.00306169 0.00376035 -0.00222181
O 14.66089524 8.80229258 17.69926995 0.00123117 -0.00679380 -0.00504972
O 15.28707699 2.75904600 31.86373295 -0.00507622 0.00250799 0.00398196
O 10.24122147 3.67887146 23.43053331 0.00096425 0.00335873 0.00218456
O 15.00438422 1.37543241 1.14139458 0.00269836 -0.00459614 0.00457083
O 10.31755883 4.99648098 25.65157515 0.00160993 0.00782127 0.00781324
O 10.64654111 11.86916581 23.83385128 -0.00118005 -0.00227053 -0.00300233
O 15.07803180 7.45880607 15.57209982 0.00121630 0.00629056 -0.00037376
O 10.69799403 11.77072288 15.86177016 -0.00135167 0.00238512 -0.00140997
O 15.05248759 7.39901243 23.94266340 -0.00033429 0.00203130 0.00173718
O 14.19687371 1.21484734 25.72036856 0.00061214 0.00356048 -0.00019281
O 10.40338173 5.47434273 1.00975212 0.00266103 -0.00142238 0.00231717
O 14.46436633 15.74814556 7.05025433 -0.00747630 -0.00089136 -0.00048218
O 11.22325738 16.63666710 14.93808416 0.00613904 0.00180046 -0.00494971
O 10.15581655 22.38732268 1.29846509 -0.00186055 -0.00142177 0.00739827
O 15.19207647 21.90953947 9.37540592 0.00128606 -0.00300283 -0.00074178
O 11.01298676 23.33953948 9.70152016 0.00099722 0.00633391 0.00249138
O 14.33269881 21.84942702 1.11216957 -0.00109301 -0.00199250 -0.00469512
O 15.43370919 15.30472593 15.07062798 0.00608398 -0.00027127 -0.00241025
O 10.10361809 16.61160953 6.76328505 0.00218582 -0.00420440 -0.00432249
O 14.88947229 13.86974046 17.44358394 -0.00069703 -0.00898052 0.00362875
O 10.95915011 18.04363870 8.60303140 -0.00437556 0.00526419 0.00779905
O 10.57145960 24.54573289 7.37134984 0.00260598 -0.00130330 -0.00647465
O 14.87945947 20.24552316 32.02636526 0.00822311 -0.00367662 0.00113137
O 10.04621300 24.28176207 32.43024028 -0.00291010 0.00113809 0.00433682
O 14.46422582 20.46273445 7.35168696 -0.00203219 -0.00441466 0.00020092
O 15.15812132 13.87964842 8.82593850 -0.00592697 -0.00477097 0.00422333
O 10.35235258 18.08835641 16.91922933 0.00065205 0.00331747 -0.00069625
O 14.10525264 15.65611109 23.43718771 0.00146542 -0.00661543 0.00210788
O 11.07841180 16.35181935 31.21171316 -0.00732318 -0.00242427 0.00381522
O 10.47309050 22.63917260 18.01673997 0.00103018 -0.00184650 -0.00529435
O 15.70169890 21.91729356 25.99032934 -0.00058611 0.00193247 0.00300327
O 10.85460198 22.58404613 26.13694935 -0.00457402 -0.00901987 -0.00316904
O 14.18096471 21.69788969 17.60799975 0.00256809 -0.00012930 0.00231930
O 15.40974486 15.33834421 31.82225972 0.00697346 -0.00508545 -0.00263973
O 10.04469666 16.65658772 22.96798576 -0.00482463 -0.00889186 0.00165346
O 14.68205889 14.05649390 0.92984253 -0.00572805 -0.00224029 0.00116793
O 10.57129287 17.88419119 25.01490803 0.00579869 0.00118161 0.00357673
O 10.98108895 24.36687315 24.17388252 0.00539850 -0.00053395 -0.00234488
O 14.89165764 20.28851158 15.45458292 0.00645108 0.00696477 0.00207138
O 11.05881825 24.54411073 16.18138928 0.00030201 -0.00456826 0.00102080
O 15.06039379 20.45944700 23.85136831 0.00585489 0.00863014 0.00201861
O 14.37478703 14.20798266 25.64057191 -0.00385632 0.00191894 -0.00473070
O 10.99494148 17.77354556 0.48802591 -0.00200126 -0.00103251 0.00216948
O 22.97650296 2.50446239 7.34680984 -0.00373995 -0.00191969 0.00376520
O 19.26115790 3.59726004 15.35177048 -0.01054238 0.00031907 0.00361354
O 18.43637058 10.33984183 1.18238815 0.00387336 -0.00234387 -0.00668761
O 24.03802919 9.03722498 9.61945656 -0.00467767 0.00126511 -0.00003755
O 20.04231658 9.89727123 9.45389149 0.00513191 0.00147616 0.00337740
O 22.53763101 9.07585296 1.34797728 -0.00052180 0.00270733 -0.00363591
O 23.96147386 2.37027986 15.45657066 0.00622307 -0.00174328 -0.00065293
O 19.10770805 3.39879131 6.84322582 -0.00327099 -0.00507844 -0.00370904
O 23.01368992 1.20972715 17.53803091 0.00101325 -0.00206275 0.00585341
O 19.21272126 4.95444174 8.97160285 0.00306314 -0.00414883 -0.00326172
O 19.69472803 11.41593352 7.49926963 0.00311695 0.00467479 -0.00499702
O 22.81598071 7.90740172 31.94049719 -0.00167800 -0.00091818 0.00022062
O 19.01812957 11.56896167 31.90136615 0.00451971 0.00471219 -0.00866547
O 23.60412785 7.42658939 7.56180614 -0.00410824 -0.00292957 -0.00318914
O 23.44819490 0.88844140 9.14702546 -0.00054912 0.00444381 -0.00232425
O 18.82477748 5.19307292 17.22867912 0.00375971 -0.00508519 -0.00312870
O 22.85526711 2.49292481 23.84564006 -0.00129612 0.00331103 -0.00356469
O 19.60599933 3.62054903 31.44452507 -0.00551895 0.00352693 0.00132771
O 18.45592422 10.07177732 17.63294418 0.00591792 0.00364092 -0.00151280
O 24.07623025 9.07636094 25.88763516 -0.00389591 0.00116393 -0.00014255
O 19.25397373 10.10342012 25.71248929 -0.00411190 -0.00013936 0.00098429
O 22.39720927 9.20990406 17.76766650 0.00193627 0.00052723 0.00490137
O 23.64283987 2.93034932 32.10107582 -0.00142221 0.00593928 -0.00372696
O 19.25290116 3.38562117 23.37060639 -0.00662336 -0.00036536 0.00101755
O 23.02714403 1.60453738 1.16100059 0.00194267 0.00397714 0.00331369
O 19.07869879 5.01040137 25.32047235 -0.00007806 0.00033701 -0.00447108
O 19.00051495 11.97318363 23.82274634 0.00364623 0.00185572 0.00137864
O 22.77525385 7.54887410 15.74871339 -0.00226016 0.00569664 -0.00221807
O 18.89216876 11.56555070 15.50389973 -0.01063935 0.00021773 0.00114447
O 23.19971333 7.66070738 23.82380542 -0.00630238 0.00699334 0.00426892
O 23.61772571 0.95871777 25.88078318 0.00096280 -0.00553731 -0.00063780
O 18.87858794 5.25139248 0.51653701 0.00049762 -0.00046066 0.00000970
O 22.67902966 15.38170232 6.78627191 0.00174829 -0.00777570 -0.00096457
O 19.56632691 16.24821312 15.14055481 0.00522297 0.00189412 0.00201524
O 18.62691350 22.81874078 1.71025617 -0.00122564 -0.00263038 0.00028494
O 24.16375451 21.46291863 9.31474843 0.00111431 -0.00506752 0.00081204
O 19.42839198 22.74099697 9.89506467 -0.00222172 -0.00119481 0.00028128
O 22.50171249 22.12046351 1.25122785 -0.00009047 -0.00086731 0.00207091
O 23.70320650 15.64514984 14.80191662 0.00264825 -0.00337023 0.00063221
O 18.59437888 16.38028999 6.76935272 -0.00086367 -0.00465798 -0.00572080
O 23.74193734 14.15391273 16.98370999 -0.00139868 -0.00153557 0.00361088
O 18.82051569 17.87105242 8.81296880 -0.00051760 0.00022636 -0.01019002
O 19.31343087 24.18880462 7.86862246 -0.00046427 0.00136448 -0.00414922
O 22.61400062 20.96229432 31.92432704 -0.00016391 -0.00637358 0.00630837
O 19.07549939 24.53406941 32.57907196 0.00453393 0.00585053 0.00014922
O 23.25864923 20.39205840 7.12711024 -0.00422711 -0.00520914 0.00314479
O 23.60422034 13.74847568 8.50305995 -0.00297755 0.00561583 0.00665913
O 18.90733406 18.01778198 17.15528828 -0.00224785 0.00368222 0.00354661
O 23.22040010 15.53155123 23.20863638 0.00008512 0.00034520 -0.00029137
O 19.22821633 16.83166457 31.75950979 0.00341430 -0.00275153 0.00046226
O 18.70155308 22.91819695 18.01865069 0.00452930 -0.00399406 0.00136926
O 24.37371587 21.83256066 25.95694243 -0.00013497 -0.00248184 -0.00358567
O 19.44478471 22.87909177 26.38687986 -0.00352758 -0.00040254 0.00007405
O 22.96918720 21.73649760 17.72795791 -0.00648209 -0.00119700 -0.00780966
O 23.57182403 15.87512859 31.47408268 -0.00127356 0.00224762 0.00032310
O 18.76583952 16.40251447 23.25735990 0.00222321 -0.00035839 -0.00601699
O 23.19243058 14.09077228 0.58050000 0.00126797 0.00307919 -0.00209517
O 19.02856869 17.91842963 25.33710516 -0.00832556 -0.00645510 0.00036978
O 19.15239821 24.25671781 24.23599225 0.00500562 -0.00254919 -0.00001318
O 23.49884834 20.40766924 15.50366091 -0.00119197 -0.00299968 0.00788618
O 19.14966386 24.41423357 16.05845173 -0.00062367 0.00601894 0.00406324
O 23.52537402 20.56172054 23.81404251 -0.00062398 0.00412601 0.00034701
O 23.30192302 14.04353844 25.29860342 0.00239385 -0.00022797 -0.00442658
O 18.87361250 18.33506472 0.84686614 0.00018897 0.00446817 -0.00195519
N 7.50068668 13.21448953 2.12645646 0.00508754 0.00726261 -0.00064824
N 1.03796395 6.16429288 10.65012968 0.00333119 0.00237412 -0.00265003
N 3.24380375 0.09428454 6.04031177 -0.00751044 0.00464861 0.00123029
N 5.18356625 6.51627061 14.42631310 0.00242443 0.00002609 -0.00173044
N 0.62710851 25.04688289 14.57772510 -0.00117871 0.00323782 -0.00021873
N 7.70591978 6.62307450 6.21266499 0.00070716 0.00282100 -0.00653304
N 5.57415599 12.69481752 10.55742140 0.00377865 0.00222438 0.00333061
N 3.23550249 6.50186026 2.54687789 0.00809140 0.00158486 0.00089864
N 7.77818842 12.77981834 18.79676955 0.00373186 -0.00241926 0.00241972
N 0.73194127 6.25689203 27.38580355 -0.00173915 0.00056260 -0.00088314
N 3.33103311 25.62383143 22.20816995 0.00332747 0.00472935 0.00344100
N 5.11803738 6.84607379 30.79932118 0.00294846 0.00317632 0.00575026
N 0.87013005 0.07055027 30.69151102 -0.00150080 0.00440125 0.00048743
N 7.50429330 6.51701096 22.48741977 0.00166697 -0.00112841 -0.00012831
N 5.21204632 12.85358322 26.88872409 0.00625845 -0.00052046 0.00409674
N 3.11055468 6.61357841 19.10291389 -0.00071953 -0.00580595 0.00341924
N 7.27946042 25.62742006 2.92020937 0.00583387 0.00010571 -0.00246665
N 1.07844358 19.09461431 10.50251165 -0.00131186 -0.00289064 -0.00635359
N 3.34273743 12.93280606 5.87656500 -0.00506941 -0.00146349 0.00153228
N 5.68976912 19.28590774 13.96924845 -0.00095884 0.00170802 0.00422469
N 1.24156782 12.93097416 13.80836676 0.00076827 -0.00302532 -0.00223831
N 7.25609532 19.27356829 5.60483439 0.00330913 -0.00280545 -0.00107871
N 5.39558488 25.54124823 10.85534836 -0.00458841 0.00247545 -0.00383608
N 3.07866597 19.23693981 1.92322193 0.00282466 -0.00070360 -0.00362432
N 7.80412845 0.11819415 18.84226596 -0.00144508 -0.00097288 -0.00094985
N 0.97239342 19.11079592 26.81033727 -0.00298583 0.00550484 0.00213892
N 3.38666990 12.90997824 22.03337233 -0.00197264 -0.00524701 -0.00384169
N 4.95857091 19.47305094 30.32773500 0.00351533 0.00040560 -0.00318639
N 0.70258954 12.71046512 30.38329960 -0.00008678 0.00023964 -0.00293348
N 7.58155583 19.20481929 22.02956207 0.00503870 -0.00811448 0.00209132
N 5.03869801 0.25181278 27.24331279 -0.00211228 -0.00003593 0.00676704
N 3.37447289 19.00771223 18.61746594 0.00015149 -0.00593314 0.00341834
N 15.84386538 12.76234554 2.42459333 -0.00020981 -0.00461759 -0.00292331
N 9.68344496 6.50898882 10.76274296 0.00476426 0.00338060 -0.00224003
N 11.57991805 0.01711829 5.64045277 -0.00856860 0.00507952 0.00381634
N 13.67236242 6.47576402 14.05527487 0.00081171 0.00098919 0.00425371
N 9.72525914 25.50042131 14.59875228 0.00776525 -0.00090489 -0.00820950
N 16.24366953 6.98639851 5.71159717 0.00140457 -0.00088917 -0.00303480
N 13.82197186 12.74312271 10.37056958 0.00150480 -0.00258724 -0.00369105
N 11.93321905 6.49022520 2.38465725 -0.00019134 0.00153885 0.00346730
N 15.86252908 12.69692395 19.15957126 -0.00393781 0.00069732 0.00869051
N 9.22430086 6.18759356 27.27820662 0.00194845 0.00040383 -0.00595734
N 11.66163919 0.10501433 22.45051502 -0.00400087 -0.00299114 -0.00027365
N 13.56768160 6.65397642 30.32859494 -0.00179703 -0.00056749 0.00311156
N 9.06895717 25.29615780 30.63942809 0.00434292 -0.00466094 0.00353599
N 15.90278696 6.11048344 22.29629159 0.00556006 0.00447313 -0.00462638
N 13.50936097 12.96199374 27.33171650 0.00152702 0.00392175 -0.00062080
N 11.87578431 5.94476467 18.69688693 -0.00085826 0.00124868 0.00863085
N 15.90360114 0.10262325 2.78205179 0.00259371 0.00287469 -0.00423692
N 9.63555184 19.06146500 10.24963685 0.00376205 -0.00111980 -0.01262777
N 11.71601534 12.81689102 5.76574587 -0.00041627 -0.00348343 -0.00081336
N 13.54407764 19.18271695 13.95771673 -0.00253366 -0.00162697 0.00423371
N 9.60714792 12.91368596 14.24320917 -0.00481495 0.00428364 0.00139032
N 15.60993231 19.19273901 5.83877196 0.00815811 0.00233995 0.00107488
N 13.87455315 25.38903327 10.59275691 -0.00053094 0.00245044 0.00224321
N 11.64422139 19.22888262 2.10777936 0.00774751 0.00070147 0.00717087
N 15.91840557 0.08558568 19.28488548 -0.00163530 -0.00309063 0.00211155
N 9.37391662 19.07640419 26.64951434 -0.01154177 0.00163210 -0.00639186
N 12.04143196 12.84990549 22.32008272 0.00004730 0.00012027 0.00357157
N 13.62187401 19.23872532 30.37782839 -0.00209689 -0.00157188 -0.00445179
N 9.57601653 13.01762722 30.63223889 0.00125210 0.00170856 -0.00146664
N 16.11121557 19.25979360 22.17031898 0.00584022 0.00074786 -0.00376722
N 13.34067602 25.59319546 27.45406328 -0.00345842 -0.00051182 0.00161130
N 11.87610301 19.08785275 18.36749339 0.00605128 -0.00211717 -0.00085144
N 24.43317031 12.87002330 2.22311770 -0.00576763 -0.00025743 0.00435430
N 18.12873705 6.26110070 10.53002322 0.00281395 -0.00001959 -0.00047429
N 20.15256695 25.57580803 6.21240981 -0.00059866 0.00192153 -0.00151205
N 22.28865653 6.14114361 14.00380283 -0.00191308 0.00510408 -0.00102299
N 18.26268090 0.04280879 14.40141196 -0.00064417 -0.00294227 -0.00398219
N 24.86240233 6.70622204 5.83094316 0.00069115 0.00182566 -0.00276689
N 22.49642731 12.63946489 10.19494811 -0.00205620 0.00501578 0.00557372
N 20.02686313 6.25282210 2.27340937 -0.00051588 -0.00234641 0.00090642
N 24.66790687 12.86218713 18.61035842 -0.00112473 0.00136894 -0.00599117
N 18.04515052 6.28543493 26.90125997 0.00118283 0.00434004 0.00223458
N 20.30522634 25.50752925 22.72525470 -0.00376333 -0.00346320 0.00219279
N 21.97230296 6.52397969 30.32196860 0.00793073 -0.00411536 0.00258581
N 17.67847456 25.38902539 30.94250340 0.00140473 -0.00129440 -0.00947351
N 24.42919542 6.63158265 22.20081850 0.00227078 -0.00066633 -0.00203396
N 22.06107837 12.96474422 26.95267703 -0.00106642 -0.00275457 0.00448395
N 20.10871275 6.35102199 18.73907339 -0.00255576 -0.00498924 0.00788576
N 24.27541617 0.22414776 2.48575484 -0.00383151 0.00157993 0.00361493
N 18.18751569 19.23576123 10.59092314 0.00095341 0.00003383 -0.00543760
N 20.30389159 12.90958640 5.86671676 0.00107770 -0.00074987 0.00246006
N 22.33769484 19.24246047 13.86987933 -0.00342796 0.00237732 0.00104715
N 17.83428130 12.64974885 13.80647239 0.00130125 0.00081785 -0.00189100
N 24.48672409 19.21996279 5.49523072 -0.00782697 -0.00248904 0.00193384
N 22.00598748 0.04296632 10.83873908 -0.00347540 -0.00564477 0.00423005
N 19.66626062 19.66371564 2.45589812 -0.00418020 -0.00049400 0.00396094
N 24.38227729 0.20133033 19.07531685 -0.00221660 -0.00533532 -0.00175550
N 17.85311577 19.06543477 26.90573888 -0.00025575 -0.00455975 -0.00390421
N 20.34928964 12.77245735 22.13703111 0.00333299 -0.00266190 -0.00625451
N 21.75704987 19.48560971 30.28226549 -0.00331339 0.00163906 -0.00551562
N 17.77738628 12.80582240 30.36125625 -0.00321479 -0.00592018 0.00284641
N 24.53266665 19.13111278 22.31892337 -0.00468418 -0.00349509 -0.00209474
N 22.19523283 0.11803423 27.50084133 0.00327800 -0.00494249 -0.00147992
N 20.37342233 19.08464372 18.52681538 0.00675973 -0.00371908 0.00102847
C 7.46314799 0.46747643 5.25896232 0.00207271 -0.00096211 0.00212625
C 0.96901740 5.99203687 13.01264418 -0.00004845 -0.00272855 0.00263708
C 3.15649326 12.66985278 3.46547773 -0.00919323 0.00230767 -0.00436823
C 5.11791151 6.92473764 12.04043513 0.00040389 0.00096076 0.00557211
C 1.07294543 12.43625635 11.54209709 -0.00043274 0.00133283 -0.00584652
C 7.56240882 6.73926934 3.76301935 -0.00442681 -0.00556705 -0.00250629
C 5.14107795 0.40345900 13.17413699 -0.00474265 0.00438744 0.00556496
C 3.40040003 5.71546506 4.82162660 -0.00534116 -0.00362174 -0.00379875
C 7.27063382 1.27355130 6.35865593 -0.00246250 0.00345497 0.00142512
C 1.46423750 5.42259481 14.20856763 0.00327203 -0.00504282 0.00557532
C 2.86692371 11.86809786 2.37432859 -0.00851821 -0.00650314 -0.01023412
C 5.38678205 7.67096308 10.93157483 -0.00423475 -0.00042118 0.01154311
C 1.35766316 11.71936943 10.38655550 0.00535498 -0.00010140 0.00508399
C 7.15894868 7.34225083 2.54550153 0.00771848 0.00514697 0.00151798
C 5.48737314 1.15587673 14.27011720 0.00874444 -0.00106335 -0.00222721
C 2.99725643 4.94470475 5.91533357 -0.00705044 0.00900486 0.00414960
C 6.51169809 2.45585333 6.26779292 -0.00892590 -0.00459326 -0.00385850
C 2.15407983 4.20728656 14.15403302 0.00088252 -0.00066084 0.00585217
C 2.03093676 10.70452003 2.55203204 0.00463134 -0.00593441 0.00539817
C 6.36831042 8.65528294 10.99957218 0.00160678 -0.00471515 -0.00234367
C 2.17747592 10.56276431 10.49463630 -0.00249524 -0.01142398 -0.00334549
C 6.40546739 8.55502083 2.55027354 0.00354547 -0.00465713 -0.00108330
C 6.40257424 2.22999727 14.17293322 -0.00216457 -0.00394128 0.00227557
C 1.98898545 3.99894211 5.74639592 -0.00553379 0.00175048 -0.00369306
C 6.01130704 2.84610729 4.96790576 -0.00075316 -0.00618500 0.00679234
C 2.25140352 3.52185301 12.92823100 0.00157095 -0.00706541 0.00298857
C 1.96489062 10.14717567 3.82106857 0.00214459 -0.00538764 -0.00462144
C 6.74005978 9.16113311 12.27778629 -0.00103579 0.00443577 -0.00373913
C 2.57083722 10.10537651 11.74659430 -0.00412422 0.00158730 0.00085069
C 6.23207616 9.18794729 3.85557972 -0.00739204 0.00321442 0.00029698
C 6.60817180 2.74199108 12.86618820 -0.00341843 0.00691224 0.00076307
C 1.74030900 3.58515324 4.41716400 -0.00915567 -0.00669736 0.00276531
C 6.35210247 2.11209113 3.83690924 0.00555515 -0.00090526 0.00002847
C 1.95311151 4.18409982 11.77388856 0.00078917 -0.00351645 -0.00511514
C 2.24639014 10.96781924 4.90661255 -0.00433975 -0.00095188 -0.00100906
C 6.34075803 8.52066696 13.43080609 -0.00224245 -0.00380715 -0.00048937
C 2.24520849 10.83266801 12.87002240 0.00278084 0.00100942 0.00367462
C 6.73035732 8.67331594 5.02541685 -0.00081002 0.00073354 -0.00845221
C 6.19499808 1.99702858 11.76342402 -0.00692192 0.00292643 -0.00557452
C 2.15891526 4.32263969 3.36914177 -0.00157651 0.00308882 -0.00201252
C 7.01557910 0.85421902 3.99925859 -0.00137994 0.00359367 0.00326740
C 1.26923416 5.45822699 11.76700265 -0.00209459 0.00364131 -0.00315625
C 2.88994430 12.19774887 4.74119807 -0.00569452 0.00191941 -0.00555911
C 5.53582210 7.31424712 13.34893235 -0.00119947 0.00291245 -0.00230043
C 1.47618375 12.02102511 12.81177936 0.00187149 0.01389795 -0.00144782
C 7.34114639 7.37861793 5.04509668 0.00553345 -0.00535908 0.00232087
C 5.56306635 0.77326400 11.89844365 0.00746572 -0.00684433 0.00635798
C 2.92485429 5.50481926 3.55613833 -0.00939832 0.00174906 -0.00064115
C 6.84103458 0.23289602 1.70315789 0.00128568 0.00133024 -0.00457612
C 1.68288639 5.90014388 9.43034536 0.01010043 0.00114710 0.00144631
C 2.97389848 12.68480130 7.11564024 -0.00092493 0.00142622 -0.00530946
C 5.61790361 6.74428506 15.70584459 -0.00453891 0.00369793 0.00137211
C 1.63528301 12.67166226 15.10740802 0.00346785 0.00150768 -0.01171696
C 7.08173379 6.78800849 7.42669640 0.00274882 -0.00468977 -0.00030687
C 5.83996628 0.13593707 9.59684724 -0.00698713 -0.00355077 -0.00045340
C 2.85810399 6.35288331 1.29006070 0.00086480 0.00126770 0.00045805
C 7.22323417 11.73240416 16.72859203 -0.00117754 -0.00555261 0.00329980
C 1.62987085 7.06638189 8.50158841 0.00146302 -0.00433076 -0.00485051
C 2.87440316 1.11422787 8.23107224 0.00483815 -0.00349739 0.00083275
C 5.87144513 5.55832102 32.73000433 0.00315274 -0.00300252 -0.00843382
C 1.36859586 1.06168498 32.88575519 -0.00416655 0.00552868 -0.00047015
C 7.19076876 5.64474121 8.47320245 -0.00583703 -0.00799269 -0.00439678
C 5.94148977 11.69988112 8.39417041 0.00800733 0.00242488 -0.00031944
C 3.02588098 7.58349385 16.90786634 0.00094900 -0.00943193 0.00192952
C 7.63695148 0.18829616 21.33553219 -0.00332467 -0.01044572 0.00146808
C 0.81712652 5.98413933 29.72462686 0.00649291 0.00409122 -0.00014128
C 3.50718762 12.45943349 19.70586596 -0.00226575 -0.00363350 0.00305423
C 4.93488977 7.01337966 28.40417218 0.00359430 0.00330553 0.00512163
C 0.89581668 12.48186114 28.05615024 0.00271635 -0.00008147 0.00239221
C 7.62943667 6.93183772 20.06491091 -0.00060581 0.00201317 -0.00014624
C 5.06358458 0.41453573 29.60850827 0.00315964 -0.00366729 -0.00067444
C 3.32921968 6.01754840 21.37661357 0.00196648 -0.00561174 0.00537161
C 7.16891408 0.82402678 22.44757111 0.00145341 0.00609480 0.00593250
C 1.18246559 5.32517691 30.88876272 -0.00051950 0.00328510 0.00030708
C 3.15911945 11.69313812 18.60388629 -0.00241783 0.00195693 0.00324621
C 5.37228029 7.51969396 27.14704541 0.00118600 0.00421368 -0.00592118
C 1.36824748 11.84827197 26.91152582 0.00296605 0.00332438 0.00033654
C 7.26130222 7.60910746 18.96477999 0.00241914 0.00087789 0.00088500
C 5.43851546 0.96917219 30.80345805 0.00021547 -0.00295611 0.00460713
C 2.95257873 5.29667015 22.45721810 -0.00293669 0.00245402 0.00137708
C 6.31564506 1.89861220 22.35017331 0.00283467 0.00188057 -0.00565114
C 2.09577992 4.24231219 30.81043000 0.00060837 -0.00380379 -0.00056381
C 2.28065240 10.59147547 18.64032019 0.00708992 0.00139881 0.00220135
C 6.40770039 8.49994269 27.16521672 0.00241017 0.00015872 -0.00549290
C 2.21976336 10.73748373 26.97385272 0.00366541 0.00780311 -0.00709137
C 6.48316784 8.81972911 19.13125929 -0.00405230 -0.01002494 -0.00641958
C 6.31743631 2.03312114 30.87047005 0.00031773 -0.00102446 -0.00174698
C 2.03135883 4.23662551 22.34664522 -0.00375356 0.00598474 0.00596547
C 6.08255835 2.46877094 21.05596983 -0.00112778 0.00304296 0.00143513
C 2.36368766 3.71644319 29.56265300 -0.00496043 0.00454049 0.00899180
C 1.93763919 10.16899496 19.96043591 0.00159056 -0.00282441 -0.00033961
C 6.68337934 9.17242160 28.39074212 -0.00311247 0.00189710 -0.00340712
C 2.44653476 10.15689904 28.27722817 -0.00662624 0.00580153 -0.00070992
C 6.41462914 9.43734524 20.39623795 -0.00441575 0.00664636 0.00688067
C 6.48706428 2.66106241 29.59385922 0.00293339 0.00150160 0.00292078
C 1.77856967 3.80466832 21.03841485 -0.00233180 0.00386771 -0.00404879
C 6.60742407 1.85131780 19.97914118 0.00458993 -0.00018502 0.00392899
C 1.88060650 4.25476811 28.41664264 0.00021368 0.00452074 0.00453643
C 2.28634230 10.83724370 21.09699498 0.00520115 -0.00747083 0.00426988
C 6.19138940 8.71211428 29.60616470 0.00584760 0.00353074 0.00525077
C 1.99609771 10.78685217 29.43644201 -0.00320789 0.00452227 -0.00346835
C 6.78245755 8.67012217 21.54396901 0.00276851 0.00047403 -0.01166501
C 6.04107690 2.11847037 28.41218965 -0.00145845 0.00199852 0.00494295
C 2.18144195 4.48661070 19.95090315 -0.00474263 -0.00040807 0.00258668
C 7.37387193 0.70650815 20.04481741 0.00537456 -0.00628010 -0.00062493
C 1.12814948 5.46040147 28.46532684 -0.00070090 -0.00452776 0.00296759
C 3.09187962 12.02708767 21.00423982 -0.00180143 0.00610522 0.00346804
C 5.40401091 7.54223694 29.60170127 0.00527068 0.00150405 0.00624431
C 1.31061833 11.98371117 29.34822391 0.00301904 -0.00170523 -0.00055726
C 7.31765621 7.34793859 21.40362091 -0.00578220 -0.00038575 -0.00251182
C 5.39944834 0.89701940 28.38635709 -0.00242083 -0.00738148 -0.00038162
C 2.88627236 5.72320063 20.10137121 -0.00310564 0.01050272 -0.00358025
C 7.20809996 0.23383315 17.60753518 -0.00088378 -0.00028376 0.00170311
C 1.10699681 6.14301079 26.05502657 -0.00786913 -0.00257164 0.00660580
C 3.02667493 12.66353622 23.31681141 -0.00131598 0.00957478 0.00011785
C 5.92447667 6.85659100 31.90029830 0.00031573 -0.00253447 0.00608854
C 1.14358912 12.69897110 31.64432467 0.00184536 -0.00047927 0.00280631
C 6.93035826 6.67671275 23.68062167 0.00464698 -0.00266238 -0.00061223
C 5.70180625 0.24210174 26.04414499 -0.00033540 -0.00389563 0.00245307
C 2.74293339 6.39845165 17.80276103 0.00536772 0.00134318 0.00342959
C 7.16978585 12.12742167 32.87976641 0.00841143 0.00072987 0.00083427
C 1.08716402 7.41053367 25.23238795 0.00071339 -0.00001900 0.00572128
C 2.66402837 1.07263589 24.33052829 -0.00389627 0.00450468 -0.00354280
C 5.55238356 5.46734873 16.47438890 0.00481675 0.00444483 0.00342700
C 1.22273367 0.75443995 16.54356124 0.00124569 0.00523684 -0.00138904
C 7.14028407 5.46322522 24.59076907 0.00918350 -0.00324727 -0.00434164
C 5.76117091 11.78978106 24.68621430 -0.00607941 -0.00640152 -0.00378260