1920
Time=30000.00000001 pbc="T T T" Lattice="25.46818526 0.00000000 0.00000000 0.00000000 25.68832876 0.00000000 0.00000000 0.00000000 33.00148623" energy=-12251.07848144 virial="-21.76361632 18.96032758 -9.30095105 18.96032758 16.02803614 -4.65337462 -9.30095105 -4.65337462 -30.21940083" stress="0.00112191 0.00080515 -0.00045839 0.00080515 0.00280177 -0.00024254 -0.00045839 -0.00024254 0.00070683" Properties=species:S:1:pos:R:3:vel:R:3
O 5.33563239 3.11881166 6.61517344 -0.00169262 -0.00337717 0.00260241
O 2.83835240 3.26284105 14.97374244 -0.00149377 -0.00279449 -0.00037619
O 1.52357673 9.92708592 1.60420766 -0.00538243 0.00108865 0.00071072
O 6.68499073 8.77441186 9.61304022 -0.00137273 0.00279346 0.00534953
O 2.43059131 10.44465663 9.77844601 0.00378106 -0.00449014 0.00412040
O 6.02122284 9.22316567 1.45657533 -0.00350064 0.00549017 0.00478020
O 6.89695775 2.73902841 15.08168117 0.00106788 0.00057631 0.00523050
O 1.62677450 3.81532261 7.08210942 0.00308372 0.00072845 0.00111930
O 6.15146897 1.18753805 17.08234899 0.00092223 -0.00311160 0.00062097
O 2.14042163 5.46247216 9.02114033 0.00018355 0.00218566 0.00199902
O 2.22937254 11.61777867 7.57868561 -0.00141500 0.00186885 0.00268316
O 6.23599650 7.62723556 32.37287680 0.00311894 0.00253544 0.00082155
O 2.05639095 11.57797400 32.49643637 -0.00795584 -0.00074315 -0.00208928
O 6.05844927 7.39494250 7.33832916 -0.00323794 0.00205341 -0.00386167
O 6.34568378 1.59218545 8.75030932 0.00860039 -0.00276847 -0.00578731
O 2.92361605 4.86788844 16.99236399 -0.00140729 0.00272397 0.00502498
O 5.62810571 2.86877371 23.21657138 -0.00263855 0.00235831 -0.00232243
O 2.22943859 3.42155412 31.86852025 -0.00106624 0.00088166 -0.00282806
O 1.72420471 9.70293857 18.19601990 0.00092901 -0.00537271 0.00046026
O 7.03598895 8.85569902 26.03238719 -0.00336442 -0.00013125 -0.00051416
O 2.40017011 9.95568931 26.15525218 -0.00155463 -0.00182658 -0.00211294
O 5.95541456 9.34539092 17.80920667 -0.00083413 0.00347383 0.00048744
O 6.63161954 2.38946216 31.56111401 -0.00070241 0.00174057 -0.00257385
O 1.54405698 3.58576891 23.24574804 0.00944360 0.00078915 0.00352477
O 5.91320653 1.33476620 0.66018890 0.00125225 0.00017892 -0.00336318
O 1.54920836 4.78995705 25.47595651 0.00455265 0.00336016 0.00289294
O 2.53633588 11.55554437 24.26001857 -0.01006715 -0.00095393 -0.00151322
O 6.50564746 7.50922742 16.05953597 0.00172752 0.00025706 0.00540092
O 2.28539290 11.47123529 16.22219663 -0.00329877 -0.00324391 -0.00083728
O 6.13683384 7.45113411 23.94228715 -0.00278272 -0.00067766 0.00673544
O 6.62397575 1.59708556 25.17046025 -0.00388810 0.00440470 -0.00247576
O 1.84851898 5.10157346 0.83042666 -0.00393894 0.00239045 -0.01019696
O 6.08656816 15.79873818 7.41561156 0.00109170 0.00114398 0.00146841
O 2.21585668 16.22824854 15.42527964 0.00273276 -0.00336429 -0.00457450
O 1.85253100 22.67624473 1.46190056 0.00074241 -0.00084867 0.00070028
O 6.70863337 22.09474238 9.40734242 -0.00097972 0.00146862 0.00076659
O 2.75416318 22.85330089 9.69098852 0.00062912 0.00149132 -0.00479156
O 6.02900916 22.54103816 1.24662465 0.00169145 -0.00193263 0.00142071
O 7.38691576 15.58824440 15.14260812 -0.00031240 -0.00571307 0.00161217
O 1.32541600 16.27887015 7.16474983 0.00458473 -0.00309227 0.00510877
O 6.76661488 14.25004273 17.35784671 -0.00657918 -0.00551137 0.00349292
O 1.97010559 17.86828939 9.13175827 -0.00946281 0.00422280 -0.00152480
O 2.55639676 24.60735170 7.66555059 0.00456155 0.00406676 -0.00220217
O 5.94740671 20.84665540 32.30225346 -0.00747977 -0.00377936 0.00212373
O 1.98979823 24.19317846 32.13701731 -0.00608392 -0.00000622 -0.00414772
O 6.62680600 20.76504057 7.25832683 0.00187634 0.00579645 -0.00564603
O 6.41901734 13.89004613 9.14908360 -0.00487502 0.00121315 0.00070795
O 2.43996565 17.88917366 17.46722291 0.00264826 0.00264118 0.00099582
O 5.87707658 15.41895894 23.59976949 0.00051273 -0.00290244 -0.00296537
O 2.23148086 16.72066275 32.13759201 -0.00118481 0.00604397 0.00699199
O 1.82129467 22.60665838 17.92882922 -0.00011990 0.00341697 0.00218505
O 6.79945803 21.99872357 26.05053868 -0.00153831 -0.00290538 0.00103095
O 2.63851377 23.22166357 25.88914188 -0.00581928 -0.00522720 0.00089587
O 5.48084705 22.09501654 17.58086768 0.00042736 0.00407104 0.00021465
O 6.97388731 15.53247500 31.99589183 0.00152567 0.00578525 -0.01011025
O 1.38234919 16.59906745 23.70501843 0.00645051 -0.00020534 -0.00246164
O 6.20104559 14.28420362 1.06928494 -0.00368727 0.00374210 -0.00069779
O 2.05110011 18.17085560 25.82394864 0.00168295 0.00090554 0.00378995
O 1.77234197 24.65492894 23.81796907 0.00555028 -0.00156474 0.00250875
O 6.32445732 20.58598223 15.69259683 -0.00165899 0.00257769 -0.00208856
O 1.85502112 24.23203807 15.86507781 -0.00334865 0.00302791 -0.00558660
O 6.76361642 20.45454442 23.81005541 0.00565113 -0.00029011 0.00513094
O 6.05800921 14.31085259 25.83712596 0.00189526 -0.00539997 -0.00212067
O 1.98287330 18.03872928 1.25116734 0.00486123 0.00469573 0.00011337
O 14.98956507 2.74010480 7.07839945 -0.00982804 -0.00218992 0.00527260
O 11.21340597 3.71078870 14.75859614 0.01168226 0.00016508 0.00487498
O 10.24381224 9.55264463 1.53163172 -0.00042205 -0.00043494 0.00389545
O 15.56235184 9.03736797 9.12172036 0.00001353 -0.00044398 0.00908448
O 11.33690928 9.89565592 9.61049573 0.00345238 0.00315660 -0.00187512
O 14.37230207 8.89580620 0.95179168 0.00489652 0.00223859 0.00183229
O 14.91920225 2.41072501 15.08650193 -0.00162286 0.00073171 -0.00383835
O 10.13825159 3.66585289 6.67758347 -0.00785219 -0.00648660 0.00023653
O 14.50714396 1.22640605 17.27049946 -0.00127367 0.00203284 -0.00375842
O 10.26340696 5.36817948 8.68669369 0.00632832 0.00219164 -0.00027512
O 10.86064320 11.64364530 7.54257250 0.00164487 -0.00075336 0.00085097
O 14.87090227 7.63766455 31.85183361 0.00231953 -0.00120085 -0.00133015
O 10.14634136 11.31057778 32.46043594 -0.00099748 0.00182144 -0.00430130
O 14.64563389 7.59185687 7.03786897 0.00097963 0.00525429 0.00009546
O 15.43573645 1.01745856 8.93104997 -0.00231986 -0.00083879 -0.00203251
O 10.72951030 5.22277715 16.80567812 0.00347326 -0.00264527 0.00442685
O 14.40777228 2.75024180 23.37023403 0.00110644 0.00173004 -0.00059764
O 10.98094193 3.79785842 31.40941082 0.00018599 -0.00396745 -0.00280708
O 10.12523440 10.02500773 17.80466753 -0.00505167 -0.00382231 -0.00528472
O 15.55361377 8.92485263 25.71308088 -0.00184052 0.00245493 -0.00483191
O 10.93203496 9.93720982 26.30921453 -0.00422674 0.00174275 -0.00666621
O 14.41215578 9.21043446 17.44419606 -0.00333643 0.00173802 -0.00259860
O 14.98917144 2.71475214 31.52166547 -0.00501189 0.00058014 -0.00689146
O 10.46641356 3.83037171 23.16353054 0.00521178 -0.00139466 0.00460359
O 14.66880377 1.30621349 0.63976437 -0.00046468 0.00641651 -0.00274198
O 10.52698656 5.35878287 25.18221432 0.00218967 -0.00790624 0.00662668
O 10.93019748 11.21431830 24.08068289 -0.00077340 0.00003128 0.00281474
O 14.98179989 7.58766911 15.40221347 -0.00191059 0.00457152 -0.00324966
O 10.96826354 11.70722846 15.68904625 0.00223815 -0.00328598 0.00236561
O 14.70986275 7.70229584 23.70780869 0.00618981 0.00274005 -0.00267307
O 15.09289517 1.21558629 25.40202931 0.00598823 -0.00315638 0.00010940
O 10.56175189 5.11243528 0.68046821 -0.00397112 0.00225117 0.00005670
O 14.56530727 15.34841955 7.02310742 -0.00067768 0.00079438 0.00243292
O 11.37336123 16.48611143 15.21053829 -0.00894198 0.00143161 0.00329788
O 10.09333218 23.22702081 1.24043647 0.00224137 -0.00514810 0.00419698
O 15.25945401 22.09913246 9.46996501 0.00095763 -0.00361736 0.00144272
O 11.27620086 23.04461200 9.52278131 0.00221228 0.00373723 0.00206784
O 14.33522390 22.31255999 1.28005872 -0.00663530 0.00033513 0.00135107
O 15.18146491 15.75497448 15.24549604 0.00703366 -0.00066582 -0.00389287
O 10.50607691 16.24863425 6.78526033 -0.00163388 -0.00498808 0.00339523
O 14.97259051 14.39471247 17.51922838 -0.00078281 -0.00251700 -0.00381985
O 10.60904045 18.04349124 8.90217300 -0.00533242 -0.00373309 -0.00634415
O 10.64309346 24.48042905 7.43696066 0.00522306 0.00186314 -0.00193060
O 14.62715724 20.79538893 32.19964706 -0.00325125 0.00199740 0.00118642
O 10.58614160 24.47887711 32.08948547 0.00359390 0.00002758 0.00031428
O 14.82797002 20.57625825 7.41896739 0.00079672 -0.00816306 0.00585184
O 14.96667309 13.97827398 9.11763243 0.00304110 -0.00655923 0.00096657
O 10.40712937 18.08961429 17.20751099 -0.00120965 -0.00526713 -0.00231561
O 14.32233692 15.31656483 23.68930602 0.00774897 -0.00083466 -0.00042888
O 11.00225597 16.69717194 31.92480910 0.00566512 -0.00612535 -0.00583678
O 10.23113646 23.26244156 17.87103971 -0.00028565 -0.00449037 0.00062676
O 14.88664331 22.18953030 25.95668408 0.00402078 0.00320720 -0.00982389
O 10.69301832 22.83994419 25.85119855 -0.00521612 0.00181237 0.00879161
O 14.09361061 22.14379673 17.75653071 -0.00639463 -0.00219828 0.00177706
O 15.94317471 15.56118202 31.44822305 -0.00859828 -0.00310660 -0.00631112
O 10.90864517 16.38115851 23.53325828 -0.00003072 -0.00020532 -0.00210505
O 15.13491337 14.40838049 0.66110757 0.00220261 -0.00845900 -0.00494529
O 10.91126651 17.84969543 25.67546137 0.00097673 0.00008721 -0.00368328
O 10.80134074 24.78125191 24.04538779 0.00049150 0.00444919 -0.00135349
O 14.33401857 20.87559054 15.63565937 -0.00173787 0.00242577 -0.00107985
O 10.30853623 24.60406904 15.59911263 -0.00180796 -0.00298634 0.00499235
O 14.90348475 20.54132192 23.96942202 -0.00287422 -0.00617021 0.00333507
O 14.70729940 13.84833410 25.56962522 -0.00330920 0.00318524 0.00139497
O 10.54007195 18.29272465 0.89334082 0.00034772 0.00904190 0.00505235
O 23.34045132 2.71170740 6.76421741 -0.00354966 0.00020167 -0.00151863
O 20.04547205 3.64773635 15.21838346 -0.00262226 0.00500968 -0.00189773
O 17.98931445 10.12766790 1.45018568 0.00565768 -0.01229800 -0.00610028
O 24.04644983 9.12644843 9.65351984 -0.00221324 -0.00065711 0.00036437
O 19.36235582 9.95240036 9.70440600 0.00118803 -0.00412265 0.00166153
O 22.41288983 8.78161198 1.47624380 0.00446448 0.00239414 0.00168516
O 23.86624309 2.64290214 15.01950894 0.00162705 -0.00137238 0.00146648
O 18.65051070 3.11666179 6.81125239 0.00181779 0.00075398 0.00228098
O 23.11848848 1.37568827 17.21456425 0.00669332 -0.00417811 0.00604630
O 18.89846486 4.88008635 8.82272735 0.00015308 -0.00979416 0.00082222
O 19.06063387 11.44717247 7.52198548 0.00536462 -0.00155030 0.00334109
O 23.16595385 7.58443828 32.25615494 -0.00353394 0.00774528 0.00338582
O 18.93531008 11.56630794 32.30302775 -0.00486861 0.00232794 -0.00112919
O 23.07744310 7.61411006 7.61740734 -0.00367827 0.00341751 -0.00056842
O 23.38207742 1.21203343 8.90197855 -0.00573681 -0.00430699 0.00854549
O 19.10739280 5.23977494 17.13301836 -0.00097279 0.00014810 -0.00194181
O 22.76999120 2.89763859 23.41749128 -0.00231360 -0.00248306 0.00033359
O 19.38341646 3.85285992 31.55830162 0.00162509 -0.00240717 -0.00117324
O 18.42196590 10.18867839 17.97917292 -0.00417876 -0.00062510 -0.00272364
O 24.09484871 9.01225317 26.25593749 -0.00496410 0.00078394 -0.00172562
O 19.24776791 9.98462108 26.07222467 0.00424049 -0.00500901 0.00299800
O 22.44721098 8.98270232 17.83898341 0.00112596 -0.00350610 0.00248621
O 23.65121643 2.78469836 31.65025919 0.00158323 0.00047265 0.00483105
O 18.71765664 3.74205335 23.34013358 -0.00254394 0.00437971 0.00254818
O 23.74631840 1.07175300 0.57886516 0.00189147 -0.00191778 -0.00152470
O 19.18343075 5.05080967 25.47080329 0.00188092 0.00226292 -0.00583051
O 18.90935729 11.58583131 24.06502817 0.00225359 -0.00362243 0.00128920
O 23.31966783 7.59017891 15.82686422 -0.01043373 -0.00636801 0.00348106
O 18.90117268 11.80501538 15.93049754 -0.00014157 0.00637977 -0.00438372
O 23.64683583 8.07217280 23.84924700 0.00133966 0.00551224 0.00323976
O 23.39313476 1.31477072 25.39518579 -0.00318829 0.00312262 0.00316760
O 19.05845420 5.06312014 0.72385291 -0.00335497 -0.00702245 -0.00578925
O 22.78956599 15.72324130 7.45385225 -0.00143877 0.00217332 0.00713858
O 19.87868534 16.47351611 15.13499833 0.00036744 -0.00814149 0.00159725
O 18.73118585 23.20715773 0.98788170 0.00290597 -0.00057326 0.00120899
O 24.13596155 22.22606793 9.75366107 -0.00305882 -0.00388528 -0.00298959
O 19.72664299 23.02697853 9.46188275 0.00344334 0.00035504 -0.00238477
O 22.82961284 22.07372552 1.40761657 0.00300088 0.00452027 0.00435274
O 23.92970934 15.63791861 15.81925172 0.00073814 -0.00436168 0.00753296
O 18.95732864 16.40536465 7.00788421 -0.00171888 0.00178464 0.00121813
O 23.42887952 13.90914610 17.83134336 0.00105345 0.00770184 -0.00183350
O 18.90897135 18.06310461 8.99430549 0.00039310 0.00126022 0.00395501
O 18.93181148 24.12367713 7.24786065 0.00577775 0.00708416 -0.00053771
O 22.78212010 20.41447692 32.27420748 -0.00408655 0.00177864 -0.00463876
O 18.83793856 24.70992558 31.94155598 -0.00458758 0.00848975 0.00070151
O 23.37972700 20.57391324 7.61095881 0.00001005 0.00541144 0.00083311
O 22.93342268 14.12225090 9.46333597 -0.00066313 -0.00053072 -0.00222789
O 19.38240087 18.04813576 17.24661207 -0.00145219 0.00397090 0.00140571
O 23.22976221 15.63671045 23.81934017 0.00086900 0.00565960 -0.00265398
O 19.70783848 16.42284620 31.74534701 -0.00415404 0.00422346 -0.00087202
O 18.35241015 22.83858471 17.98506684 0.00036863 0.00684046 0.00366530
O 23.76982490 22.15665091 26.27704055 0.00841732 -0.00091223 0.00112189
O 19.60165647 23.19170816 25.82411980 0.00065318 0.00075855 -0.00117487
O 23.09069394 22.08568490 17.87550464 -0.00002825 0.00063653 0.00079227
O 24.21932013 15.29747336 31.90326026 0.00343388 0.00524236 -0.00305761
O 18.77504547 16.38998520 23.54569406 0.00135395 -0.00356862 0.00437483
O 23.47812434 14.13581975 1.27300513 0.00624677 0.00066513 0.00083331
O 18.80158858 17.99739822 25.54571969 -0.00130260 -0.00097382 -0.00302264
O 19.14111309 24.66143477 23.81078636 -0.00180955 -0.00013975 -0.00031081
O 23.35059950 20.52942597 15.82652634 0.00540939 0.00182602 -0.00293881
O 18.65541251 24.22609222 15.61498956 -0.00876397 -0.00519234 0.00383275
O 23.46097451 20.56578047 24.09139634 0.00803707 0.00291166 -0.00249421
O 23.10761078 14.13072965 25.87870788 0.00286974 0.00462709 -0.00363646
O 19.08765656 18.01682986 0.85348290 -0.00174682 0.00207115 0.00123018
N 7.37746668 13.21077026 2.77026804 -0.00713551 0.00141102 0.00235703
N 0.95621716 6.37943036 10.69570598 0.00642451 -0.00187239 0.00019348
N 3.19611975 0.16513631 5.77872747 0.00584181 -0.00717804 0.01136115
N 5.52830755 6.22190014 14.42156499 -0.00176810 0.00447418 -0.00463286
N 1.30418980 0.05746662 14.18591316 -0.00144617 0.00012905 -0.00703449
N 7.44926649 6.34623602 5.87857777 0.00199004 -0.00096038 0.01061416
N 5.45650733 12.75964455 10.89115000 0.00856968 0.00278196 0.00390704
N 3.34776254 6.05702858 2.35488992 -0.00015653 0.00801553 -0.00203853
N 7.56538933 12.78272539 18.91407098 0.00064645 -0.00293713 0.00549467
N 0.91550751 6.17112933 27.22932915 0.00548912 -0.00047917 -0.00648448
N 2.98094897 0.11195499 22.21132928 -0.00803693 -0.00217826 0.00116147
N 5.07054109 6.52675000 30.66562984 -0.00641408 -0.00489145 0.00472452
N 0.66385194 25.25415045 30.60150988 0.00309910 -0.00588102 0.00031067
N 7.41954277 6.41229840 22.39055198 -0.00628314 0.00654500 0.00108106
N 5.24760900 12.82543823 27.39301660 0.00146711 -0.00437472 0.00052265
N 3.23173590 6.35482905 18.71933409 -0.00209956 0.00100419 -0.00017597
N 7.49397326 0.52789975 2.05654404 -0.00748293 0.00035739 0.00084945
N 0.96181139 19.09688898 10.87202096 -0.00136912 0.00708903 -0.00421346
N 3.15463306 12.94861183 5.92429547 -0.00439293 0.00620651 -0.00359196
N 5.37771282 19.35921722 13.90651203 -0.00132272 0.00516422 0.00526888
N 1.28327142 12.85197270 14.68240249 0.00219739 -0.00002547 0.00395381
N 7.59514035 19.45290801 5.68202999 -0.00031180 0.00310843 0.00151346
N 5.41618923 0.24666787 10.43643014 -0.00213313 0.00453223 0.00332559
N 3.31188355 19.06283433 2.79761627 0.00008917 -0.00315897 -0.00041876
N 7.36495717 0.24956351 18.79987907 -0.00020027 -0.00365001 0.00089043
N 0.99890290 19.45098623 27.40200576 -0.00277209 0.00582960 0.00308695
N 3.38556491 12.75700260 22.47880618 0.00016866 -0.00734305 0.00004035
N 5.18776458 19.49567307 30.63956235 -0.00624610 -0.00597623 0.00278490
N 1.20917228 12.82231106 30.74251431 0.00209900 -0.00356843 -0.00160432
N 7.67720994 19.57543086 21.89472937 -0.00309777 -0.00102603 -0.00568047
N 5.51706205 0.35735196 26.76032377 -0.00054339 -0.00036539 -0.00024397
N 3.62151818 18.81003848 19.12294045 0.00014778 -0.00030551 0.00539057
N 16.07578688 13.03075350 2.23945509 -0.00474626 -0.00401301 -0.00177572
N 9.50201658 6.65145470 10.49710676 0.00545795 -0.00451627 -0.00065530
N 11.68979064 0.09997002 5.87183129 -0.00442379 0.00476886 0.00062103
N 13.71452531 6.61440713 13.74556284 0.00737956 0.00670169 0.00042586
N 9.52086652 0.22838751 13.89999196 -0.00828228 -0.01194504 0.00928934
N 16.07667788 6.65881698 5.59461403 0.00023813 0.00272201 0.00576529
N 14.13160054 12.54676451 10.74867195 0.00367085 -0.00165595 0.00015674
N 11.86756469 6.21114845 2.13310441 -0.00069454 -0.00242869 -0.00376810
N 16.17528033 13.24101964 18.99468029 0.00090445 -0.00228418 0.00195109
N 9.38619241 6.50241839 26.79612674 -0.00138690 -0.00313909 0.00650617
N 11.69395323 0.35755257 22.38289936 -0.00306046 0.00281997 -0.00570995
N 13.47444596 6.64420690 30.30591294 -0.00060520 0.00673005 -0.00253428
N 9.45166568 25.62249789 30.45924015 0.00779478 -0.00087899 0.00707732
N 15.85084467 6.49151191 22.13207300 -0.00336282 0.00045066 0.00179437
N 13.71944851 12.85029073 27.38696030 0.00217186 -0.00239647 -0.00263352
N 11.76700207 6.33033924 18.46407517 -0.00318820 0.00236682 -0.00668518
N 16.09182196 0.28457893 2.11343899 0.00448958 -0.00327662 0.00231312
N 9.61005043 19.13830376 10.65076859 0.00091309 0.00482332 0.00100941
N 11.62787953 12.89358078 5.81146045 -0.00137117 0.00555155 -0.00474612
N 14.13372890 19.26410828 14.08421074 -0.00035254 -0.00233694 0.00155086
N 9.71320539 12.87627823 14.15499850 0.00786572 0.00082385 0.00197898
N 15.66044671 19.32288886 5.72988485 -0.00894543 0.00233674 0.00721259
N 13.97053177 25.52469517 10.19710414 -0.01035266 0.00102003 0.00271922
N 11.63781308 19.50432841 2.50035901 0.00019785 0.00336522 -0.00026934
N 15.68755946 25.66554712 18.78774100 0.00595174 0.00043657 0.01170143
N 9.53701248 18.99256034 27.15112882 -0.00051732 -0.00770832 -0.00036038
N 11.76960832 12.68494345 22.43161561 0.00713721 -0.00554254 -0.00223708
N 13.81191833 19.30366961 30.65748307 -0.00445884 0.00357490 0.00181142
N 9.61202659 12.88288234 30.79502870 0.00172267 0.00210602 0.00896183
N 15.59703739 19.15617227 22.17288976 0.00127752 -0.00042062 -0.00884684
N 13.49400149 0.33559310 26.78885261 0.00525501 0.00065334 0.00544937
N 11.51304725 19.39704531 18.77601805 0.00273852 0.00810631 -0.00517649
N 24.02235603 12.63809444 2.92186187 -0.00167690 -0.00061399 0.00218948
N 18.05492732 6.01359675 10.62899959 -0.00389738 0.00567790 -0.00423030
N 20.26564189 25.29946932 5.81776789 0.00346194 0.00561862 0.00390094
N 22.12772944 6.64308291 14.10206385 0.00295648 -0.00494572 0.00017561
N 17.65920162 25.56964996 13.98212876 -0.00477673 0.00006882 0.00203952
N 24.27164331 6.41749162 6.03602054 0.00134278 0.00099349 0.00245638
N 21.95321265 13.12570740 11.27838535 0.00162866 -0.00008796 0.00173810
N 19.98407336 6.32135522 2.44466687 0.00292476 -0.00208711 0.00159372
N 24.60069075 12.65254929 19.31201568 0.00474179 -0.00033080 -0.00262323
N 17.85117217 6.22908100 26.89212087 -0.00165100 -0.00341697 -0.00069274
N 20.11347291 0.12793206 22.10386349 0.00978677 -0.00551062 -0.00610239
N 21.85148173 6.49522723 30.59956504 0.00536539 -0.00329469 0.00077182
N 17.54000692 25.61480678 30.27464807 -0.00238722 0.00207113 -0.00047264
N 24.39468691 6.67332243 22.27281320 0.00540850 -0.00240315 -0.00642444
N 22.02141315 12.87488039 27.39767087 -0.00126920 0.00700468 0.00191471
N 19.99789151 6.58466918 18.74634292 0.00561540 0.00696413 0.00158657
N 24.36312374 25.35018712 2.26097705 -0.00332548 0.00400738 0.00363083
N 18.12796383 19.31879931 10.76274946 0.00352137 0.00178330 -0.00572685
N 20.32568082 12.38550414 5.87082828 -0.00493336 0.00235796 0.00255964
N 22.12453757 19.52531837 14.20133221 0.00040114 -0.00409257 0.00046070
N 18.40284831 13.17712038 14.19843770 0.00147798 -0.00405762 -0.00125194
N 24.57181718 19.48514703 5.99821157 -0.00645480 -0.00086247 0.00237077
N 22.65395765 25.35267477 10.43517446 -0.00385789 0.00557595 0.00067971
N 20.48798746 18.95020890 2.34872872 0.00046360 -0.00019218 0.00028594
N 24.22563443 0.18276898 18.81261035 -0.00817441 -0.00129737 0.00040185
N 17.72623900 19.13583847 27.25812980 0.00514871 0.00023920 -0.00003147
N 20.24852349 12.72572182 22.61452588 0.00012923 0.00210882 -0.00556708
N 22.25850787 19.01238398 30.55145887 -0.00647376 0.00042180 -0.00564876
N 17.95712041 12.82123936 30.62051016 0.00320896 -0.00186606 0.00509698
N 24.44029498 19.26132367 22.49748927 -0.00320646 -0.00158426 -0.00130507
N 22.11310529 0.21322227 26.94537496 0.00885746 -0.00007690 -0.00007147
N 20.32316168 19.08559225 19.06083188 0.00062820 -0.00445293 0.00508144
C 7.39763699 0.79618493 4.53820864 0.00116583 0.00294997 0.00853645
C 1.08951789 5.87417515 13.04135522 -0.01268905 -0.00251037 0.00242724
C 3.45846974 12.33007512 3.67085184 -0.00674381 0.00114557 0.00437346
C 5.21926565 6.60912884 12.12733192 -0.00107458 0.00691383 -0.00181005
C 1.17055358 12.80823127 12.30076200 0.01033805 0.00251218 0.00267383
C 7.57667570 6.67771930 3.49373565 0.00289760 -0.00236912 -0.00600003
C 5.45248084 0.34117541 12.84323544 0.00261626 -0.00397401 -0.00055014
C 3.22259172 6.08283526 4.79156042 -0.00201958 0.00527129 0.00170379
C 6.91821553 1.44885169 5.67959010 0.00341516 0.00118108 0.00243079
C 1.42703708 5.03648662 14.09692512 0.00676059 -0.00013124 0.00250684
C 3.07935722 11.49357440 2.55618143 -0.00375621 -0.00461539 -0.00275006
C 5.42799643 7.27239929 10.93758491 0.00132599 0.00603773 -0.00176792
C 1.35242186 12.23706852 11.01283191 -0.00368529 0.00309434 0.00760717
C 7.10209871 7.34381666 2.38392114 0.00329834 0.00606481 -0.00611365
C 5.84605798 0.93644670 14.03319476 -0.00055817 -0.00311289 0.00962113
C 2.83544512 5.45768083 5.92199781 -0.00258291 -0.00773888 -0.00210151
C 6.03243690 2.60457879 5.53229162 -0.00224346 0.00013780 -0.00292220
C 2.37450210 3.99510078 13.90794013 -0.00005186 0.00095980 0.00202740
C 2.11264517 10.51836104 2.71780199 -0.00326168 0.00280493 0.00364641
C 6.45040758 8.18200447 10.82730945 -0.00338650 0.00510863 0.00600687
C 2.01014217 10.95483249 10.93972440 0.00329915 0.00229137 -0.00137663
C 6.38022187 8.57127533 2.54666662 -0.00050025 0.00095157 0.00327289
C 6.56641180 2.11442633 13.96799000 -0.00146854 -0.00032270 -0.00141361
C 2.03248824 4.31689757 5.87737288 -0.00666069 -0.00276758 0.00197658
C 5.81677418 3.10108283 4.26520185 -0.00129228 0.00611114 0.00597682
C 2.59042311 3.61382328 12.57776581 -0.00137780 0.00562808 0.00135533
C 1.75952194 10.08827741 4.00010083 -0.00414177 0.00153553 -0.00290009
C 7.02505646 8.67700155 12.03044112 0.00815398 -0.00478419 -0.00549596
C 2.33978164 10.32501594 12.16242087 -0.00199311 -0.00058642 -0.00308015
C 6.28712622 9.08697415 3.80434070 -0.00472893 -0.01022318 0.00534629
C 6.92101170 2.68627550 12.73625070 -0.00321417 0.00005428 -0.00018670
C 1.76730622 3.66161913 4.66666138 0.00123561 0.00382427 -0.00130419
C 6.25836781 2.39548850 3.16752158 0.00624930 0.00594252 0.00325909
C 2.23552311 4.46361517 11.53403300 -0.00530587 -0.00986897 0.00038243
C 2.14189682 10.86177304 5.09755077 -0.00277609 0.00232435 -0.00046562
C 6.71331992 8.14558077 13.24310412 0.00132758 -0.00763421 0.00089788
C 2.09722131 10.83860501 13.43098184 -0.00162271 -0.00390857 0.00411502
C 6.46281042 8.32511407 4.90859848 0.00074923 -0.00606523 -0.00597154
C 6.50271791 2.10470776 11.58410534 0.00146882 -0.00185309 0.00462604
C 2.29011209 4.28405614 3.52073243 0.00103561 -0.00758153 -0.00020925
C 7.08290817 1.27535241 3.27057369 -0.00891960 0.01234600 -0.00090104
C 1.46568900 5.56893133 11.73490687 0.00940577 -0.00706803 -0.00557373
C 2.89352550 12.06811086 4.92583891 -0.00578213 -0.00108365 -0.00363022
C 5.88180042 6.99227068 13.26592587 -0.00459653 -0.01297979 0.00130166
C 1.54493247 12.18440615 13.47296186 0.00564482 0.00309387 -0.00479214
C 7.13360172 7.08910674 4.78485895 -0.00124306 -0.00410580 -0.00140192
C 5.73028452 0.88423729 11.57994792 0.00452003 -0.00169317 -0.00217344
C 2.94924026 5.48260519 3.55905470 -0.00444312 0.00119004 0.00004824
C 6.78059757 0.45597010 0.93232261 -0.00409964 -0.00386889 0.00168384
C 1.41359094 6.39665352 9.44948503 -0.00297834 0.00117331 -0.00369269
C 2.83863639 12.66710949 7.25892303 0.00127652 0.00090081 -0.00426399
C 6.03065743 6.44282757 15.66378043 -0.00556800 0.00634267 0.00053519
C 1.69836631 12.52347872 15.94623536 0.00360490 0.00022163 -0.00200195
C 6.85267033 6.49126810 7.08903804 -0.00402204 -0.00078571 0.00436870
C 5.87483781 0.52277411 9.13580245 -0.00358049 0.00068102 0.00023253
C 2.49443660 6.08283928 1.21084008 -0.00102984 -0.00278523 0.00881423
C 7.13196305 12.02933903 16.67041942 -0.00085835 -0.00538687 -0.00261766
C 1.11137617 7.55669579 8.56777036 -0.00183453 -0.00198826 -0.00566536
C 2.72699226 1.26109579 7.95336199 -0.00327366 -0.00167867 0.00072035
C 5.66973781 5.28553810 32.70910790 -0.00051794 0.00219188 0.00139056
C 1.36644688 0.77987396 32.54909570 0.00316941 -0.00161947 0.00084232
C 7.09331562 5.41218014 8.08329106 -0.00301688 0.00529387 -0.00737260
C 5.86780411 11.60247400 8.88106913 0.00453461 0.00035067 -0.00343289
C 3.01021945 7.24415827 16.54953673 0.00125190 -0.00038706 -0.00024141
C 7.35565547 0.50337069 21.07473362 0.00671849 -0.00523100 0.00007205
C 0.84578515 5.81877283 29.53959437 0.00469369 -0.00427841 0.00579615
C 3.28244254 12.32388385 20.16521046 0.00190405 -0.00181544 0.00297564
C 5.04214658 6.79636558 28.29750434 0.00281734 -0.00843482 0.00026029
C 1.04153639 12.48905244 28.40456957 0.00111615 0.00370847 -0.00038853
C 7.48718231 6.77157408 20.06471662 0.00132846 -0.00078020 0.00058496
C 4.88494810 0.59004662 28.99018251 0.00529150 0.00088687 0.00473226
C 3.27833596 5.93691277 21.00467283 -0.00071525 0.00025978 0.00624614
C 7.08845655 1.31354107 22.18797810 -0.00104798 0.00063667 -0.00094721
C 1.09064559 5.11690960 30.70700953 0.00144055 0.00074734 -0.00867968
C 3.02337404 11.51424452 19.09762751 -0.00484185 0.00097609 -0.00299399
C 5.55487618 7.29824506 27.13441744 0.00496473 -0.00145635 -0.01003596
C 1.28400104 11.76040351 27.25530505 -0.00113719 0.00173410 0.00397167
C 7.29259935 7.54394547 18.89397028 0.00128820 0.00553773 -0.00052774
C 5.27909496 0.95517226 30.24079804 0.00581650 -0.00443355 -0.00379451
C 2.94492905 5.20912437 22.09432637 -0.00251055 -0.00110786 0.00250387
C 6.09308175 2.33907091 22.12064219 0.00024381 0.00261812 -0.00413278
C 1.91807777 3.98283011 30.67544996 0.00564972 0.00228899 0.00140848
C 2.15007244 10.36781774 19.27671892 -0.00262764 -0.00017161 0.00560811
C 6.49021379 8.42304121 27.18897093 0.00328803 0.00632448 -0.00052215
C 1.98435830 10.56565156 27.33537015 -0.00760191 -0.00094510 -0.00624369
C 6.36547504 8.60324451 18.91090578 -0.00277866 -0.00661324 0.00356167
C 6.15262274 2.04945658 30.34713912 -0.00009773 0.00074673 0.00145600
C 1.99501531 4.10316454 22.06084585 -0.00005146 0.00559151 0.00051868
C 5.78434867 2.78727865 20.80787556 -0.00140045 0.00383450 -0.00578841
C 2.38572522 3.57373320 29.44543613 0.00757566 -0.00086489 0.00277527
C 1.84638901 9.99993423 20.56856727 0.00470490 0.00088792 0.00309628
C 6.77927562 8.97940743 28.43637087 0.00124885 -0.01172796 -0.00390201
C 2.49312617 10.07454519 28.58977732 0.00458578 0.00057580 -0.00188865
C 5.82681670 8.95781772 20.15123285 0.00445122 -0.00008832 -0.00455690
C 6.60047430 2.76863443 29.23022522 -0.00326214 0.00128270 -0.00318021
C 1.63189385 3.64067707 20.77752783 -0.00039617 -0.00315109 0.00062708
C 6.11836209 2.14317351 19.70747366 0.00071946 0.00631940 0.00374635
C 2.08184321 4.22905826 28.24956232 -0.00256688 -0.00130340 -0.00128377
C 2.28874340 10.70433594 21.68168007 0.00153071 0.00356191 -0.00362563
C 6.34877442 8.37381223 29.57996166 -0.00042381 -0.00578978 -0.00148894
C 2.09009250 10.73126846 29.75040144 -0.00081715 0.00413194 0.00135435
C 6.11697354 8.30026100 21.33747857 0.00332297 -0.00143531 0.00415375
C 6.39691476 2.21838458 27.95844199 0.00421017 0.00087945 -0.00276423
C 2.19797667 4.24051949 19.61725950 0.00164992 0.00608514 -0.00177178
C 6.95138422 0.99526523 19.83628427 0.00137396 0.00056579 0.00282892
C 1.26264812 5.39348431 28.31778725 -0.00504337 -0.00744980 -0.00071106
C 2.97181688 11.96769756 21.47140392 0.00185600 0.00267172 -0.00452035
C 5.43446947 7.26991857 29.54358000 0.00589064 0.00156641 0.00083109
C 1.46322749 11.97205859 29.60081730 0.00318712 -0.00202268 0.00451595
C 7.00276723 7.20415204 21.29902975 -0.00118163 -0.00066373 -0.00031034
C 5.59435025 1.10664163 27.86490920 -0.00008379 -0.00256465 -0.00020154
C 2.90915746 5.45464945 19.72106980 -0.00251239 0.00849258 0.00146411
C 6.87711402 0.31420057 17.53954839 -0.00461357 0.00318322 0.00133436
C 1.34238042 5.91814652 25.96415489 -0.00073588 0.00869144 0.00208046
C 2.94920018 12.59518596 23.77453180 0.00248225 0.00067840 -0.00460652
C 5.67957566 6.64050152 31.91295454 -0.00078043 0.00113592 -0.00369991
C 1.64068308 12.65423295 32.04274090 -0.00027472 0.00603741 0.00483221
C 6.89560393 6.53976045 23.63692988 -0.00071809 0.00537506 0.00095260
C 6.09368274 0.52342099 25.54178859 0.00334787 -0.00591427 0.00462235
C 3.09674125 6.04102975 17.37710446 -0.00279999 -0.00698301 -0.00308568
C 7.07465101 12.14942135 0.64861165 -0.00728390 -0.00183011 0.00159691
C 1.37242861 7.16243613 25.16565298 -0.00529897 0.00275098 -0.00526295
C 2.84745259 0.96302876 24.46731735 0.00525312 -0.00417104 0.00052044
C 6.03557912 5.19249934 16.57006641 -0.00493246 -0.00662506 -0.00150389
C 1.46844689 0.79564221 16.37372297 0.00216110 0.00234488 -0.00336804
C 7.25703044 5.38505199 24.44598857 0.00425108 0.00349284 -0.00042496
C 5.74222460 12.04474302 25.20163055 0.00540632 0.00487853 0.00653906
C 2.50845493 7.36952529 0.33008840 0.00154904 -0.00251107 -0.00503819