1920
Time=86000.00000007 pbc="T T T" Lattice="25.52736374 0.00000000 0.00000000 0.00000000 25.56546085 0.00000000 0.00000000 0.00000000 32.99638113" energy=-12250.27804297 virial="-43.53139509 0.60790318 10.04248218 0.60790318 -47.92125805 -9.79164279 10.04248218 -9.79164279 -26.16276975" stress="0.00014923 0.00004299 0.00061921 0.00004299 -0.00003491 -0.00050124 0.00061921 -0.00050124 0.00095564" Properties=species:S:1:pos:R:3:vel:R:3
O 6.22564215 2.58062349 6.65088752 -0.00186651 0.00571893 -0.00184097
O 2.55029153 3.89772192 15.39059229 -0.00561689 -0.00266271 -0.00586899
O 2.27062428 9.78291020 1.62874265 0.00130214 -0.00673029 0.00339669
O 6.48226380 8.88460127 9.73068269 -0.00542230 -0.00426627 0.00254932
O 2.40044428 9.76207053 9.84448835 0.00135569 0.00437603 0.00245557
O 6.41425784 8.87720596 1.25236420 0.00389041 0.00498680 -0.00523717
O 6.92848239 2.86145524 14.99056489 0.00587734 0.00632224 0.00139045
O 1.82176890 3.54926391 7.33503052 0.00620883 -0.00188487 0.00028400
O 6.64926318 1.16220250 16.85529038 0.00608473 0.00401033 -0.00034783
O 2.61935301 5.08637742 9.14258449 0.00027120 0.00959481 -0.00103555
O 2.36616036 11.33390442 7.71070906 0.00735873 -0.00221786 -0.00335271
O 6.76249269 7.48496789 32.27947569 0.00570673 0.00336994 0.00070739
O 2.16303065 11.62295223 32.63346371 0.00288150 0.00292402 -0.00141591
O 6.34281506 7.54464675 7.49684459 0.00164415 -0.00094625 -0.00723781
O 6.51832045 0.99032339 8.96326460 -0.00552860 -0.00183363 0.00537309
O 1.68531301 5.19794215 17.55558067 0.00350443 -0.00427403 -0.00644884
O 6.13379012 2.81320383 23.02721928 -0.00013828 0.00543772 0.00136525
O 2.86431423 4.00411412 31.80685739 -0.00135791 0.00064582 -0.00141236
O 1.33526621 9.85317273 18.15925972 -0.00215431 0.00281027 0.00493677
O 6.97444274 9.45256221 26.24431146 -0.00094969 0.00393633 0.00660827
O 2.17704395 9.86755511 26.36661665 -0.00398641 -0.00505750 -0.00390835
O 5.74341362 9.01673973 17.91771269 0.00232668 -0.00029568 0.00068452
O 6.81376566 2.87493547 31.35794704 0.00086585 -0.00627093 0.00124719
O 1.68950222 4.09477944 23.75808151 -0.00166924 0.00270455 0.00487109
O 6.67010803 1.30002457 0.40079698 -0.00230636 -0.00131584 0.00165119
O 2.18190387 5.59126842 25.70359555 0.00411569 0.00256552 0.00857019
O 1.62695522 11.57679902 24.19347332 -0.00280575 -0.00147328 0.00329942
O 6.39342328 7.31003329 15.87374094 0.00587316 0.00377533 -0.00269222
O 1.74943727 11.58346257 15.86921413 0.00591315 0.00122655 -0.00941059
O 6.23585715 7.82386058 24.08612806 0.00325010 0.00079622 0.00001770
O 6.22718716 1.35266862 25.11086568 -0.00176323 -0.00281773 0.00129318
O 1.85628249 5.05180333 0.98479187 -0.00232670 -0.00202640 0.00221789
O 5.68016049 15.14886203 7.37588806 -0.00532423 0.00483878 0.01156301
O 3.05977091 16.58391181 15.09947637 0.00858998 -0.00557844 0.00198661
O 1.49848332 23.10532887 1.08570950 -0.00382647 0.00370104 -0.00060357
O 7.04077622 22.10589429 9.73169188 0.00440080 -0.00586021 -0.00269880
O 2.98494222 22.64993487 9.52094973 -0.00179795 -0.00244286 -0.00152207
O 6.36617401 21.88516814 1.29866499 -0.00125030 0.00352587 -0.00237768
O 7.06447709 15.02481706 15.57466982 -0.00549866 0.00278849 -0.00270286
O 1.78427590 16.14694642 7.00056655 -0.00519675 0.00369372 0.00170695
O 6.70009822 13.94990265 17.89033236 -0.00211626 0.00062347 0.00005991
O 2.22021428 17.94836076 9.13971709 0.00352376 0.00761821 0.00014845
O 2.53578841 24.13467993 7.33075421 0.00349017 -0.00028706 0.00353744
O 6.42548795 20.23147013 32.25289722 -0.00296057 0.01105579 0.00298488
O 1.63696857 24.26062144 31.72568276 0.00678890 -0.00643377 0.00080879
O 6.76904607 20.54348806 7.58462589 0.00139525 -0.00101291 -0.00079184
O 6.71339477 13.80731552 9.37694024 -0.00034069 -0.00203657 -0.00057817
O 2.15488497 17.89969808 17.22030796 -0.00862309 0.00135282 0.00200388
O 5.32533014 15.36595593 23.87563426 0.00446689 -0.00625116 0.00622170
O 2.15582327 16.80344277 32.04145700 -0.00231414 0.00538338 -0.00092508
O 1.81033299 22.64651972 17.65967457 0.00343286 0.00342711 -0.00446416
O 6.64995488 21.86235942 25.91980666 0.00018261 -0.00095867 0.00000136
O 2.55523229 22.91820230 25.65920514 0.00218158 0.00651388 0.00390805
O 5.79465638 21.97936276 17.78878534 0.00268371 -0.00131942 0.00227339
O 7.21535548 15.09195233 32.19038970 0.00281390 -0.00352154 0.00063908
O 1.46176725 16.51749839 23.40004503 -0.00067819 0.00465968 0.00308392
O 6.07610828 13.92873584 1.31670498 0.00408460 0.00416366 0.00355762
O 1.55204681 17.86923720 25.62717475 -0.00055379 0.00058716 -0.00153988
O 2.20661331 24.57985527 23.57991698 0.00263738 0.00500274 0.00012730
O 6.02801462 20.37831400 15.77055212 0.00233256 -0.00236050 0.00236821
O 1.79748529 24.16326879 15.55269888 -0.01066667 0.00002284 -0.00294889
O 6.22900683 20.21497811 23.97320286 0.00151321 -0.00297132 0.00024405
O 5.89696248 14.22427046 26.06033272 0.00593000 -0.00366339 0.00138305
O 1.83563748 18.27117783 1.12484560 -0.00466853 -0.00396038 0.00235388
O 14.52460833 3.00819544 6.42555640 0.00392122 -0.00147926 0.00117419
O 10.82122053 3.37349628 15.06703113 0.00419072 -0.00013101 -0.00081434
O 10.34597349 10.11678488 1.57342316 -0.00290559 0.00535762 0.00429998
O 15.55879667 8.90175980 9.64295481 -0.00327405 0.00068561 -0.00008390
O 11.07973588 10.00424864 9.98237401 -0.00132305 -0.00114655 -0.00311964
O 14.54342667 9.35127693 0.94360408 0.00080443 -0.00162640 -0.00897775
O 15.78374124 2.83877783 14.72836911 -0.00567016 0.00248936 -0.00073049
O 10.18153569 3.65073201 6.73220449 -0.00592124 -0.00281683 0.00462772
O 15.55199242 1.36316733 16.76729929 -0.00255279 0.00524638 0.00416855
O 10.30117485 5.06082714 8.85083086 -0.00190381 -0.00716749 0.00176820
O 10.35491602 11.33207493 7.86928751 0.00799802 0.00536982 -0.00049500
O 15.13527803 7.67842447 31.98218089 0.00736251 0.00524549 -0.00410001
O 10.81784772 11.74171141 32.44160051 -0.00565720 0.00433963 -0.00249071
O 15.30419217 7.78583432 7.20619937 0.00197618 -0.00145950 0.01095791
O 14.76992747 1.42465966 8.61304829 0.00620174 -0.00134253 0.00216983
O 10.55992368 4.83739483 17.23924285 0.00043227 0.00149948 -0.00368461
O 14.66453136 2.94528017 22.94993983 -0.00182877 -0.00115305 0.00269095
O 11.27891853 3.88646565 31.32333979 0.00081576 0.00129801 -0.00496720
O 10.22855056 9.57849227 18.34506927 -0.00342399 0.00505044 -0.00404558
O 15.47729613 9.48389736 26.04146392 0.00096469 -0.00606308 -0.00088589
O 11.27450100 9.99152435 26.44239519 -0.00636725 0.00444520 -0.00086527
O 13.72858175 8.88300437 17.94394531 -0.00326480 0.00398564 0.00553090
O 14.96285642 2.94444259 31.07944125 0.01022074 0.00269214 -0.00102265
O 9.64523686 3.91139936 23.23636712 0.00315687 -0.00135454 0.00076333
O 15.04570660 1.45826001 0.13468902 0.00180527 0.00430132 -0.00455841
O 9.96376929 5.31907248 25.22054403 -0.00168063 0.00406165 -0.00032271
O 11.53943198 11.52008414 24.24235671 0.00397884 0.00901031 -0.00733410
O 14.58552481 7.59075069 15.84754109 0.00728813 0.00640047 -0.00403971
O 10.40127278 11.05120867 16.18365273 0.00026664 -0.00007454 -0.00625458
O 14.94903125 7.79705583 24.00766650 -0.00108367 0.00041077 -0.00313140
O 14.54121291 1.35078568 24.83328058 0.00035077 -0.00093234 -0.00899985
O 10.83876710 5.01889037 0.71459075 -0.00555763 -0.00307772 -0.00205820
O 14.43682650 15.01055221 7.65536918 -0.00205233 0.00657161 -0.00274172
O 11.27102411 16.16512082 15.15796860 0.00418618 -0.00296704 -0.00298659
O 10.19507146 22.93216045 0.74988194 0.00010113 0.00641902 0.00278962
O 15.35304391 21.72968179 9.29682972 0.00322607 0.00281202 -0.00051981
O 11.36400077 22.83205847 9.16663232 0.00344893 0.00370350 0.00145249
O 14.36357529 21.81453671 1.22719507 -0.00242996 0.00578821 -0.00143072
O 15.61568221 15.07799726 15.86569317 0.00188971 -0.00445418 0.00753461
O 10.45170813 16.09494832 6.94123027 -0.00263813 0.00475473 -0.00054963
O 14.71475066 13.80328699 17.80179223 -0.00569318 -0.00068856 0.00193668
O 10.54713775 17.67703926 9.01931647 0.00189538 -0.00416109 -0.00077508
O 10.98064995 23.84515184 6.92653307 -0.00231662 -0.00043187 0.00040785
O 14.60983450 20.47038816 32.05217958 -0.00200971 -0.00311102 0.00023512
O 10.86861174 24.40153319 31.67621926 -0.00249717 0.00652527 -0.00108757
O 15.05637211 20.37101121 7.22119735 -0.00419562 0.00476698 0.00498423
O 14.72638668 13.64129491 9.76352805 -0.00456603 0.00197958 -0.00566098
O 11.06280636 17.71592123 17.30139772 -0.00184560 0.00118534 -0.00310861
O 14.42310422 15.80342453 23.87032402 -0.00236912 0.00211534 -0.00626826
O 11.30395021 16.25202970 31.61703408 0.00109772 0.00079209 -0.00006146
O 10.08362804 22.73122489 17.47496204 -0.00231388 0.00465140 -0.00127466
O 15.27005000 22.15414443 26.04765518 0.00105302 0.00370018 0.00048811
O 11.12762946 23.19529421 25.33239334 -0.00328466 -0.00331850 -0.00574147
O 14.53510156 22.15960486 17.56700491 -0.00283656 0.00326972 0.00130181
O 15.69293265 15.63300719 32.38364474 0.00307016 -0.00042683 0.00174640
O 10.02891122 16.90440090 23.40937025 -0.00795602 0.00276832 -0.00538562
O 15.37117345 14.26902102 1.45195909 -0.00044461 -0.00023045 0.00163951
O 10.43247484 18.31862725 25.58622101 0.00061158 -0.00801933 0.00091715
O 10.67501519 24.65235034 23.24857709 -0.00660965 -0.00281812 -0.00412406
O 14.93176018 20.42082080 15.56161886 0.00271886 -0.00222050 0.00498353
O 10.36238681 23.94060800 15.36473454 -0.00291911 -0.00624016 -0.00680617
O 15.33065236 20.53793597 23.85700546 0.00078213 0.00028338 0.01160648
O 14.82912713 14.61559426 26.15308345 -0.00015461 0.00582032 0.00919081
O 11.06945790 17.81520427 0.90579438 -0.00050459 -0.00279695 -0.00067564
O 23.44172404 2.93495238 6.61611922 -0.00442481 0.00227813 0.00733195
O 20.11053673 3.78617842 14.87822446 -0.00548073 -0.00298125 0.00402538
O 18.49316963 10.04384186 1.82615937 -0.00223013 0.00174594 0.00321365
O 23.73176429 9.33886675 9.50678591 0.00113244 -0.00615099 0.00277639
O 19.53656047 9.79624043 10.07849111 -0.00024228 0.00258085 0.00317184
O 22.71148647 9.23133601 1.75510515 -0.00463975 -0.00005457 -0.00532733
O 24.09197292 2.70236827 14.96450707 -0.00013616 0.00860726 -0.00120021
O 19.27443306 3.87458279 6.78921898 -0.00018661 -0.00465232 0.00397163
O 23.69473476 1.16058182 16.93189742 0.00212316 0.00263062 -0.00145256
O 19.38709290 5.44531840 9.11674621 -0.00353578 -0.00065425 0.00017508
O 19.33504364 11.41307691 8.01291220 0.00762349 0.00162368 0.00992225
O 22.97926397 7.74270572 32.48611642 0.00300756 0.00039623 0.00280895
O 19.04954647 11.43693315 32.46166718 0.00010220 -0.00104183 -0.00248568
O 23.80896416 7.64472853 7.60095478 -0.00129217 0.00183160 0.00312896
O 23.41762925 1.37016133 8.74400564 -0.00816741 0.00587693 0.00443326
O 19.59265633 5.08880693 17.06866089 -0.00074452 -0.00527310 -0.00450579
O 23.34514126 3.13576374 23.02276893 -0.00148772 -0.00429305 0.00291761
O 19.84463351 3.98496136 31.58158332 -0.00171024 -0.00495471 -0.00097272
O 18.92821130 9.94109644 18.36620626 -0.00059582 -0.00930149 -0.00356512
O 23.31694473 8.92350562 26.23839752 0.00420794 0.00836734 -0.00605598
O 19.30089096 10.36223561 26.21947211 0.00552351 -0.00042760 0.00006048
O 22.80623056 8.78485581 18.02422756 -0.00499823 0.00356343 0.00220518
O 23.73741327 3.13281090 31.09059177 0.00135912 0.00026693 0.00073187
O 18.40814153 4.14283276 23.38403963 -0.00371041 0.01075909 0.00396307
O 23.57555344 1.39073245 0.23046900 -0.00011183 -0.00209330 0.00058797
O 19.07940708 5.51680373 25.65864250 -0.00018217 -0.00127916 0.00068108
O 18.85382259 12.00898843 24.27197128 -0.00109910 0.00261761 -0.00144323
O 23.53497195 7.62023557 15.74338128 -0.00130652 0.00457507 0.00542415
O 18.73938272 11.39059947 16.12763057 -0.00084859 -0.00330085 -0.00080906
O 22.66202551 7.17997567 24.07854941 0.00227860 0.00179620 0.00006116
O 23.21830558 1.40204635 25.02369309 0.00539590 -0.00131847 -0.00185877
O 18.80290485 5.52745122 0.77797627 0.00154159 -0.00794360 0.00541712
O 23.07026980 15.26399324 7.72805706 -0.00283335 0.00217184 0.00138080
O 19.39524248 16.06111333 15.00481045 0.00052333 -0.00531054 0.00070253
O 18.39980550 23.01068543 0.68794457 0.00001906 0.00511798 0.00099920
O 23.88672231 21.69362373 9.30025168 0.00717511 -0.00429500 -0.00820579
O 19.61967072 22.77384806 9.19248881 -0.00193819 0.00689024 -0.00248761
O 22.71264035 21.96987739 1.14792982 0.00248965 -0.00411502 -0.00000209
O 23.92886484 15.27233154 15.71651628 0.00550319 -0.00312560 0.00360715
O 18.75012719 16.04503213 6.81431724 0.00000097 0.00197097 -0.00551249
O 23.04725237 13.68596868 17.56628269 -0.00160832 -0.00663605 -0.00201019
O 18.88032895 17.62628231 8.75643236 -0.00036711 0.00467058 0.00383405
O 19.46194334 24.10215035 6.89755027 -0.00210116 -0.00527620 -0.00159864
O 22.91097942 20.49457383 32.07428431 -0.00327469 -0.00242624 -0.00242380
O 19.18213800 24.38143627 31.62529578 0.00090115 0.00231400 0.00443897
O 22.94603559 20.17509887 7.16686930 -0.00588493 -0.00438990 -0.00248745
O 23.93549741 14.05816059 9.74112833 -0.00415528 0.00477344 0.00548149
O 19.02605406 17.70112114 16.95508989 0.00145617 -0.00065202 0.00137880
O 22.94603234 15.27790996 23.86772013 0.00300883 0.00128022 0.00654575
O 19.59742210 16.32607943 31.63533008 0.00277617 -0.00055324 -0.00141622
O 18.80330637 22.70063756 17.43055710 -0.00006450 0.00431823 -0.00252241
O 23.94553990 22.07280009 26.10189717 0.00299253 -0.00238694 0.00164367
O 19.71843843 23.35846182 25.45206608 0.00603321 -0.00559323 -0.00037349
O 22.53978391 21.72260772 17.72744727 -0.00162048 0.00135557 -0.00238144
O 23.84912409 15.44596851 32.03952348 0.00370173 -0.00211731 -0.00071630
O 19.10700926 16.48640801 23.35099429 -0.00189516 -0.00490988 -0.00403152
O 23.40106711 14.30772244 1.38534777 0.00205152 0.00654687 -0.00372804
O 19.05569451 17.99975885 25.45651414 -0.00498761 -0.00456306 0.00400547
O 18.98374902 24.61134263 23.31979010 0.00040770 -0.00659619 0.00330095
O 23.09460480 20.37953399 15.55061011 0.00296302 0.00597491 0.00031228
O 18.61637699 24.23260570 15.29546395 0.00126630 0.00198734 -0.00051732
O 23.58661226 20.59977009 23.89885928 -0.00226832 -0.00040504 -0.00058657
O 23.76004350 13.81023498 25.90291996 0.00172801 -0.00547960 0.00046382
O 19.48581781 17.86997753 0.70012031 0.00099117 0.00094508 -0.00656491
N 7.72050657 13.07792614 2.70754370 -0.00183238 -0.00133416 -0.00288257
N 1.25176660 6.27959856 10.53785050 0.00067931 -0.00332539 0.00406680
N 3.33687193 25.51475994 5.66391901 -0.00199230 0.00337520 0.00036175
N 5.26887068 6.09288131 14.22766515 -0.00183451 -0.00092501 -0.00693954
N 1.05821765 25.54616980 13.80945076 -0.00466910 -0.00458667 0.00379800
N 7.47308471 6.11528040 6.02217644 -0.00124201 0.00202283 0.00058245
N 5.31265543 12.85809266 10.86874306 0.00543916 -0.00175864 0.00203900
N 3.25482968 5.97089331 2.53864868 0.00432160 0.00479712 0.00380585
N 7.51584466 12.76146748 19.64653349 -0.00135335 0.00042491 0.00221038
N 0.68392508 6.33737814 27.21922071 0.00180666 -0.00560862 -0.00265307
N 3.50904431 25.46871847 21.94661372 -0.00459433 -0.00075810 -0.00112252
N 5.28486620 6.62136843 30.75374571 0.00008499 0.00432170 0.00209506
N 0.95770750 0.04772440 30.05334932 0.00428745 0.00645294 -0.00099611
N 7.46208365 6.57999531 22.54547807 0.00190236 0.00083115 0.00383590
N 4.77765898 12.98187665 27.66602526 0.00216347 0.00378558 -0.00573933
N 3.12567320 6.30670253 18.90592043 0.00098431 0.00625591 0.00453478
N 7.46451712 25.47698817 1.91598954 0.00290505 0.00499462 -0.00063628
N 0.80656117 18.91044969 10.64531968 -0.00243881 -0.00016271 -0.00221888
N 3.31965423 12.79096522 6.18921290 0.00495479 -0.00502995 -0.00176569
N 5.36990739 18.99458881 14.05114864 -0.00080588 -0.00012322 -0.00216526
N 0.77192252 12.73745676 14.20471970 -0.00276881 0.00160077 -0.00469623
N 7.54540918 19.08264416 5.93304953 0.00436477 0.00189133 -0.00083713
N 5.37160776 25.37694015 10.59856762 0.00327333 0.00246729 0.00113009
N 3.47847494 18.96072082 2.56790514 0.00191182 -0.00179538 -0.00224481
N 7.52195894 25.41184614 18.62383984 -0.00050140 -0.00724258 -0.00240949
N 0.47305153 19.03933741 27.31356063 -0.00427049 -0.00550958 -0.00446683
N 3.19528954 12.49670937 22.59737634 0.00109932 0.00253046 -0.00088643
N 5.31069047 19.11076024 30.61088897 0.00745587 -0.00161890 0.00010130
N 0.79252671 12.68364370 31.02252604 0.00247093 0.00303187 -0.00132495
N 7.45040027 19.26188944 22.20662603 -0.00020110 0.00149153 0.00173385
N 5.23266661 0.13617404 26.77858865 0.00383931 -0.00239809 -0.00058997
N 3.08718086 19.16534705 18.85463481 0.00844758 0.00159218 0.00425958
N 16.26208995 12.74716897 2.90068403 -0.00450814 0.00127196 -0.00624699
N 9.37897715 6.29369223 10.58601317 0.00345737 -0.00193400 -0.00549105
N 12.08781992 25.15113449 5.43147951 -0.00106224 -0.00050550 0.00276850
N 13.62525108 6.40012777 14.12661377 0.00535393 0.00948879 -0.00385651
N 9.31422495 25.13032995 13.70112783 -0.00169621 -0.00094469 0.00120061
N 16.10208372 6.56038271 5.39248356 0.00051080 -0.00052805 0.00102607
N 13.45765433 12.74349212 11.39517077 -0.00450019 -0.00169368 -0.00149813
N 12.03762868 6.12197309 2.24874163 -0.00360711 0.00510241 0.00320689
N 15.87287970 12.71044988 19.58722904 -0.00036191 0.00700192 -0.00069689
N 9.34495596 6.65193786 26.92583549 -0.00511961 0.00044224 0.00180819
N 11.80853848 0.23277450 21.53807008 0.00087457 0.00608946 0.00874352
N 13.68391159 6.70590763 30.46042234 0.00235048 0.00258222 0.00198045
N 9.52953568 25.44505844 30.19428270 -0.00202624 0.00537811 0.00273848
N 15.87009139 6.49621065 22.43347170 -0.00031618 -0.00236305 0.00470580
N 13.65729728 13.36818842 27.75058379 -0.00001820 0.00179191 -0.00218270
N 11.61952431 6.26015949 18.73675504 0.00461552 0.00301807 -0.00048596
N 15.87381691 0.16640669 1.89257724 0.00142419 -0.00231622 -0.00036693
N 9.88432189 19.10730710 10.72821441 0.00248250 -0.00275543 0.00514838
N 11.68893204 12.47094919 6.55263381 -0.00029852 -0.00474689 -0.00149302
N 14.11268470 19.05082996 13.91864838 0.00780724 0.00057735 -0.00124410
N 9.48795315 12.49041227 14.62783630 0.00074693 0.00052723 0.00079103
N 16.03361379 19.01681845 5.59117131 0.00054442 0.00251712 0.00068772
N 13.64734959 0.33236653 10.20086007 0.00259371 -0.00187854 -0.00560790
N 11.77654330 19.21706822 2.46810315 0.00388912 0.00106405 0.00227638
N 16.04696844 25.53258213 18.54567956 0.00170871 -0.00507031 -0.00682405
N 9.17279290 19.12293177 27.29361972 0.00108154 0.00471991 0.00243427
N 11.68169554 12.92521423 22.48851757 0.00563501 0.00097141 -0.00532780
N 13.51070849 19.34383029 30.44678466 -0.00087698 0.00071155 -0.00529030
N 9.41688393 12.76059923 30.95655568 -0.00113368 0.00354590 -0.00271265
N 16.24733798 19.37028602 22.11364810 0.01268474 0.00016652 0.00715692
N 13.60517340 0.06205403 26.53734806 0.00080046 -0.00062039 -0.00128021
N 11.97283537 19.07397278 18.81761204 -0.00456226 -0.00353270 -0.00288137
N 24.71084085 13.14164997 2.92009181 -0.00041732 0.00406172 0.00456967
N 17.90073235 6.45001491 10.63534421 0.00536057 0.00110610 -0.00108143
N 20.22163480 25.49269470 5.23836121 -0.00109792 0.00332974 -0.00072502
N 22.57526876 6.32022963 14.09710267 -0.00198667 -0.00368344 -0.00255462
N 18.05422571 0.23215695 13.59297788 -0.00484793 -0.00293927 -0.00577800
N 24.85591337 6.49903211 5.97272899 -0.00065321 0.00609898 -0.00414173
N 22.39788666 12.98490372 10.89553026 -0.00034370 0.00898036 -0.00185474
N 20.21188909 6.76954067 2.09229917 -0.00314926 -0.00153422 0.00630793
N 24.45056582 12.82924147 19.13850967 0.00106901 0.00553242 -0.00016051
N 17.71928962 6.53277412 27.21734048 0.00276679 0.00807942 -0.00173036
N 20.38579974 0.10118600 21.88767910 0.00437677 -0.00552650 0.00329159
N 22.45132592 6.13110542 30.93099313 0.00159262 0.00468698 0.00173188
N 17.84186790 25.51342092 30.22824952 -0.00267838 0.00604202 -0.00576460
N 24.17803665 6.14120047 22.63419969 0.00269857 0.00689836 -0.00102454
N 22.23324379 12.99174481 27.32534531 -0.00548861 0.00427222 0.00011821
N 19.89762020 6.62783578 18.67574269 -0.00077528 0.00315620 -0.00363262
N 24.44669876 0.09601427 1.97712897 0.00411357 -0.00505763 -0.00195036
N 18.02965978 18.88417143 10.45466152 -0.00088336 -0.00349662 0.00177402
N 20.27778840 12.78238105 6.38313023 -0.00362099 0.00519069 0.00635056
N 22.30110942 19.08699785 13.88716021 -0.00462815 -0.00541148 0.00192616
N 18.04745953 12.81518605 14.53362945 0.00053366 -0.00133908 -0.00451828
N 24.59248708 19.46553687 5.72440410 -0.00580695 -0.00043483 -0.00004113
N 22.40416447 0.15353613 10.36403414 -0.00658802 -0.00163508 0.00269193
N 20.54090662 18.93487069 2.44138392 -0.00345030 0.00309724 -0.00004528
N 24.75063965 0.09976463 18.62904514 -0.00044410 0.00144036 0.00453646
N 17.82790225 19.05454689 27.11338395 0.00339053 0.00392468 0.00656734
N 20.17469680 13.07605001 22.79018006 -0.00032485 -0.00151522 0.00313513
N 22.13688705 19.23775388 30.39693930 0.00245532 0.00740408 -0.00042262
N 18.23353018 12.98196919 30.95206629 -0.00316378 -0.00135521 0.00312201
N 24.42628246 19.32964181 22.26835681 -0.00082160 -0.00194652 -0.00249988
N 22.21193844 0.14154050 26.63712866 0.00229188 0.00262671 0.00259419
N 20.29824318 18.89180620 18.51225623 -0.00100458 0.00197340 -0.00103875
C 7.61524759 0.08479190 4.32639078 -0.00447789 0.00254413 -0.00153019
C 0.96203411 5.96186593 12.89107154 -0.00506483 0.00179785 -0.00052165
C 3.56817767 12.38082410 3.85306710 0.00496662 0.00493263 -0.00282168
C 4.89055151 6.59651915 12.00498779 -0.00150398 -0.00641874 -0.00199289
C 0.90694856 12.54599146 11.76987977 0.00333249 0.00066808 -0.00497755
C 7.66976056 6.36075166 3.63126807 -0.00494608 -0.00149045 -0.00611428
C 5.22684047 0.38739759 12.97878531 0.00640010 -0.00095428 0.00627465
C 3.35577357 5.76222392 4.89845138 0.00424488 -0.00254832 0.00010435
C 7.36994163 0.80088356 5.47426038 -0.00063008 -0.00359610 0.00334542
C 1.28244221 5.49531724 14.09348884 -0.00690023 0.00223263 0.00452710
C 3.39468792 11.63027599 2.67590521 0.00301195 0.00203175 0.00110447
C 5.34539976 7.10310475 10.81846080 0.00911709 -0.00687425 0.00358830
C 1.34185071 11.77758833 10.70080409 -0.00290556 0.00461462 0.00333469
C 7.52761560 7.09186816 2.45759171 0.00273331 -0.00180607 -0.00105387
C 5.54234004 1.16677597 14.09948578 -0.00409873 0.00144895 -0.00537008
C 3.00260242 5.13842470 6.07786345 0.00364589 -0.00278841 -0.00558348
C 6.52492362 1.90438462 5.46651637 -0.00928548 -0.00172366 0.00739703
C 2.13322022 4.34683517 14.21833612 -0.00227963 -0.00826508 -0.00454212
C 2.67070558 10.43296980 2.76571062 0.00088981 0.00013379 0.00050931
C 6.14564722 8.24285257 10.89603446 0.00446785 -0.00326753 0.00631571
C 2.00868513 10.52134848 10.93649099 0.00324342 -0.00336845 0.00088546
C 6.70942306 8.26056240 2.41616831 -0.00719291 0.00122502 -0.00119839
C 6.36482191 2.27418065 13.86994890 -0.00890717 -0.00278150 0.00565255
C 2.24697210 4.01093730 6.16023551 0.00461389 0.00450644 0.00141497
C 6.19850579 2.44122296 4.18614029 0.00781391 -0.00382428 -0.00328099
C 2.33342220 3.60396434 12.97349313 -0.00577296 -0.00630995 0.00096612
C 2.40514561 9.86138816 4.04908180 -0.00169555 0.00315373 -0.00593629
C 6.55416043 8.78244374 12.09043684 0.00139759 -0.00570447 0.00001031
C 2.25523977 10.02558802 12.20202978 -0.00494495 0.00128273 -0.00441854
C 6.24054258 8.79586579 3.63869035 0.00051451 -0.00253059 -0.00797580
C 6.57268347 2.77104125 12.61772936 0.00245152 -0.00436438 -0.00156940
C 2.00497393 3.37882518 4.87710684 -0.00058836 -0.00219191 0.00373680
C 6.47696775 1.80975462 3.02204671 0.00341997 0.00505441 0.00255953
C 1.97697984 4.12220322 11.72072760 0.00021757 0.00060691 -0.00008439
C 2.69025915 10.57014305 5.16573808 0.00193859 0.00134678 0.00290758
C 6.33029051 8.08052653 13.23794128 0.00029183 -0.00739996 -0.00496106
C 1.85499416 10.82209988 13.28157206 0.00190769 0.00255634 0.00378159
C 6.65799078 8.19045607 4.81567992 -0.00942306 -0.00518338 0.00133856
C 6.07948170 2.09447347 11.47917458 -0.00154606 -0.00172204 -0.00385882
C 2.35528074 3.93748607 3.68212947 0.00313894 0.00561209 0.00051310
C 7.19217958 0.59737243 3.11597611 -0.00159696 -0.00507669 0.00094139
C 1.43211594 5.45866700 11.67344389 -0.00498975 -0.00127776 -0.00721282
C 3.20815082 11.91035651 5.11383966 0.00045263 -0.00123487 0.00376818
C 5.47518138 7.00166024 13.23082731 -0.00008868 -0.00008995 -0.00396448
C 1.27374205 12.10273708 13.07993746 0.00208288 -0.00128333 0.00492588
C 7.28147904 6.88938395 4.88096894 -0.00035153 0.00482238 -0.00072982
C 5.58252300 0.71517029 11.66504831 -0.00246904 -0.00056364 0.00981378
C 2.97385391 5.23125121 3.69516180 0.00407932 0.00571926 0.00132160
C 7.03949712 0.16867136 0.69065846 -0.00513493 -0.00232117 0.00186036
C 1.99046367 6.10860732 9.43149505 0.00023242 -0.00425089 -0.00512757
C 2.82793278 12.48581613 7.44788295 0.00358503 0.00154858 -0.00005858
C 5.82432059 6.27394760 15.50211819 0.00691707 0.01240896 0.01525751
C 1.24638051 12.64457293 15.50089409 0.00356056 0.00217476 0.00004705
C 6.82399091 6.42077572 7.25131278 0.00001888 0.00278082 0.00557059
C 5.87597940 0.00301792 9.32616203 0.00774993 -0.00074464 0.00600074
C 2.67314124 5.88123015 1.33363056 -0.00074977 0.00600098 -0.00472423
C 7.10845837 11.61404590 17.54308394 -0.00004097 -0.00363468 -0.00252474
C 1.81465311 7.26995159 8.47704382 0.00038156 -0.00398156 0.00096441
C 2.76972084 0.91142385 7.80627831 0.00481992 -0.00680141 0.00171087
C 5.62830581 5.47137405 32.81767127 0.00215720 0.00506833 0.00561795
C 1.35490093 1.00853026 32.25443326 -0.00719445 0.00277732 -0.00653239
C 6.91151329 5.31253865 8.30083653 0.00117280 -0.00446383 -0.00040852
C 5.60553588 11.65898815 8.80523608 0.00644790 -0.00278479 0.00037352
C 2.49875143 7.25173898 16.73912848 -0.00057954 -0.00057517 -0.00720277
C 7.56852455 0.18378343 20.96379221 -0.00349062 0.00114895 0.00073713
C 0.93486631 6.18922902 29.63419675 0.00055523 0.00232177 -0.00739831
C 3.37582760 12.06831933 20.20401720 -0.00749117 -0.00158178 -0.00208615
C 5.42629326 7.05655068 28.43149290 -0.00534597 -0.00276825 0.00551227
C 0.64372060 12.26218903 28.64583814 -0.00112219 0.00301102 -0.00082213
C 7.63997847 6.90179597 20.20085943 0.00066413 0.00729811 -0.00123169
C 5.01916161 0.53809455 29.20753944 0.00233887 -0.00527525 -0.00383096
C 3.34446385 6.15392782 21.31479152 0.00440768 0.00605707 -0.00383886
C 7.19722990 0.92046340 22.08414322 -0.00212575 0.00801494 0.00271303
C 1.23454367 5.50654001 30.79467962 0.00147506 -0.00292806 0.00140078
C 2.97040141 11.38424488 19.09490967 -0.00044550 -0.00680677 0.00205997
C 5.67633570 7.74665495 27.23175124 0.00040657 0.00361556 -0.00471036
C 0.85922116 11.59737280 27.43532528 -0.00391615 -0.00589444 0.00345381
C 7.28335860 7.49360849 19.02725564 0.00259712 0.00185706 -0.00301961
C 5.66915774 1.01084349 30.37440365 -0.00334950 0.00181744 -0.00518178
C 3.12155394 5.56948831 22.54410905 0.00620742 0.00176164 -0.00034657
C 6.62936263 2.22836023 21.94850773 -0.00002783 0.00776793 0.00349323
C 2.19168943 4.39723661 30.71011963 0.00066785 -0.00135163 0.00816716
C 1.97346874 10.40072820 19.19626215 -0.00411222 0.00174155 0.00238812
C 6.41856661 8.92352053 27.33765434 -0.00144937 0.00512695 -0.00279005
C 1.73747963 10.51184323 27.47150905 0.00796283 -0.00196501 -0.00453689
C 6.34136642 8.55989550 19.05152124 0.00224606 0.01029952 0.00660856
C 6.38092832 2.19644965 30.31396946 -0.00708688 0.00214963 0.00333359
C 2.29560308 4.42516204 22.62616782 0.00261085 0.00333601 -0.00732647
C 6.37666931 2.74276018 20.65929491 -0.00975437 -0.00506497 -0.00502227
C 2.39553039 3.89257412 29.40248933 0.00170440 -0.00170290 -0.00395046
C 1.56337492 9.95571676 20.47798405 0.00203289 -0.00135477 0.00313445
C 6.63277440 9.46333688 28.67410056 -0.00348252 0.00027415 0.00345364
C 2.14072772 10.00888102 28.73997126 0.00787776 -0.00125015 0.00240244
C 5.95666661 9.12368639 20.29296910 0.00323512 -0.00033669 0.00263162
C 6.58602493 2.73463444 29.03851948 0.00491572 0.00415356 0.01170882
C 2.09772270 3.71420610 21.39266145 -0.00170187 0.00446827 -0.00004203
C 6.67678205 1.99892325 19.55484622 -0.00023105 -0.00553671 0.00679219
C 1.87499770 4.46433890 28.27252856 0.00058481 -0.00109322 0.00544314
C 2.01961431 10.61157278 21.61490420 0.00421775 0.00546283 0.00426693
C 6.17805038 8.78819423 29.81016522 -0.00101957 -0.00385375 -0.00140540
C 1.76528333 10.62980483 29.94320968 -0.00287698 -0.00505996 -0.01213315
C 6.27604275 8.48523058 21.50331289 0.00380426 -0.00764751 0.00198958
C 6.19518251 2.14399519 27.85973873 0.00282210 -0.00468263 -0.00100837
C 2.37198305 4.30431273 20.16841922 -0.00378260 0.00329627 0.00107950
C 7.26864548 0.70433275 19.71954254 -0.00324080 0.00070543 0.00103077
C 1.18497597 5.67091924 28.38614134 0.00197454 -0.00181190 0.00402473
C 2.89731825 11.72538972 21.48015892 0.00164549 -0.00054360 0.00864496
C 5.63868263 7.48767665 29.70555952 -0.00052958 0.00560881 0.00227932
C 1.06784720 11.84621270 29.91122619 0.00294431 -0.00142145 0.00069064
C 7.06701182 7.33021528 21.43356952 0.00132648 0.00340173 -0.00057612
C 5.49755912 0.93175142 27.91263126 -0.00267500 -0.00069165 0.00077626
C 2.97210335 5.54058059 20.10891813 -0.00543276 -0.00252338 -0.00288879
C 7.07520723 0.07412697 17.30155565 0.00125773 -0.00537508 -0.00660206
C 1.28185766 6.38814038 26.00973821 -0.00078104 0.00561638 -0.00230266
C 2.34828322 12.49898291 23.78908047 0.00171281 -0.01024847 0.00180879
C 5.93987438 6.62636082 31.93553237 0.00206638 -0.00009590 -0.00346456
C 1.47561158 12.60888294 32.22279219 -0.00197680 0.00297758 0.00173660
C 6.81174361 6.79401274 23.74834655 0.00073721 0.00252325 -0.00383455
C 5.74231066 0.30961597 25.54680153 0.00603011 -0.00731500 -0.00256625
C 2.38253724 6.15076295 17.75766800 -0.00032733 -0.00461869 -0.00098005
C 7.23940976 11.92848396 0.78981084 0.00282353 -0.00389905 0.00346384
C 0.88307187 7.39935570 24.94950271 0.00780843 -0.00342868 0.00334172
C 2.94806004 1.17326296 24.03519105 -0.00113381 -0.00147489 0.00300630
C 5.73495040 5.19344020 16.50289988 -0.00194258 0.00369628 0.00368633
C 1.32373131 0.85802613 16.06791375 0.00251680 -0.00278024 -0.00441479
C 7.01674754 5.65238216 24.78411650 0.00246806 -0.00974484 0.00333561
C 5.09266338 12.09879067 25.49229555 0.00082849 0.00078342 -0.00213177