1920
Time=8000.00000000 pbc="T T T" Lattice="25.63270250 0.00000000 0.00000000 0.00000000 25.53511378 0.00000000 0.00000000 0.00000000 33.07279152" energy=-12252.27861023 virial="-58.96340132 16.03891548 4.02624728 16.03891548 -49.99029293 13.42056285 4.02624728 13.42056285 -53.74188943" stress="-0.00062276 0.00076022 0.00018164 0.00076022 -0.00014427 0.00070323 0.00018164 0.00070323 -0.00037815" Properties=species:S:1:pos:R:3:vel:R:3
O 5.74466770 2.67408285 7.03368399 -0.00169118 -0.00262117 -0.00122719
O 2.77770233 3.70740221 15.02994513 0.00378524 -0.00404471 0.00015678
O 1.87168888 9.50151705 1.40589557 0.00096518 -0.00177425 0.00307355
O 6.14844556 9.26940261 9.50400776 -0.00150775 0.00025932 -0.00076796
O 2.71216939 9.87652694 9.97206184 0.00729159 -0.00012716 0.00425853
O 5.47719345 8.41113227 1.06041592 -0.00397786 0.00224974 0.00455840
O 7.26587075 2.60311092 15.09471408 -0.00185361 -0.00058032 0.00207833
O 1.87977000 3.41440456 6.78948129 0.00503089 -0.00371075 0.00499372
O 6.83128071 1.17049258 17.23927598 -0.00311611 -0.00123379 0.00876109
O 1.96313023 5.02704688 8.88291929 0.00099545 0.00397537 -0.00802773
O 2.36733076 11.48052525 7.58241531 0.00588734 -0.00479935 0.00187909
O 6.72006395 7.30023932 32.21967655 0.00140333 -0.00416854 -0.00953723
O 2.35271111 11.14323680 32.46757135 -0.00510611 -0.00235235 0.00665671
O 6.31467319 7.65177778 7.53314597 -0.00098053 0.00433787 0.00727912
O 6.62743031 0.87725937 9.07146912 -0.00403899 0.00027853 0.00664851
O 2.48809546 5.24371204 17.14786581 0.00316279 0.00161940 -0.00013208
O 5.75062381 3.08853701 23.16523783 -0.00239063 0.00501109 0.00132057
O 2.44628947 3.04697734 31.31398876 -0.01006244 0.00088932 0.00390421
O 1.62633728 10.14155341 18.14840888 -0.00568424 0.00367884 -0.00353437
O 6.61034473 9.03048617 25.88205969 0.00207834 0.00572979 0.00563875
O 3.07733056 10.32622306 26.11713276 0.00186451 -0.00218155 0.00052622
O 5.70386862 9.00338361 17.92921179 0.00421883 0.00191812 -0.00120264
O 6.54652123 2.42086859 31.80349320 0.00070927 -0.00295905 0.00303029
O 1.76642453 3.39373030 23.30488680 0.00160091 0.00364515 -0.00898733
O 6.22551604 1.10657292 0.86748616 -0.00069661 -0.00290054 0.00427714
O 1.52545150 5.26257001 25.27182634 0.00151240 -0.00221998 0.00465455
O 2.38937739 11.65570154 24.09869007 0.00044921 -0.00420190 -0.00744513
O 5.98770008 7.64198435 15.81702077 -0.00009412 0.00182808 -0.00004389
O 1.76454458 11.79138728 16.01126757 0.00429089 -0.00508077 -0.00013722
O 6.62773876 7.47075774 23.85524669 0.00140831 -0.00100860 0.00208429
O 6.01475764 1.36366516 25.40259470 0.00769921 -0.00135885 0.00082857
O 2.16131658 4.74902381 0.48227658 0.00370551 0.00051302 0.00436576
O 5.21651835 15.39702397 6.78152831 0.00118972 -0.00149333 0.00249786
O 2.79875367 16.56926938 15.02290843 0.00644683 0.00257441 -0.00375529
O 1.45786127 22.93258044 1.09048870 -0.00058252 -0.00165682 0.00628731
O 7.26271415 21.78515788 9.49970631 0.00280123 0.00212928 -0.00281840
O 2.82941305 22.47974726 9.66905838 0.00517762 -0.00237519 0.00008081
O 5.39742118 22.06892478 1.32705968 -0.00309114 0.00157959 -0.00078867
O 6.94211458 15.45100949 15.25159988 0.00639676 -0.00306879 -0.00422043
O 1.21667528 16.52217416 6.69652348 -0.00413475 -0.00016694 -0.00423923
O 6.18240107 13.85244811 17.45935481 0.00365642 0.00080512 0.00104061
O 1.70296922 17.84421295 8.90704468 0.00698741 -0.00016851 -0.00013951
O 2.34414721 23.92331053 7.54507256 -0.00351938 -0.00373634 -0.00015424
O 5.74045199 20.43587149 32.38185924 -0.00035746 0.00570625 -0.00016455
O 2.03239604 24.41158288 32.24299019 -0.00420203 0.00127779 0.00912059
O 6.49366837 20.25029302 7.31863800 -0.00508504 0.00541496 -0.00126161
O 5.95718443 14.20976337 9.12003984 0.00073207 0.00134351 0.00311270
O 2.49677746 18.12384551 17.10337786 -0.00430296 0.00451132 0.00458865
O 5.93749736 15.60306163 23.43153873 -0.00439351 0.00487501 0.00614927
O 2.37504253 16.03648674 31.75827536 0.00432463 0.00197061 -0.00414942
O 1.52133326 23.36474434 17.92800971 0.00117991 0.01006822 0.00176421
O 6.80688560 21.95229365 26.18262500 0.00285058 -0.00449189 0.00054785
O 2.52642715 22.84291511 26.05445517 -0.00156999 0.00155863 0.00507157
O 6.09065895 21.77969845 17.44350391 -0.00251650 -0.00132581 -0.00037123
O 6.57006368 15.31293993 32.13279355 -0.00053389 0.00336538 0.00306064
O 1.82216771 16.51186997 23.25245058 -0.00685967 0.00474196 0.00236027
O 6.40393569 13.55187235 0.92656848 0.00426504 0.00306770 -0.00601547
O 2.36785530 17.74831452 25.51184458 -0.00066053 0.00086043 -0.00069071
O 2.20546067 24.24205497 23.95486947 0.00049562 0.00273720 0.00832473
O 6.93305601 20.27793421 15.44373438 0.00473475 -0.00224962 -0.00077451
O 2.11498472 24.35563832 15.58641308 -0.00402374 0.00068014 -0.00581419
O 6.43355488 20.70118991 23.88824788 0.00029334 -0.00868879 -0.00367312
O 6.43079310 14.36739964 25.54213361 -0.00374892 -0.00539310 -0.00642422
O 2.06086312 17.92038183 0.55557218 0.00228114 -0.00272942 -0.00278098
O 14.64866543 2.53762165 7.31016938 0.00204663 0.00226754 -0.00047757
O 11.12845276 3.58326082 15.09557119 0.00490500 0.00100061 0.00425172
O 10.48268550 9.81082643 1.51222218 0.00037920 -0.00052626 -0.00646299
O 15.54728455 9.25967423 9.31168016 0.00356014 0.00420130 0.00199960
O 10.66673602 9.98554400 9.83426581 0.00092002 -0.00170636 0.00395658
O 14.40738949 8.85810511 1.05359590 0.00419386 -0.00610171 -0.00634508
O 14.74337150 2.87369263 15.33565763 0.00651748 0.00115713 0.00407542
O 9.78039259 3.68692383 6.89537003 0.00357863 0.00353264 -0.00435662
O 15.15709358 1.24647043 17.37284003 -0.00187454 -0.00209346 -0.00135816
O 10.17799810 5.13289104 8.93903726 0.00341955 -0.00140130 0.00094301
O 10.09025050 11.48781590 7.54380864 -0.00277229 0.00083124 0.00212918
O 14.84781965 7.48514538 32.15639020 -0.00237791 -0.00471039 -0.00540983
O 10.61763566 11.43946726 32.62922519 0.00321567 0.00177487 0.00336634
O 14.85230729 7.62772423 7.40181454 0.00311145 0.00370224 -0.00516701
O 15.32025010 1.04718233 9.32812991 -0.00441794 0.00133692 0.00018353
O 10.72758419 5.46153656 16.99214431 0.00222283 0.00055698 0.00596414
O 14.92151921 2.95668081 23.51895801 0.00587889 0.00621092 0.00155358
O 11.34997733 3.25691092 31.76265263 0.00176327 0.00229702 0.00999657
O 9.89974281 10.40776923 17.98486949 0.00232028 -0.00585147 -0.00464331
O 16.00834223 8.61696308 26.22305673 0.00479791 -0.00383864 0.00250307
O 11.79528729 9.78405761 26.68037193 0.00148018 -0.00694807 0.00560529
O 14.43951021 9.36805117 17.63383340 -0.00492308 -0.00790490 -0.00249264
O 15.50720724 2.72437170 31.65056894 0.00160465 0.00756917 0.00303161
O 10.23522181 3.79122948 23.31495438 -0.00290303 0.00067009 0.00120410
O 14.85826666 1.39052261 0.84707182 -0.00035845 -0.00190799 -0.00373128
O 10.96575996 5.05676993 25.70571538 -0.00124164 -0.00281355 -0.00246337
O 11.12428987 11.08698116 24.15224869 -0.00014177 -0.00194634 0.00025911
O 14.72450434 8.04541616 15.51811672 0.00141576 -0.00141527 -0.00372939
O 10.60345996 11.87687420 15.96510056 0.00579987 -0.00197767 -0.00883190
O 15.82567277 7.97739223 23.69568612 -0.00025592 -0.00145553 -0.00152109
O 14.27659500 1.57591360 25.53803649 0.00074080 0.00116332 -0.00579997
O 10.58420345 4.76283852 0.84283646 0.00189748 -0.00817231 0.00581572
O 14.14521817 14.99237749 7.94233809 0.00008813 0.00010835 -0.00249226
O 11.98150457 16.86459019 14.96308776 0.00340346 0.00914817 0.00038294
O 9.69823080 23.14127386 1.81825834 -0.00101208 0.00777855 -0.00557648
O 15.47397356 21.85818331 9.60512158 0.00371051 -0.00391088 -0.00965784
O 11.17142851 22.44229565 9.77342310 0.00780957 -0.00128435 0.00329089
O 14.61478838 21.79305177 1.43869297 0.00033036 -0.00035647 -0.00104809
O 15.60700484 15.64227535 15.73768712 -0.00084534 -0.00578835 0.00454185
O 10.04377933 16.23309241 6.67455319 -0.00177878 0.00561060 0.00280413
O 15.34674596 14.18313240 17.81421449 0.00532356 0.00238271 0.00459504
O 10.76571151 18.01376568 8.97438080 0.00197298 -0.00114149 -0.00572136
O 10.78426719 24.31795989 7.85340791 -0.01029792 -0.00397214 -0.00107172
O 14.20913369 20.75901333 32.13064490 0.00446979 0.00827676 -0.00156048
O 10.31862190 23.69900953 32.37551550 0.00108484 -0.00551234 0.00383868
O 14.74276140 20.34813834 7.61968514 0.00795456 -0.00462265 -0.00557315
O 15.09676568 13.40683746 9.97899993 -0.00133679 -0.00170806 0.00301700
O 11.30308577 17.84309233 17.37605972 0.00129649 -0.00725247 0.00286100
O 14.63938392 15.41228287 23.92461990 -0.00131219 -0.00008374 -0.00049079
O 11.03552646 16.55952934 31.69450793 0.00140220 0.00617431 0.00182265
O 10.94849600 22.94909456 17.93603732 -0.00352736 0.00385948 -0.00169408
O 15.50435438 22.35497007 26.04787989 0.00388300 0.00337104 -0.00553052
O 10.91794633 22.62409406 26.03063057 -0.00333422 -0.00088788 -0.00347291
O 14.47368237 21.62522563 17.88781775 0.00651709 0.00033707 -0.00012799
O 14.89347002 15.57896994 32.45525939 -0.00182817 0.00436494 0.00202286
O 9.80511257 16.24954022 23.18079686 -0.00094831 -0.00811515 0.00054330
O 14.49145167 14.03002139 1.51708201 -0.00280694 -0.00313368 -0.00797922
O 10.47895900 17.67182450 25.41441541 0.00325043 0.00250496 0.00069828
O 10.74493199 24.50022606 24.07163281 -0.00647303 0.00035564 -0.00544109
O 15.42238258 20.40219483 15.94225473 0.00320377 0.00061400 0.00153493
O 11.02956370 24.70631075 15.75507321 0.00633653 -0.00156506 0.00886426
O 14.82300422 20.47213027 24.06833695 -0.00111401 -0.00134173 -0.00183778
O 14.98169601 13.92895251 26.29677028 0.00293995 -0.00024776 0.00246959
O 10.27015454 18.16234317 0.62637505 0.00798335 0.00202324 -0.00066791
O 23.29670034 2.56072447 6.75830780 0.00126080 -0.00489283 -0.00408789
O 19.56803599 3.75786207 14.82055235 0.00566946 0.00990989 -0.00101079
O 18.90231825 9.72213932 1.82347885 0.00416366 0.00252561 -0.00031619
O 24.43701853 8.89434631 9.23157738 0.00313584 0.00413676 -0.00413984
O 19.49775521 9.93847694 10.16999502 0.00323935 0.00361294 0.00033398
O 22.57539226 8.47895022 1.11602679 -0.00754779 0.00719194 0.00791013
O 23.81911481 2.59720173 15.04661301 0.00148047 0.00651402 -0.00174151
O 18.69272795 4.13532163 6.76119551 0.00048928 -0.00398587 0.00284113
O 23.30477296 1.41072654 17.32268528 -0.00124010 -0.00070950 -0.00264093
O 19.37389329 5.48471864 8.76203069 -0.00162104 -0.00348159 0.00323396
O 19.06265130 11.70786359 8.09569365 0.00460979 0.00609042 -0.00347906
O 23.39865187 7.91433459 31.88741554 -0.00293562 0.00404180 -0.00774863
O 19.15822833 11.37967014 32.94962385 -0.00171321 -0.00051861 -0.00282623
O 23.82476068 7.46991412 7.24128406 0.00480864 0.00925288 0.00144068
O 23.95895710 1.09783362 8.72848372 0.00151998 -0.00005429 -0.00117809
O 19.33385270 5.36148579 16.80521796 -0.00072146 0.00317394 -0.00018912
O 23.35378194 2.81771635 23.54595092 -0.00092803 -0.00654929 0.00808123
O 19.78283196 3.49647679 31.30723996 0.00018330 -0.00184101 0.00064239
O 18.87680197 9.87458584 18.59195850 0.00682754 -0.00991799 0.00153099
O 23.92720599 8.74810915 25.27471044 -0.00366489 0.00740562 -0.00251087
O 19.35757380 9.96529898 26.56774334 0.00598781 -0.00261543 0.00117964
O 23.03402235 9.03862595 17.26411153 -0.00191713 0.00732574 0.00430981
O 23.65625473 2.85663077 31.66255875 0.00166659 0.00575919 0.00104839
O 19.16860710 3.80577829 22.96900561 -0.00376338 0.00352638 0.00537233
O 23.21356695 1.04443703 0.64563514 0.00120401 0.00015307 0.00530294
O 19.01097959 5.15243114 25.19627777 -0.00048222 0.00238500 0.00212377
O 19.17624782 11.78090465 24.52778141 0.00311973 -0.00336701 0.00315084
O 23.89244244 7.40368389 15.45305663 0.00539601 -0.00520529 -0.00102260
O 19.15004059 11.55810018 16.56183440 0.00153771 0.00646690 -0.00147120
O 22.95770258 7.63027026 23.15138087 -0.00167126 -0.00133156 -0.00313273
O 23.57665354 1.15304082 25.60596085 0.00275551 -0.00400827 0.00200592
O 19.19536085 5.05075368 0.35332863 0.00744075 -0.00136034 -0.00249990
O 22.84665874 15.85900579 6.66850228 0.00332795 0.00311697 -0.00299812
O 20.42290154 16.79077496 15.51009034 0.00077842 0.00551364 -0.00121996
O 18.69876341 22.65953887 1.37492543 0.00141997 0.00086182 -0.00670111
O 23.33338871 22.30510080 9.21533353 0.00244726 -0.00972197 0.00697070
O 19.10335595 23.19773689 9.51116911 0.00358067 0.00112190 0.00559951
O 22.84343186 21.63603322 1.18447758 0.00264983 0.00201796 -0.00082125
O 24.52501102 15.73023603 15.16168252 0.00369947 -0.00322789 -0.00537323
O 18.66165333 16.22794485 7.07546174 -0.00754096 -0.00119503 0.00713254
O 23.91351645 14.19329123 17.35128414 0.00619960 0.00609164 -0.00534358
O 19.21928841 17.76389643 9.14958013 -0.00427277 0.00418839 -0.00809855
O 18.67863760 24.73333892 7.43439661 -0.00478856 0.00758168 -0.00023414
O 23.34941563 20.19510684 32.24288666 -0.00085267 0.00001424 0.00020034
O 19.60917929 24.01423979 32.19627122 0.00239573 0.00143778 -0.00236923
O 23.94219621 20.65491069 7.21678958 -0.00164906 -0.00873984 -0.00073847
O 22.84911956 14.30407481 9.20932826 0.00006871 -0.00242824 -0.00406396
O 19.71590729 17.81089679 17.68180156 -0.00053624 -0.00032056 -0.00020463
O 23.31735107 15.16540280 23.83955330 0.00436933 0.00031847 0.00040503
O 19.39728777 16.34319157 32.04723464 0.01010582 0.00091857 -0.00529788
O 18.99434617 22.98134019 17.77642259 -0.00159322 0.00060620 0.00187847
O 23.96195421 21.47913581 25.88767797 0.00006139 0.00310626 0.00065386
O 19.64911728 22.87190048 25.97987835 -0.00775323 0.00124245 -0.00462587
O 23.06199049 22.30569170 17.98892689 0.00445045 0.00156585 0.01108783
O 24.36524012 15.30766762 31.90034120 -0.00265090 0.00077863 -0.00021788
O 19.18767901 16.16025969 23.73446986 -0.00724590 0.00307275 0.00291889
O 23.99263427 13.77683518 0.87581419 -0.00129853 -0.00379237 0.00207150
O 19.06255904 17.77937033 25.66395409 0.00231880 0.00197111 -0.00250187
O 19.34734523 24.33860093 23.92255242 0.00331105 0.00349733 0.00214031
O 23.36530824 21.03306957 15.61338841 -0.00426124 0.00364133 0.00210858
O 19.42537960 24.48529975 15.78101053 -0.00228773 -0.00052117 -0.00550647
O 23.23950123 20.19481924 23.81934916 0.00221099 -0.00958307 -0.00189282
O 23.72940672 13.48620691 25.82009418 0.00116528 -0.00023803 -0.00800194
O 18.97776370 17.83038297 0.99685680 -0.00465580 -0.00514923 -0.00199093
N 7.77404833 12.73424093 2.49058218 -0.00048430 -0.00222240 0.00014854
N 0.91247981 6.27242754 10.53197085 0.00657119 -0.00427459 0.00354577
N 3.06035319 25.25648163 5.82570457 0.00288430 -0.00294448 0.00462050
N 5.53832900 6.17423951 14.08638483 -0.00153572 0.00818079 -0.00810206
N 0.91320300 25.42043531 13.90363479 -0.00125326 0.01664113 0.00235225
N 7.53994134 6.60753263 5.86393559 0.00181258 -0.00145687 -0.00296789
N 5.01363443 12.95397490 10.77269720 -0.00058604 -0.00643883 -0.00411071
N 2.79002413 6.21569746 2.04275305 0.00422611 -0.00610263 -0.01001883
N 7.48559062 12.80613683 19.01213650 0.00020664 -0.00405125 0.00047357
N 1.12640309 6.45680167 27.19731579 -0.00809194 -0.00474135 0.00327767
N 3.22254602 0.20480804 22.57392250 -0.00186929 0.00302014 -0.00069795
N 5.28117973 6.36125433 30.68242964 0.00165209 0.00332617 -0.00904855
N 0.87192677 25.50780678 30.55791085 0.00383512 0.00675881 0.00463052
N 7.82890963 6.32559414 22.27242626 -0.00464322 -0.00390022 0.00654682
N 5.50370733 12.97751873 27.14844000 0.00369243 -0.00116132 -0.00184890
N 3.23548414 6.48828101 18.88277310 -0.01269612 -0.00096180 0.00303686
N 7.52937212 0.09133742 2.49024940 0.00253260 -0.00064694 0.00571152
N 1.00114577 19.35117955 10.55626640 0.00052103 -0.00328406 -0.00088540
N 3.19527591 12.68025508 5.82662537 0.00203317 -0.00428298 0.00999116
N 5.40651781 19.37345112 13.99288266 -0.00425020 -0.00395378 -0.00044826
N 1.12755485 13.11514006 14.23556820 -0.00436707 -0.00225278 -0.00129548
N 7.60075997 19.26494322 5.53757556 0.00959720 0.00365205 0.00850021
N 4.87783782 0.37680137 10.58086353 -0.00497583 0.00145035 -0.00461392
N 3.23932310 18.93166166 2.26294795 -0.00071667 -0.00383073 0.00282925
N 7.80563544 0.11532036 19.03999656 0.00339942 -0.00308083 0.00170834
N 1.23116693 19.02746493 27.11505555 0.00236416 -0.00485811 0.00357242
N 3.89751233 12.62398248 22.58680342 0.00422134 0.01130496 -0.00105626
N 5.11844065 19.12597741 30.61968486 -0.00259173 0.00492639 -0.00075186
N 1.12194306 12.37932210 30.88858380 -0.00292662 -0.00369908 -0.00310755
N 7.66804028 19.64731145 22.23246119 -0.00401076 -0.00300384 -0.00488212
N 5.20347889 25.39553943 27.02172963 -0.00319308 -0.00217487 0.00311062
N 3.54876776 19.29132551 18.78327507 -0.00354087 -0.00611628 0.00041318
N 15.77408999 12.87970289 3.02962621 -0.00197204 0.00093057 0.00183417
N 9.53260274 6.57140694 10.55892323 -0.00191454 -0.00674486 -0.00174731
N 11.66547276 0.08124720 6.24250587 -0.00269610 0.00189596 0.00128095
N 13.82237302 6.71036349 13.86153536 0.00077258 -0.00187202 -0.00301002
N 9.84967032 0.11788609 14.02675107 0.00033331 0.00457150 -0.00164972
N 16.04794553 6.57380228 5.75827177 -0.00504290 0.00540510 0.00288555
N 13.72272721 12.64953095 11.56083026 0.00032218 0.00010472 0.00042949
N 11.78941860 5.94760417 2.35952872 0.00263182 -0.00025237 -0.00434975
N 16.24594788 12.86456854 19.35982708 -0.00813248 0.00384517 0.00088114
N 9.35289524 5.81404878 27.27245053 -0.00125606 -0.00272645 0.00576893
N 12.00443636 0.20419603 22.53523678 -0.00599199 -0.00367648 0.00115206
N 13.73159993 6.32297798 30.56617605 -0.00555437 -0.00052621 -0.00101249
N 9.42717107 25.06409726 30.66660591 0.00758529 -0.00565891 -0.00051889
N 16.38918925 6.56984003 21.96015696 -0.00442465 -0.00644430 -0.00220331
N 13.89739532 12.74479307 27.89254350 0.00275641 0.00530454 -0.00450002
N 11.99820598 6.32983952 18.73475316 -0.00007467 0.00358915 0.00396820
N 16.15706832 0.40320426 2.40367896 -0.00328726 0.00649743 -0.00476045
N 9.54406663 19.23303929 10.52451460 -0.00744780 0.00046320 -0.01231387
N 11.37151238 12.70870252 6.10059326 0.00068595 0.00504200 -0.00310219
N 14.01152486 19.40745130 14.38122076 0.00174969 -0.00401864 -0.00136536
N 9.43474330 13.03166296 14.34029903 -0.00171797 0.00147178 0.00662031
N 15.77540847 19.09599121 6.07209920 -0.00096404 0.00560534 0.00828143
N 13.78271133 0.04162427 10.69955085 -0.00506201 -0.00351437 0.00324323
N 11.66111852 19.07457676 2.21337733 -0.00116811 0.00197570 -0.00007171
N 16.16388244 0.03510553 18.99228296 0.00102175 0.00225484 0.00148911
N 9.61412857 19.08681665 26.99793557 0.00649030 -0.00038370 0.00472936
N 11.94926659 12.47636798 22.53191587 -0.00225583 -0.00478158 -0.00386894
N 13.60198537 19.39841760 30.42906310 0.00005096 0.00020216 0.00623277
N 9.22405510 12.26193792 31.00962433 0.00574162 -0.00281998 -0.00556542
N 16.35938162 19.56087991 22.59598946 0.00324115 0.00181069 -0.00189857
N 13.69323286 0.13589171 27.18217984 0.00349511 -0.00554871 -0.00240158
N 12.38535834 18.99927317 19.06019831 -0.00247830 -0.00170268 0.00295680
N 24.45177181 12.39149188 2.60011730 -0.00124129 0.00012067 0.00248432
N 18.07155748 6.54797449 10.25462019 -0.00434171 0.00054268 0.00571099
N 20.21692521 25.37284002 5.92193824 -0.00396822 -0.00491351 -0.00642115
N 22.63520070 6.52948565 13.76889773 0.00311713 -0.00257151 -0.00288425
N 18.23753110 0.22310104 14.30412902 -0.00239439 -0.00011754 -0.00450045
N 24.92297986 6.31624844 5.61171160 -0.00655091 -0.00590328 0.00429644
N 22.39960898 12.86167013 10.93069063 0.00038370 0.00380529 0.00121406
N 20.48892570 6.20959342 1.85342014 0.00824023 0.00565833 -0.00146252
N 25.07646572 13.08296438 18.98947107 -0.00223503 0.00351616 0.00349004
N 18.41725077 6.51332247 26.91503611 0.00210919 -0.00372785 -0.00206825
N 20.18278487 0.22931548 22.39207491 -0.00331185 0.00580708 -0.00362904
N 22.18489914 6.86330005 30.25883687 0.00309775 -0.00305934 -0.00799153
N 18.23031048 25.19249480 30.75762264 0.00458941 0.00215264 -0.00348164
N 24.53735379 6.59905118 21.90152111 0.00113452 0.00649071 0.00175011
N 22.46407491 12.58073760 27.51305511 -0.00036283 -0.00088478 0.00553751
N 20.28974048 6.72460139 18.37653453 -0.00688940 -0.00320413 0.00242977
N 24.33350800 25.30933905 2.10907652 0.00291902 -0.00155293 -0.00211423
N 18.08854024 18.78895395 10.80884923 0.00013741 0.00042988 -0.00147125
N 20.13937971 12.73115290 6.32665750 -0.00385851 0.00196649 0.00602181
N 22.74367581 19.56046701 13.95904646 -0.00476338 -0.00145749 0.00776295
N 18.44021038 12.90323042 14.80125106 -0.00122345 -0.00028104 -0.00504046
N 24.38756837 19.02316649 5.78568715 -0.00031012 -0.00472277 -0.00098330
N 22.25506775 0.47766146 10.16100393 0.00451158 -0.00006745 -0.00558567
N 20.32172315 18.79929464 2.57499839 0.00284658 0.00005728 -0.00448859
N 24.40728404 0.01282068 18.78936685 0.00734140 0.00439597 -0.00560802
N 18.06177342 18.99856777 27.30959102 -0.00061788 -0.00088447 0.00605279
N 20.44591501 12.92112779 22.98665917 -0.00246613 -0.00027689 -0.00237799
N 22.23971878 19.12184342 30.47825621 -0.00004244 0.00389016 -0.00840553
N 18.06519946 12.58551485 31.30903525 -0.00500708 0.00180842 0.00141010
N 24.76031302 19.41228190 22.27756608 0.00202207 -0.00077217 -0.00017571
N 22.24701229 0.03537205 27.12556122 0.00643286 0.00796197 0.00065939
N 20.76299245 19.06382689 19.27961111 0.00480279 -0.00473222 0.00172964
C 7.53201577 0.39904337 4.85123771 -0.00224530 0.00074864 -0.00886520
C 1.18823029 6.13362325 12.89557859 -0.00342705 0.00071198 0.00707649
C 3.26148271 12.19852102 3.52475634 -0.00238414 -0.00193070 -0.00423156
C 5.20112395 6.55215321 11.76959960 0.00185681 -0.00289335 -0.00103634
C 1.02247296 12.48647729 11.92715161 0.00442687 0.00257894 0.00349079
C 7.65106258 6.77953683 3.56794347 -0.00309403 0.00255970 0.00041619
C 5.17295226 0.37419739 13.01632803 -0.00758042 0.00048031 0.00284025
C 3.15406777 5.85418863 4.46438767 -0.00858410 -0.00525356 0.00404711
C 7.19337762 1.13350056 5.97717907 0.00804884 0.00233004 -0.00555556
C 1.50603162 5.38839268 14.03176557 0.00348512 0.00120575 0.00635305
C 2.90610564 11.46184219 2.39345321 -0.00245853 0.00384114 -0.00107677
C 5.34605097 7.31576596 10.64177138 0.00644150 0.00073216 0.00067525
C 1.28554845 11.70606332 10.86963943 -0.00349018 0.00387316 0.00060371
C 7.16219312 7.13121131 2.32608523 0.00076720 0.00408584 0.00422375
C 5.64949337 0.97596336 14.15458520 -0.00976861 0.00542613 -0.00039308
C 2.96280830 5.12028749 5.60559284 0.00043145 -0.00397244 0.00437023
C 6.26312089 2.13684814 5.92268416 -0.00166850 -0.00268182 0.00487246
C 2.20683235 4.21383416 13.93179486 -0.00352252 0.00331899 -0.00834289
C 2.12628247 10.30022526 2.50309735 -0.00361308 0.00287628 -0.00683770
C 6.00881890 8.57130931 10.68222891 -0.00405402 -0.00000804 -0.00392545
C 2.08281472 10.56032290 10.98370140 -0.00686152 0.00474022 -0.00000224
C 6.17667063 8.15693355 2.19599103 0.00367102 0.00452939 0.00360055
C 6.57089106 2.07643418 14.06925121 0.00597639 0.00540722 -0.00204722
C 2.14339683 4.02869663 5.61736026 0.00851777 -0.00404876 0.00600306
C 5.87859286 2.57459648 4.63477052 -0.00711821 -0.00140070 0.00390052
C 2.32640696 3.54972946 12.68686872 0.00514162 0.00382069 -0.00446352
C 1.72414213 9.96085106 3.79988978 0.00315131 0.00570213 -0.00176005
C 6.49035828 9.01900320 11.96847391 -0.00194998 0.00238383 -0.00738436
C 2.37928778 10.19288092 12.29672864 0.00043565 0.00836627 0.00089079
C 5.94723032 8.91393606 3.41642363 -0.00206572 -0.00648599 -0.00320946
C 6.65924887 2.73781095 12.78441854 0.00198829 0.00103510 -0.00005003
C 1.65617778 3.57657513 4.35047087 -0.00415943 -0.00730138 0.00515347
C 6.20269885 1.91984774 3.48787581 -0.00457608 0.00209933 0.00667463
C 1.82716311 4.17011376 11.58562637 -0.00362814 0.01442459 0.00325699
C 2.14180537 10.68137518 4.91920188 0.00161560 0.00300292 0.00486879
C 6.09211246 8.34691004 13.10806342 -0.00733319 0.00444594 -0.00857342
C 1.99817089 10.90034109 13.44367268 -0.00411245 0.00762660 0.00623863
C 6.30007399 8.51648545 4.65455346 0.00054302 0.00131014 0.00900976
C 6.23402053 2.07422874 11.62499969 0.00397995 -0.00542458 -0.01304053
C 1.91287069 4.25752924 3.19134609 -0.00045471 -0.00145263 0.00044873
C 7.09245222 0.83910504 3.60172276 0.00065957 -0.00391385 0.00485147
C 1.28055459 5.51101066 11.62015539 0.00040955 -0.00123108 -0.00109714
C 2.89305622 11.81008804 4.74486801 -0.00164154 0.00043980 0.00099665
C 5.61443297 7.02689807 13.02162543 0.00097626 0.00519079 0.00071446
C 1.32587019 12.11194159 13.24027727 0.00447136 -0.00208595 0.00187821
C 7.08516951 7.36796451 4.70456334 -0.00266646 0.00058772 -0.00062356
C 5.48050259 0.93569540 11.77792900 -0.00363357 0.00254644 -0.00352059
C 2.71248993 5.44276217 3.18497971 -0.00325523 0.00351614 -0.00965790
C 6.82451013 0.10936339 1.27839889 -0.00523687 0.00819045 -0.00388374
C 1.50635511 6.11025117 9.26394225 0.00050144 -0.00479555 0.00056953
C 2.66005670 12.58871925 7.09118799 0.00614276 -0.00585163 -0.00446786
C 5.72306800 6.50350440 15.35480913 -0.00467384 0.00315723 0.00161888
C 1.49240376 12.89213704 15.53944038 -0.00792321 0.00247133 0.00920631
C 6.83198075 6.65556648 7.08286173 0.00287513 0.00581924 0.00131373
C 5.72456646 0.14445633 9.51045643 -0.00465390 -0.00927804 0.00450683
C 2.41974025 5.90487157 0.76133434 -0.00078233 -0.00040955 0.00309261
C 7.02951349 11.72783676 16.85997765 -0.00477211 -0.00873422 -0.00149369
C 1.55056689 7.34963770 8.29247381 0.00118931 0.00480168 -0.00352849
C 2.53128185 0.79101109 7.87746053 -0.00293562 0.00035207 0.00042193
C 5.64746916 5.21644397 32.82049813 -0.00495426 -0.00453226 -0.00215246
C 0.75535961 0.83475042 32.83782874 0.00896410 -0.00375474 0.00573298
C 6.76757969 5.39143384 7.82731318 -0.00272762 -0.00244093 0.00485031
C 5.24822827 11.96841254 8.42725046 -0.00167485 -0.00219250 -0.00418562
C 2.81836674 7.52010656 16.74491367 0.00018801 -0.00541596 0.00524772
C 7.71821811 0.58280886 21.38039253 -0.00030045 -0.00660025 0.00602977
C 1.01954831 5.76450348 29.43179958 0.00432277 0.00828315 -0.00391837
C 3.64746658 12.40900949 20.12374304 0.00213965 0.00034276 0.00227673
C 5.22494461 6.50411597 28.24219628 -0.00060249 -0.00413655 -0.00394114
C 1.14925929 12.21567842 28.52933737 -0.00599970 -0.00258981 -0.00354984
C 7.69529579 6.63865723 19.83780898 -0.00131989 -0.00082812 -0.00494096
C 5.27491594 25.52842930 29.41634179 -0.00197223 -0.00138690 -0.00475384
C 3.30031736 5.96411528 21.20610199 -0.00543387 -0.00513788 -0.00261350
C 7.27698852 1.33917936 22.42308588 -0.00348098 -0.00032593 0.00337171
C 1.23068914 4.90628716 30.48984538 -0.00520670 0.00145905 -0.01170001
C 3.16194530 11.68980838 19.06147977 -0.00693390 0.00340268 -0.00040036
C 5.49251194 7.19172665 27.12085120 0.00122184 -0.00074822 0.00183042
C 1.55758928 11.76517231 27.30119096 -0.00176504 -0.00058921 0.00475183
C 7.27863290 7.38009369 18.75973437 -0.00021370 0.00387343 -0.00008203
C 5.38309383 0.67862350 30.58095197 -0.00304797 -0.00203878 -0.00399789
C 2.91406383 5.21730308 22.29581008 0.00627681 -0.00164249 0.00246838
C 6.39094135 2.43363750 22.13905098 0.00461344 0.01199241 -0.00172876
C 1.96905059 3.68954360 30.17804067 0.00293629 0.00271288 -0.00590723
C 2.31756822 10.60762652 19.18600435 0.00030322 0.00137457 0.00218338
C 6.27549898 8.43454336 27.06118177 0.00299918 -0.01032058 -0.00954734
C 2.47038308 10.69735755 27.24177480 0.00561938 -0.00225450 0.00680007
C 6.39155021 8.46057800 18.96683160 -0.00109710 -0.00479897 0.00147393
C 6.10567614 1.90271696 30.65429707 -0.00172549 -0.00237534 -0.00348583
C 2.16137194 4.04087586 22.17405261 -0.00316713 -0.00299803 0.01024223
C 6.31192553 2.91703288 20.82866524 -0.00996117 0.00417543 0.00019948
C 2.33773751 3.40443746 28.87042611 0.00027412 -0.00177930 -0.00469642
C 2.17634954 10.03004931 20.45717175 -0.00818779 0.00714875 0.00271160
C 6.57347680 8.95046967 28.32563835 0.00898112 0.00321037 0.00425394
C 2.79199787 10.00580520 28.41669137 -0.00243646 -0.00713186 -0.00119941
C 6.26799009 9.00562464 20.25265791 0.00415089 0.00441963 0.00678821
C 6.40827622 2.55732740 29.37917295 -0.00310167 0.00246870 0.00061756
C 1.77879288 3.62934617 20.90556879 -0.00090074 0.00544910 0.00069325
C 6.95369184 2.24243711 19.84603342 0.00093179 -0.00333662 0.00551246
C 1.93560947 4.18414687 27.83294707 -0.00832966 0.01003043 0.00553456
C 2.76145315 10.65919270 21.52758038 0.00206202 0.00404319 0.00118023
C 6.34907894 8.21948654 29.51163971 0.00084179 -0.00649257 -0.00554744
C 2.31928201 10.44073900 29.63032438 0.00260531 0.00268413 -0.00184774
C 6.85043875 8.37798583 21.36933283 0.00517994 0.00902127 -0.00674137
C 6.09798380 1.95147327 28.17960304 0.00025411 -0.00016941 -0.00083396
C 2.21361099 4.37398911 19.77430333 -0.00091989 -0.00007456 -0.00545550
C 7.47950768 0.99111908 20.08128053 -0.00248263 0.00102659 0.00213140
C 1.34488760 5.48266695 28.09600047 0.00057829 -0.00188561 0.00197862
C 3.48481620 11.90175058 21.42105385 0.00072740 0.00498770 -0.00408492
C 5.68172839 6.99150298 29.47043666 0.00386915 -0.00341428 -0.00362541
C 1.54103700 11.66882378 29.70841637 -0.00463895 -0.00098076 0.00522874
C 7.42363499 7.09653189 21.16324545 0.00711054 0.01494070 -0.00342059
C 5.52313562 0.60625417 28.16355689 -0.00367609 -0.00175097 0.00915197
C 2.90495328 5.59519817 19.89903823 -0.00636778 -0.00194364 -0.00452462
C 7.21940735 0.12158502 17.70285773 -0.00234535 -0.00629224 0.00024196
C 1.40818921 6.31947753 25.86572564 0.00026721 0.00002643 0.00130142
C 3.14004357 12.58401933 23.65491516 0.00505867 -0.00356016 -0.00738753
C 5.95590950 6.41764092 31.91494710 -0.00258259 0.00425319 0.00024881
C 1.67410488 12.11240137 32.12176920 -0.00142133 -0.00291225 -0.00181843
C 7.32280080 6.51876371 23.50638720 0.00403230 0.00697886 -0.00376070
C 5.69114081 0.23304914 25.74075146 0.00239762 -0.00434519 0.00691546
C 2.83675375 6.34973759 17.63781128 0.00154275 0.00504940 -0.00148668
C 7.07198453 11.21080446 0.73003756 0.00509984 -0.00292633 0.00729120
C 1.33262523 7.65825532 25.15879998 -0.00018958 -0.00076730 0.00148086
C 2.74173662 0.84086599 24.87675360 0.00083209 0.00204450 0.00445060
C 5.59424569 5.25581836 16.32815400 -0.00217612 0.00335287 -0.00677715
C 1.25467326 0.93045396 16.03689106 -0.00187161 0.00582413 -0.00270584
C 7.34974575 5.36302940 24.42930664 0.00061482 -0.00147775 -0.00243617
C 5.98854056 12.09823029 25.01018421 0.00585691 -0.01010124 0.00635669