1920
Time=5000.00000000 pbc="T T T" Lattice="25.64188005 0.00000000 0.00000000 0.00000000 25.37753519 0.00000000 0.00000000 0.00000000 32.94928671" energy=-12250.83177710 virial="-44.50640283 14.02913986 -17.13978290 14.02913986 -6.25518168 40.84078575 -17.13978290 40.84078575 -4.89653977" stress="0.00012725 0.00061987 -0.00076896 0.00061987 0.00193609 0.00193583 -0.00076896 0.00193583 0.00183211" Properties=species:S:1:pos:R:3:vel:R:3
O 5.65835310 2.52898461 6.94339908 0.00145531 0.00644622 0.00214109
O 2.45719971 3.51460959 14.88655363 -0.00022055 0.00165616 0.00080187
O 1.37609453 10.01061815 1.75983281 0.00184522 0.00047651 0.00339051
O 6.60129853 8.89529663 9.04869200 0.00395540 -0.00002875 0.00225665
O 2.27485750 10.23865565 9.99073665 -0.00123618 -0.00060798 -0.00612518
O 5.42281007 8.51668255 0.82053088 -0.00885614 0.01205426 0.00335057
O 6.96252909 2.78533985 15.45705031 -0.00012643 0.00253934 -0.00565175
O 1.64482469 3.46613425 6.72666715 0.00168581 -0.00423042 0.00295394
O 6.01105098 1.34112462 17.58965593 0.00008456 -0.00306516 -0.00354327
O 1.54945196 5.49327619 8.79944617 -0.00158849 0.00702561 0.00186299
O 1.72737530 11.35700795 7.77190821 0.00826562 -0.00532805 -0.00371362
O 6.31258023 7.70455668 31.59255297 0.00762537 -0.00851025 -0.00433496
O 1.72358853 11.39728550 32.59700681 -0.00339130 -0.00263992 -0.00189598
O 6.13920248 7.48705766 7.05432224 0.00418935 0.00704141 0.00312091
O 5.97019468 1.68768325 9.30550206 -0.00745623 0.00450685 0.00503685
O 2.19485954 4.94851566 16.93231839 -0.00422286 0.00321644 -0.00078540
O 6.04098464 2.98791892 23.80579510 0.00822460 -0.00521010 -0.00596759
O 1.94604603 3.40907565 31.40168394 0.01003372 -0.00265791 0.00288747
O 1.80020563 10.16718016 18.07087606 0.00318047 -0.00453255 -0.00267217
O 7.11426479 9.44838914 25.55528953 -0.00426532 -0.00204296 0.00120708
O 2.53761787 9.85182061 26.41411050 0.00038969 0.00039545 -0.00474752
O 5.32437360 8.91486806 17.15230670 -0.00301388 0.00146193 0.00079761
O 6.63566222 2.67740138 31.75222732 -0.00245254 -0.00427609 0.00041647
O 1.77529420 3.82226750 23.28672490 0.00401110 0.00133872 -0.00277776
O 6.28404478 1.13993778 0.77601990 -0.00591133 -0.00468085 -0.00465823
O 2.21329177 5.30249985 25.27178893 -0.00528245 0.00031663 -0.00132737
O 2.27618676 11.48480413 24.17075295 -0.00321013 -0.00439752 0.00567021
O 6.44035936 7.63539718 15.15264938 -0.00293368 0.00608879 -0.00446561
O 1.91731323 11.93281729 16.03386251 0.00182108 -0.00176213 0.00491746
O 6.95042071 7.96512919 23.17358400 -0.00815794 0.00247129 0.00315662
O 6.58620126 1.36711235 25.82690185 0.00799033 0.00001042 -0.01001995
O 2.25517621 5.04403960 0.43051801 -0.00405421 0.00430804 0.00175295
O 6.42882750 15.19587727 7.38060825 0.01079960 -0.00570020 -0.00141797
O 2.98745859 16.72730634 14.97191793 -0.00649754 -0.00457356 -0.00784826
O 1.03544473 22.77449834 1.44620651 0.00286418 -0.00501760 0.00007806
O 6.93286995 21.67635189 9.60260413 -0.00448809 -0.00280583 -0.00034372
O 2.48684206 22.11920538 10.40656791 0.00227964 0.00317755 -0.00496434
O 5.54713782 21.30299331 1.33786402 0.00234361 -0.00513465 0.00122094
O 7.08613821 15.00132294 15.34590508 -0.00164266 0.00935241 -0.00135106
O 1.94554296 15.79045184 7.02349130 0.00756575 -0.00806820 -0.00030821
O 6.32467655 13.90232842 17.47303501 -0.00384599 -0.00050388 0.00374010
O 2.50212384 17.41174048 8.92144244 -0.00809460 0.00134621 0.00109857
O 1.90025973 23.58903682 8.00495389 0.00021349 -0.00380673 -0.00829248
O 6.35447163 19.92734041 32.26290383 0.00167015 -0.00404019 -0.00139828
O 2.60637540 23.86415408 32.67181385 -0.00189236 -0.00367232 0.00149943
O 6.07207923 20.18682666 7.54325852 -0.00881561 0.00223946 0.00405845
O 6.62079457 13.68434379 9.33229940 -0.00357156 0.00470039 0.00305434
O 2.43116200 17.94904809 17.00820816 0.00026471 0.00041540 -0.00075563
O 6.45874305 15.47596517 23.73942866 -0.00342547 -0.00290761 0.00097074
O 2.93660003 15.92005037 31.47697494 -0.00939282 -0.00126937 -0.00299487
O 1.43851070 22.72844066 18.22420933 0.01025291 -0.00406006 0.00011617
O 6.53386593 22.49951375 26.21940298 -0.00359707 -0.00114435 -0.00167174
O 2.40976836 22.63046902 26.36469593 0.00174013 0.00182881 -0.00301682
O 5.81012789 21.84448656 17.70436353 0.00294820 0.00388974 0.00406257
O 7.33210974 15.11898745 32.45301188 0.00376493 0.00313919 0.00123949
O 2.15116243 16.39310283 23.22273677 -0.00436078 0.00228980 -0.00115501
O 6.46676180 13.51545867 1.34770583 -0.00098995 -0.00780468 -0.00440412
O 2.43529089 17.97244601 25.38202526 0.00241436 0.00225927 -0.00895539
O 2.51565583 24.24181972 24.44884060 -0.00153219 -0.00223995 0.00585136
O 5.86662243 20.25215033 15.65568554 -0.00545762 0.00108083 0.00436036
O 1.25539356 24.32575157 16.05313793 0.00355805 -0.00097184 -0.00117294
O 6.37083064 20.52335361 23.79519770 -0.00463186 0.00531215 0.00013764
O 7.05223771 13.97170500 26.21400803 0.00100587 -0.00042848 -0.00115149
O 1.96588704 17.47494433 0.82455192 0.00276858 -0.00050182 -0.00678626
O 14.98940157 2.32315049 7.40138026 0.00012236 -0.00557275 -0.00322753
O 10.95056885 3.57109132 15.42097492 0.00277375 0.00482505 -0.00452120
O 10.10698117 9.40201224 1.67206558 0.00001508 -0.00353063 -0.00640635
O 15.63637958 8.70389587 9.51101668 -0.00160615 0.00425639 -0.00416183
O 11.22392079 9.58822159 9.85873505 -0.00406849 -0.00337440 -0.00046697
O 14.42837348 8.74470619 1.19132130 -0.00232875 -0.00183728 -0.00141616
O 15.99369260 2.36400121 15.26097888 -0.00404674 0.00413424 0.00005379
O 10.43771718 3.37741342 7.04303620 0.00309427 0.00233820 -0.00236199
O 15.06789700 1.24519165 17.44762423 -0.00496843 -0.00095628 0.00523827
O 10.03213784 4.88154175 9.21900443 -0.00548670 0.00115851 -0.00803108
O 10.93077636 11.10299683 7.83349215 0.00209070 0.00350208 0.00051113
O 14.50178145 7.40670052 31.97737563 0.00239566 0.00273954 -0.00168239
O 10.93638980 11.17723078 32.57807016 0.00150430 0.00475628 -0.00292663
O 14.56054937 7.42840755 7.45405094 -0.00459231 -0.00686697 0.00248307
O 15.13515047 0.67711760 9.45410970 -0.00380964 0.00540847 -0.00462880
O 10.82386863 5.11049144 17.55997412 -0.00678612 -0.00267163 0.00762089
O 14.33129512 2.80825568 23.61156468 0.00437212 -0.00328122 0.00320845
O 11.48839996 3.81774547 31.50171174 -0.00674357 0.00243723 -0.00016122
O 10.00589302 10.26703208 17.80932197 0.00880090 0.00276186 -0.00177813
O 15.99260999 8.94820550 25.85859908 0.00077767 -0.01032500 0.00930232
O 11.25558190 10.24638497 26.13123426 -0.00329698 0.00259473 -0.00348452
O 14.25560089 9.10548825 17.61681709 -0.00565244 -0.00621719 -0.00127169
O 15.81673490 2.46470164 31.65901346 0.00144507 -0.00295028 0.00741185
O 10.42829369 3.42779853 23.72961481 -0.00208996 0.00002735 0.00444966
O 14.96189718 1.34199549 0.82787193 -0.00185826 0.00630885 -0.00412962
O 10.94054238 5.25117822 25.71119503 0.00006243 -0.00084230 0.00059900
O 10.89936098 11.73962222 23.84070839 -0.00397632 0.00820617 -0.00465801
O 14.65149955 7.44141467 15.71727675 0.00194646 -0.00235151 -0.00392391
O 11.01494079 11.38215002 15.85585775 -0.00751300 0.00341450 0.00068118
O 15.26489491 7.68890564 23.71346133 0.00563629 -0.00281477 -0.00224748
O 14.70286567 1.18288707 25.69021904 0.00329170 0.00853433 -0.00236156
O 11.14827149 5.00796089 0.97520562 -0.00164579 0.00251417 -0.00576430
O 14.46291891 15.49922802 6.97050847 -0.00018336 0.00234984 0.00155221
O 11.03435452 16.36615744 15.19931976 -0.00925250 -0.00125051 -0.00334582
O 9.18022264 22.70906107 1.74150511 -0.00860271 0.00666446 0.00237487
O 15.87004516 21.79798311 9.16109853 -0.00010615 0.00669579 -0.00175943
O 10.96918890 22.92306768 9.76576117 -0.00521937 0.00053093 -0.00158419
O 14.04629068 21.37443857 0.50641560 -0.00015717 -0.00610446 -0.00480570
O 15.25663625 15.45702359 15.45051713 -0.00104375 -0.00099540 0.00116926
O 9.57056254 16.38448558 7.05425701 0.00022920 0.00140065 -0.00696091
O 14.40853640 13.67023766 17.24837412 0.00351753 -0.00438904 0.00851653
O 10.52672627 17.75597806 8.96039817 0.00007453 -0.00023836 0.00621989
O 10.62598602 24.17247432 7.46664367 -0.00179544 -0.00892869 -0.00204431
O 15.09625079 20.18496688 31.42802160 0.00272489 -0.00405527 -0.00166082
O 10.14067584 24.27105418 32.08725696 -0.00071353 0.00438354 0.00195236
O 14.59353024 20.48587368 6.97632242 0.00237299 -0.00417995 0.00028538
O 14.55628574 14.00238906 9.12725659 -0.00036834 -0.00119735 -0.00037105
O 10.84364171 17.65327108 17.38693478 0.00233526 0.00056459 0.00009841
O 14.40749027 15.33010532 23.20412353 0.00017339 0.00112315 0.00578100
O 10.96954775 16.19011231 32.00323705 -0.00579349 0.00301736 0.00302561
O 10.56290496 22.87160512 17.46782848 -0.00135555 -0.00551129 0.00413148
O 15.99639961 21.42088174 25.28064203 -0.00637313 -0.00534400 -0.00141706
O 11.27954608 22.64590700 26.02678453 -0.00343611 0.00020840 0.00038808
O 14.02942463 22.13065655 17.44953556 0.00454472 -0.00132066 -0.00354508
O 15.58769192 15.11329610 31.48244285 0.00431116 0.00220352 -0.01021805
O 9.69105965 16.69725150 23.51976527 -0.00090832 0.00297945 -0.00523910
O 15.05146698 13.71356104 0.59910548 -0.00229813 -0.00106480 0.00003099
O 10.52736940 17.80901362 25.74266287 -0.00206429 0.00193418 -0.00451614
O 10.86781064 23.60935439 23.76280216 0.00236702 0.00769881 0.00067816
O 14.52836925 20.70493962 15.43313243 0.00153286 -0.00204229 0.00187950
O 10.86428464 24.56146963 15.66670437 0.00726411 0.00137496 -0.00288944
O 14.95321573 20.14004008 23.24721682 0.00371237 0.00273792 0.00193624
O 15.01095863 13.84012037 25.25718744 -0.00681613 -0.00158542 0.00343118
O 10.50658874 17.77561735 1.01450979 -0.00034791 -0.00243271 -0.00304893
O 23.08601701 2.48490582 6.96757104 0.00403012 0.00092565 -0.00014274
O 19.73580738 3.54266693 15.25647094 -0.00109980 -0.00056083 0.00154950
O 18.78880416 10.01378390 1.60330854 0.00066813 -0.00204910 -0.00258456
O 23.67246522 8.91413275 9.73325574 -0.00199721 -0.00206397 0.00034170
O 19.91540553 10.25450396 9.78385600 0.00970043 0.00954694 0.00116591
O 22.85521948 8.98473159 1.05628767 0.00341870 -0.00245410 -0.00503009
O 24.02578038 2.91773358 15.41558664 -0.00242542 -0.00579081 0.00386467
O 18.56806961 3.61628540 6.94541540 0.00408656 0.00712074 -0.00089296
O 23.82704735 1.39373595 17.64113060 0.00136972 0.00062215 0.00369530
O 19.58928551 5.02534523 8.90671408 -0.00060297 -0.00525058 0.00835839
O 18.89016280 11.63007660 7.67997010 -0.00158038 0.00545432 -0.00096805
O 23.70458728 7.52469255 31.91466794 0.00236247 -0.00884340 0.00088260
O 19.62868841 11.13860699 32.27985006 -0.00225627 0.00193470 -0.00568433
O 23.40587372 7.65409719 7.56635752 0.00145102 -0.00524017 -0.00239415
O 23.78466877 1.15409705 9.09226504 0.00835311 0.00158482 0.01169335
O 19.33669626 5.10989905 17.40234602 0.00582649 0.00842173 0.00416599
O 23.26853030 2.45403211 23.99834565 0.00523009 0.00146087 -0.00016823
O 19.70658282 3.40363324 31.76926854 0.00499189 0.00066287 -0.00328611
O 18.47148128 10.07791075 18.36283713 -0.00251614 0.00100371 0.00169685
O 24.67858063 9.01729594 25.85818589 0.00020402 -0.00453048 0.00218559
O 19.73552445 9.91396828 25.96020417 0.00800174 -0.00113832 -0.00890556
O 22.76513042 9.45520064 17.70917881 0.01148340 0.00025277 0.00026037
O 23.99236704 2.71924900 31.68164032 -0.00378850 0.00334819 0.00766555
O 18.94519964 3.38924149 23.58021022 0.00838387 0.00278845 0.00182072
O 23.86512957 1.13076492 0.69414180 -0.00090527 -0.00002583 -0.00365751
O 19.33180787 4.96698494 25.60400633 -0.00377568 -0.00020132 0.00467850
O 19.41811019 11.70371290 24.10165240 0.00033369 0.00007780 0.00403021
O 23.30827310 7.58710625 15.89425551 -0.00233769 -0.00123663 0.00229881
O 19.09411434 11.21426745 16.16301233 0.00892275 0.00314470 -0.00509436
O 23.70053670 7.58739454 23.89802041 -0.00469151 -0.00404121 0.00296178
O 23.92428379 0.73225106 25.75076491 -0.00686906 0.00546187 0.00053091
O 19.39796743 4.88556971 0.93515777 0.01050854 -0.00309640 0.00458878
O 22.81327272 15.15516800 7.12009978 0.00195864 0.00053220 0.00358211
O 19.37364496 15.90706376 14.34184384 0.00269991 0.00294767 0.00337901
O 18.27507040 22.27794920 1.52092298 -0.00282972 -0.00132094 -0.00767782
O 24.74504084 21.42259851 8.50133617 -0.00686842 -0.00013841 0.00110469
O 20.09139814 23.01116108 9.55159669 -0.00302353 -0.01055819 -0.00288149
O 22.60226621 21.55870026 0.63389037 -0.00330275 -0.00486974 0.00204263
O 24.12928690 15.88005520 15.55769897 0.00393414 -0.00502156 -0.00062263
O 17.96053680 16.91599797 6.28690658 0.00480784 -0.00335887 -0.00177521
O 23.60060923 14.32380430 17.45258802 0.00615629 0.00253273 0.00056145
O 18.95988793 18.27722312 8.42811568 0.00094211 0.01118823 -0.00190218
O 19.38316544 23.88505220 7.29304305 0.00039048 0.00023512 -0.00169842
O 22.18324237 20.64400331 31.16332997 -0.00142978 0.00165084 0.00220995
O 18.58588078 24.01171500 32.40190386 -0.00456177 0.00146060 0.00216635
O 24.42313821 19.77214093 6.37937852 0.00070673 -0.00676488 0.00920260
O 22.63580036 14.14300233 9.62074244 -0.00061580 -0.00365893 0.00082639
O 19.09336609 17.98788745 16.54055543 0.00609498 -0.00022934 -0.00463769
O 22.79007734 15.86103953 23.77785124 0.00028205 -0.00101359 0.00202909
O 19.40313550 16.14900234 31.29352385 0.00317725 0.00339534 0.00087925
O 18.90135709 22.68523322 18.25123855 -0.00247813 -0.00553444 0.00353989
O 24.69219756 21.81777105 25.24035082 0.00475265 -0.00248660 0.00218922
O 19.60659703 22.46229858 26.35317488 -0.00909262 0.00306205 -0.00028154
O 22.48346888 21.98855318 16.75421091 -0.00548797 -0.00064044 -0.00634018
O 24.12470988 15.36676431 31.89877623 -0.00330234 -0.00492114 -0.00065063
O 19.26019590 16.02697040 22.73444339 0.00209674 0.00506184 0.00087972
O 23.58897366 13.89238593 0.93151992 0.00162159 -0.00444088 0.00999267
O 19.06177621 17.51879608 24.97855677 0.00748455 -0.00190862 0.00324298
O 19.34762118 24.23310012 24.55098591 -0.00423840 0.00240343 -0.00802304
O 23.25134091 20.60679541 14.61791325 -0.00496143 -0.00712276 0.00368837
O 19.24161273 24.04271880 15.84486530 -0.00103054 0.00240320 0.00365908
O 23.78353337 20.49993031 23.04488884 -0.00280006 0.00552516 0.00486829
O 23.97186689 13.88212381 25.51992973 -0.00621816 -0.00524650 0.00391918
O 18.83575750 17.85805430 0.45528595 -0.00226551 -0.00033060 -0.00385820
N 7.93529470 12.55186057 2.74297536 -0.00471692 -0.00388150 -0.00450442
N 0.80286156 6.68971955 10.68278057 -0.00138597 0.00095464 -0.00425816
N 2.91869522 24.73352596 6.30646999 0.00034748 0.00739473 -0.00457688
N 5.22502508 6.49536609 13.68053179 0.00401935 -0.00396954 0.00228249
N 1.19719534 0.41781268 14.29092440 -0.00319117 -0.00046952 -0.00813923
N 7.10530596 6.14034325 5.52601873 -0.00183753 0.00338155 0.00718024
N 5.27503268 12.61214492 10.78088571 -0.00257595 -0.00262412 0.00398971
N 2.96037137 6.40261613 2.21074298 -0.00456990 -0.00624319 0.00244726
N 7.36311097 12.64733814 19.11743425 -0.01134207 0.00205289 0.00335369
N 1.28080587 6.53527882 26.87234912 0.00236702 -0.00349699 0.00510629
N 3.40135727 0.15171043 22.69837687 0.00228042 -0.00201565 0.00364950
N 5.03968659 6.81374507 29.93560069 -0.00258287 0.00266404 -0.00202386
N 1.40167443 25.22275211 31.25844808 -0.00558307 0.00711994 0.00502637
N 7.92634576 6.71007746 21.51453970 0.00369145 0.00059573 0.00010102
N 5.44833815 13.11470311 27.58601498 -0.00363172 0.00359077 0.00480663
N 3.18129179 6.15313765 18.52377815 -0.00427707 0.00701003 0.00171582
N 7.08244121 25.17486576 2.46279891 0.00174533 0.00764938 0.00260730
N 0.82036561 18.35965439 10.16932825 -0.00160655 0.00888216 0.00482678
N 2.97213924 12.63676033 6.34913012 0.00238877 0.00123190 -0.00236630
N 5.03863821 19.03548001 13.88795409 -0.00153360 0.00092847 0.00753617
N 0.95814296 13.21669832 14.43611963 -0.00967995 -0.00670156 -0.00496283
N 7.24322570 18.89143784 6.10432540 0.00129896 0.00527008 0.00530965
N 4.99118050 0.29751027 10.90742237 -0.00726656 -0.00290769 -0.00353753
N 2.95812056 18.76851649 2.42281893 -0.00130760 0.00657717 0.00235244
N 7.47171069 0.39191320 19.08822568 0.00279932 0.00216990 -0.00232998
N 1.26485713 18.95058028 27.05188081 0.00257549 -0.00401816 -0.00395088
N 3.31596671 12.81160968 22.64367963 -0.00976662 -0.00054455 0.00405065
N 5.50899823 18.82012673 30.40264369 0.00519891 -0.00141535 -0.00020935
N 1.24077339 12.90114674 30.86396868 0.00613824 0.00453072 -0.00403161
N 7.61656856 19.36385861 22.30156578 0.00198178 0.00386305 -0.00184488
N 5.16398543 0.13052489 27.13009162 0.00117377 -0.00197077 0.00151782
N 3.17846238 19.42730375 18.63729066 0.00400879 0.00343182 0.00269176
N 16.01039533 12.68893556 2.44983609 -0.00083452 -0.00107639 0.00060101
N 9.42300661 6.41725128 10.81838759 0.00570278 0.00061847 0.00230023
N 11.99089883 25.00777833 5.94954622 -0.00432290 -0.00278424 0.00429089
N 14.14789491 5.94776328 14.13706543 -0.00448989 -0.00174677 -0.00328330
N 9.15020008 0.01909148 14.33752769 -0.00939499 -0.01309739 -0.00234033
N 16.14768962 6.52117245 6.05204765 -0.00076673 -0.00142117 -0.01310454
N 13.91759193 12.67430563 10.87640131 -0.00988799 -0.00400613 0.00721106
N 11.83360431 6.48076628 2.61514672 0.00364305 -0.00159238 -0.00050606
N 15.73729717 12.45456235 18.69885253 0.00290752 -0.00187621 -0.00598756
N 9.25513701 6.20006227 26.96897040 -0.00285317 -0.00058102 0.00028401
N 12.06539003 25.02577992 22.37806186 0.00156977 -0.00055374 0.00288778
N 13.78064491 6.20413766 30.13929338 -0.00209480 0.00023668 -0.00384857
N 9.22673466 25.32149583 30.35076509 -0.00810774 -0.01212355 -0.00385964
N 16.20844989 6.60967164 21.97741347 -0.00446529 0.00581373 -0.00392855
N 13.82691704 12.68839437 26.83232041 -0.00171223 -0.00192277 -0.00765475
N 11.85452953 6.31166208 19.24029301 -0.00029243 0.00013117 0.00394727
N 15.85894170 25.31388663 2.47594274 -0.00389269 0.00134949 -0.00214975
N 9.55253087 18.94636911 10.61785024 0.00491809 0.00427378 0.00515850
N 12.08658721 12.12218299 6.06124420 -0.00263501 -0.00245741 -0.00163071
N 13.82974988 19.34389254 13.72036344 -0.00407095 0.00308404 0.00368853
N 9.82806731 12.53314312 14.24756950 -0.00367649 0.00138838 -0.00357715
N 15.98579352 19.51391493 5.40173486 0.00821415 -0.00033619 0.00731904
N 13.57215297 25.26794552 10.94937062 0.00589522 -0.00873972 0.00218603
N 11.73996960 18.84103347 2.53700079 0.00227786 0.00400637 0.00167330
N 16.37586524 0.28649266 19.04850220 0.00491254 -0.00040133 -0.00738640
N 9.70353395 19.23171979 27.35889401 0.00497446 0.00691493 -0.00085457
N 11.90512301 12.98299285 22.17121518 -0.00254990 0.00674514 0.00308833
N 14.03917692 18.95177268 29.87668678 -0.00075854 0.00713757 -0.00378490
N 10.07086980 12.56164253 30.96564584 0.00647486 -0.00405887 0.00423830
N 16.33786755 19.37608000 21.57429177 0.00639165 0.00173871 0.00333480
N 13.74519090 25.27862893 27.38999678 0.00399311 -0.00107501 -0.00658404
N 12.12372245 18.80547924 18.98991597 0.00098997 0.00248367 0.01496804
N 24.70534985 12.69195456 2.52630881 0.00548177 0.00816053 0.00164983
N 18.18626905 5.98855646 10.48625628 -0.00158851 0.00274675 0.00739103
N 20.46906382 25.09073224 5.68337905 0.00738290 -0.00161396 0.00098509
N 22.45746065 6.14470850 14.33535379 0.00218877 0.01042925 -0.00026088
N 18.56041280 0.16168007 14.27074754 0.00244490 0.00095245 -0.00303789
N 24.63481678 6.65284290 5.75521547 -0.00109760 0.00280534 0.00447942
N 22.02470604 12.89684795 11.49349983 -0.00125182 0.00105652 0.00376694
N 20.32341210 6.19021362 2.53278193 0.00161951 0.00079174 0.00303271
N 24.76657880 13.33101062 19.16748727 -0.00388329 -0.00745004 -0.00403441
N 18.20065565 6.22604801 27.21489238 0.00626403 -0.00062754 0.00634419
N 20.25172368 0.08507396 22.81793766 -0.00013490 -0.00268137 -0.00635713
N 22.26392776 6.70846173 30.33286977 -0.00528323 -0.00314598 0.00135129
N 18.23114891 0.21397465 30.72585890 0.00371815 0.00753968 -0.00181352
N 24.74805818 6.57105197 22.12057479 -0.00957937 -0.00345497 -0.00636463
N 22.68654469 12.88477049 27.13002605 -0.00277455 -0.00191471 0.00274347
N 20.59130246 6.23060037 19.01325163 0.00106194 0.00070014 -0.00174812
N 24.57918698 25.16184082 2.36784115 -0.00247282 -0.00817766 -0.01154228
N 18.34453807 19.58640370 10.19751418 -0.00357972 -0.00173778 -0.00063198
N 19.98130733 12.85706446 6.07956769 -0.00017435 -0.00396635 -0.00022633
N 22.23964370 19.27551369 12.99544618 0.00109249 -0.00131650 -0.00441136
N 18.00807643 12.44941067 14.55356823 -0.00140839 -0.00181877 -0.00254901
N 24.82781605 18.56467501 4.57645262 0.00369205 -0.00506652 -0.00158896
N 22.73120856 0.03527783 10.73288331 -0.00723870 0.00083953 0.00345432
N 20.13717036 19.00011934 1.95185742 0.00422464 -0.00983970 -0.00211720
N 24.88695321 0.09662847 19.19112908 -0.00563077 0.00501718 0.00086595
N 18.34797277 18.95495858 26.65606720 0.00064790 0.00106043 -0.00596381
N 20.64822416 12.91775469 22.49820767 0.00594002 0.00096305 -0.00102412
N 22.75670898 19.08090901 29.55086000 0.00461811 -0.00026550 0.00309945
N 18.35826678 12.45194910 30.74292809 -0.00047295 -0.00315715 0.00393424
N 24.57603218 19.32840109 21.19889486 0.00420686 0.00290740 -0.00012804
N 22.63775484 25.09044005 27.28402293 -0.00545568 0.00215822 0.00213150
N 20.00200508 19.22561686 18.22676059 -0.00138439 -0.00001356 0.00533260
C 7.53974779 0.33368591 4.82576595 0.00518477 0.00117823 0.00384845
C 0.91390916 6.20244217 12.98604827 0.00521856 -0.00413383 -0.00948142
C 3.20840387 12.21610968 3.97852346 0.00124647 0.00305365 -0.00604870
C 4.86647532 6.71148793 11.37934453 -0.00274552 -0.00972493 -0.00207234
C 0.60219630 12.70093597 12.08356312 -0.00105791 -0.00551787 0.00514302
C 7.39690780 6.44701703 3.14019022 0.00509708 0.00133981 0.00185949
C 5.04167549 0.66698009 13.21484537 0.00519152 0.00210714 -0.00258191
C 3.10485635 6.01836074 4.52351536 -0.00100530 -0.00224247 0.00457682
C 7.10828259 0.95605519 5.99043553 -0.00101202 0.00444716 -0.00489967
C 1.26387699 5.41358473 14.10184091 -0.00159293 0.00300039 0.00448841
C 2.85682109 11.61028950 2.79688821 -0.00194255 0.00560198 0.00016525
C 5.10829513 7.38290109 10.18651672 0.00438595 -0.00066918 0.00367814
C 0.84785039 11.85941361 10.97185792 0.00653719 0.00579547 -0.00461534
C 7.04057781 6.98667458 1.88655848 -0.00198335 0.00278460 0.00260628
C 5.42197492 1.34926211 14.34497330 -0.00046033 0.00278162 0.00016908
C 2.70647821 5.28358670 5.67185774 -0.00599722 0.00769153 -0.00277308
C 6.16107153 1.98403720 5.89088260 -0.00066992 -0.00020025 0.00751954
C 2.07911997 4.31110066 13.91715220 -0.00116829 -0.00586531 0.00825714
C 1.86336796 10.60204297 2.88043913 0.00665860 0.00240021 -0.00786094
C 6.06805340 8.43556292 10.16875184 0.00673607 -0.00598898 0.00415763
C 1.77670426 10.78862049 11.02357074 0.00255520 -0.00077050 -0.00456206
C 6.07561801 8.05335154 1.92803035 -0.00232934 -0.00147068 0.00097315
C 6.41081429 2.36506982 14.30282271 -0.00382115 0.00461044 0.00662453
C 2.04028051 4.08703458 5.57362647 -0.00258197 -0.00611906 0.00640631
C 5.86449026 2.45071685 4.53708929 0.00228454 -0.00314195 -0.00002213
C 2.45480065 3.97223977 12.53499482 0.00682583 0.00428540 0.01356512
C 1.54466197 10.02231973 4.13203417 -0.00704447 -0.00708495 -0.00432841
C 6.42909871 9.03729982 11.38560901 -0.00158590 -0.00657451 0.00322908
C 2.07570752 10.35702518 12.32698133 0.01117092 -0.00705654 0.00515095
C 5.86663400 8.69244965 3.16470887 0.00112827 -0.00194408 0.00014693
C 6.61224443 2.91139430 12.99104411 -0.00259599 -0.00463021 -0.00394156
C 1.82234099 3.57498141 4.25924930 -0.00198418 -0.00451035 -0.00645946
C 6.37692907 1.86146105 3.41480231 0.00525368 0.00399514 -0.00617482
C 1.86896665 4.57065986 11.44869230 -0.00515784 -0.00030118 -0.00148504
C 1.96060841 10.65831779 5.27150575 0.00996229 0.00138177 -0.00364682
C 6.07847749 8.50698348 12.57403718 0.01028042 -0.00437791 0.00517399
C 1.77353742 11.15132159 13.46154405 -0.00182411 -0.00035071 0.00546884
C 6.31790250 8.21407024 4.41792210 0.00606809 0.00004080 0.00661370
C 6.08974940 2.23493271 11.89798542 0.00379451 0.00404799 -0.00341074
C 2.17355470 4.30290118 3.14573034 0.00629987 -0.00001627 -0.00143221
C 7.08816164 0.65748726 3.51726009 0.00519095 0.00305678 -0.00060868
C 1.18168297 5.76496579 11.67746821 -0.00143495 0.00597420 0.00513060
C 2.72705192 11.81310324 5.22145954 0.00394694 -0.00664161 0.01346065
C 5.38048838 7.31411405 12.56743786 -0.00369024 0.00068263 0.00069632
C 1.11667947 12.34581980 13.36432333 -0.00028391 -0.00228052 -0.00178208
C 6.89977323 6.87681239 4.35201263 0.01101432 0.00236066 -0.00283130
C 5.31410665 1.07328215 11.93765835 -0.00422152 -0.00277372 -0.00056809
C 2.68730214 5.60318784 3.28796947 -0.00073446 0.00194239 0.00152236
C 6.70076821 0.06527170 1.15475141 0.00081364 -0.00139874 0.00050878
C 1.18263059 6.50558627 9.36246086 -0.00594794 -0.00902370 -0.00028500
C 2.43737172 12.36826848 7.56261461 0.00109115 0.00806381 -0.00576500
C 5.75711932 6.65319660 14.93720500 -0.00352389 0.00572956 -0.00517677
C 1.58028080 13.03436452 15.64121527 -0.00573106 0.00540892 0.00209437
C 6.71106288 6.44723855 6.75596820 -0.00305042 0.00068412 0.00169162
C 5.50320099 0.59390619 9.64380021 -0.00073820 0.00648352 -0.00145909
C 2.39686624 6.17502323 0.92888589 -0.00103287 0.00068988 -0.00645845
C 7.10924071 11.62113181 17.02221452 -0.00434547 0.00297046 0.00315919
C 1.17663680 7.78460215 8.56358780 -0.00915640 0.00441467 0.00141500
C 2.31564562 0.56555069 8.25104701 0.00141375 -0.00847045 0.00710741
C 5.24827654 5.59078785 31.97731776 -0.00244742 -0.00355480 -0.00184469
C 2.21297005 0.72701636 0.41755263 0.00355591 0.00704666 0.00066631
C 6.93422780 5.36051845 7.78950854 0.00536352 -0.00463470 0.00502107
C 5.28182280 11.80871513 8.64743676 -0.01453052 0.00528304 0.00225903
C 2.38831636 7.35413897 16.68309839 0.00576504 -0.00217994 -0.00112789
C 7.60951791 0.72985267 21.40233710 -0.00073596 0.00262949 -0.00286187
C 0.79615520 6.08840644 29.13797082 -0.00459441 0.00385292 -0.00441107
C 3.29500368 12.60876671 20.28709062 0.00492792 -0.00028656 0.00584776
C 5.35356213 6.91816579 27.55433655 0.00140055 -0.00157029 0.00266174
C 1.21664930 12.58524146 28.44146712 -0.00242424 -0.00000093 0.00687391
C 7.51841231 6.85460268 19.16471980 -0.00196361 0.00450859 0.00052903
C 5.13579103 0.26565539 29.58331663 0.00065203 -0.00631057 0.00852086
C 3.35250370 6.12127698 20.91408318 -0.00548570 -0.00195553 -0.00678284
C 7.20457182 1.39302905 22.55827595 -0.00524321 0.00190744 0.00195188
C 1.01931068 5.34888510 30.31483383 0.00192118 -0.00564111 -0.00654996
C 3.06397821 11.93663551 19.09308088 0.00891304 -0.00316094 0.00237555
C 5.87999282 7.63284117 26.48092868 0.00722332 -0.00647527 -0.00108737
C 1.51400653 11.77311298 27.35897091 -0.00948565 -0.00357885 -0.00468216
C 7.04864934 7.51022277 18.03767977 0.00365369 0.00420555 -0.01206862
C 5.50998977 0.95556072 30.70182705 0.00084673 0.00354907 0.00506312
C 3.06442039 5.52580299 22.12481422 -0.00491668 0.00308611 0.00360563
C 6.47357873 2.59275645 22.61676789 -0.00085749 0.00193660 0.00121340
C 1.76520699 4.16903278 30.30513695 -0.00394011 0.00405928 0.00146826
C 2.23444210 10.74332525 19.16419856 0.00373860 0.00789014 0.00839641
C 6.64065422 8.81530323 26.62961454 0.00327846 -0.00424216 0.00621222
C 2.18920573 10.56204614 27.52088594 0.00175240 -0.00108686 -0.00259093
C 5.98654105 8.46394094 18.23388460 -0.00539841 0.00477748 -0.00348992
C 6.17123836 2.19116867 30.57744407 -0.00557282 -0.00481679 0.00697038
C 2.30042368 4.33040933 22.18611739 0.00109054 0.00236380 0.00705440
C 6.23249010 3.16679779 21.35496825 -0.00260351 0.00006575 -0.00296352
C 2.29120221 3.72643653 29.00703454 0.01120544 -0.00661162 -0.00119129
C 2.00704614 10.15006164 20.38054208 0.00833576 0.00313368 0.00081808
C 6.68991381 9.42712699 27.94242771 -0.00841230 -0.00133281 0.00284706
C 2.41100510 10.10363022 28.80450620 0.00267623 -0.00252253 0.00139336
C 5.78571266 8.94388099 19.53846774 0.00124356 0.00126722 0.00532658
C 6.25217293 2.86680191 29.39775676 0.00373828 0.00648980 -0.00280552
C 2.03168752 3.68799106 20.95415170 -0.00168491 -0.00145908 -0.00374522
C 6.68284088 2.51944334 20.21533702 0.00040365 -0.00351060 -0.00149280
C 1.89452855 4.31560627 27.85563685 -0.00414462 -0.00447400 -0.00075999
C 2.30354994 10.83209847 21.53291532 0.00151963 -0.00477528 -0.00456076
C 6.22719380 8.73041965 29.06847825 0.00341805 0.00180157 -0.00279570
C 2.19190019 10.91765479 29.85665652 -0.00120992 0.00793122 0.00134863
C 6.47188139 8.48658389 20.63087060 -0.00235276 0.00542623 -0.00584310
C 5.71912391 2.19744112 28.29059047 -0.00133955 0.00837204 0.00770299
C 2.25676915 4.36189756 19.74994421 0.00067358 0.00588938 0.00019989
C 7.23337175 1.21835578 20.19724904 0.00556809 -0.00705375 -0.00328368
C 1.30562713 5.62546682 27.91228940 0.00712971 -0.00027143 0.00117774
C 2.94301347 12.09377101 21.47346036 0.00105347 0.00320322 -0.00369000
C 5.52556758 7.50207992 28.85798167 -0.00181982 -0.00156718 0.00732506
C 1.52766600 12.16528930 29.75508573 -0.00107795 0.00902335 -0.00144053
C 7.28600289 7.35002348 20.47480741 -0.00294432 0.00172912 0.00218399
C 5.33601331 0.85214583 28.30953246 -0.00222674 -0.00419184 -0.00669219
C 2.89746301 5.56333701 19.73053311 -0.00075941 -0.00414661 0.00015733
C 6.84650345 0.49420354 17.89213175 0.00156395 0.00385029 0.00055069
C 1.61111236 6.32461109 25.57870587 0.00745494 0.00118288 -0.00899512
C 2.84149353 12.53688423 23.87146305 -0.00066710 0.00018685 -0.00070788
C 5.56643352 6.78329881 31.17651154 -0.00120032 -0.00282516 0.00071449
C 1.56577917 12.55564449 32.14424555 0.00326749 -0.00285802 0.00185781
C 7.36699506 6.87422899 22.75747051 -0.00196279 -0.00095375 0.00407196
C 5.88410763 0.36458661 25.98453741 -0.00023382 -0.00181133 -0.00377727
C 2.56120428 6.03523195 17.37179160 0.00473194 0.00137018 -0.00334278
C 7.46881374 11.52376447 0.60251730 -0.00382073 -0.00107181 0.00106769
C 1.40686061 7.46152101 24.64088272 0.00496684 -0.00210519 -0.00098367
C 2.91776704 1.19480847 24.85165687 -0.00039815 0.00774075 -0.00413858
C 5.49414112 5.55172383 15.94587225 0.00516996 0.00336335 0.00216371
C 1.31849214 1.31633979 16.47969839 -0.00166607 0.00411718 -0.00611238
C 7.26202517 5.63418862 23.62185459 0.00644235 0.00523391 0.00196232
C 5.69088787 12.27424211 25.32492635 0.00195029 0.00888003 0.00363849