1920
Time=58000.00000005 pbc="T T T" Lattice="25.49438110 0.00000000 0.00000000 0.00000000 25.79998143 0.00000000 0.00000000 0.00000000 32.84041926" energy=-12252.17310154 virial="-46.54231145 -14.29574704 5.86272501 -14.29574704 -103.40993244 -10.75358868 5.86272501 -10.75358868 -30.02802352" stress="0.00009233 -0.00059671 0.00030094 -0.00059671 -0.00266423 -0.00044631 0.00030094 -0.00044631 0.00079284" Properties=species:S:1:pos:R:3:vel:R:3
O 5.84357955 2.66865301 7.22687956 0.00063079 -0.00116373 0.00046463
O 3.09075199 3.70980892 14.67205448 -0.00118862 0.00258498 0.00306259
O 1.55993129 10.15136779 1.01571654 0.01023308 0.00112719 0.00413802
O 6.69275521 8.88842290 9.02386828 0.00320270 -0.00022076 -0.00064635
O 3.02071684 10.41949983 9.43111405 -0.00252303 0.00135839 -0.00134348
O 6.38017666 9.13770959 0.94052612 -0.00463776 -0.00372774 -0.00282222
O 7.17813737 2.54737897 15.17417726 0.00090924 -0.00745603 0.00275733
O 1.55267802 3.98112152 6.69117406 0.00478552 -0.00324412 0.00526714
O 6.38562498 1.13240440 17.08245294 0.00419149 0.00044181 0.00295920
O 1.98811392 5.47861306 8.90379472 0.00183422 0.00134113 0.00414148
O 2.23624678 11.79815050 7.19692462 -0.01244415 -0.00141656 -0.00448702
O 6.98332324 7.56421146 31.73204329 -0.00193144 0.00539044 -0.00430654
O 2.63180091 11.55164949 32.00642144 -0.00099083 0.00501828 -0.00272473
O 6.02285719 7.64402392 6.86745757 0.00343080 0.00009998 0.00172922
O 6.72452405 1.12468761 9.07924251 -0.00360844 -0.00072821 -0.00261687
O 2.52818626 4.99669361 16.98900417 0.00919341 0.00307921 0.00670182
O 6.07178087 2.43415857 23.46481788 -0.00116261 -0.00163418 -0.00012354
O 2.55204676 3.83834556 31.56997734 0.00100986 -0.00028598 0.00232468
O 1.50346769 10.14794036 17.52069736 0.00225528 -0.00364675 -0.00315187
O 6.75928316 9.37962619 25.61904716 -0.00563831 0.00330741 -0.00174608
O 2.34550444 10.38087011 25.87518328 0.00246771 -0.00910544 -0.00550894
O 5.71379952 8.92655311 17.56100356 0.00081743 0.00515727 0.00521653
O 6.90091399 2.97346182 31.68503556 0.00515794 -0.00762984 -0.00270375
O 1.99714969 3.63294247 23.31152853 0.00059306 -0.00480918 0.00918028
O 6.34564423 1.31029294 0.78824987 -0.00558591 -0.00150364 -0.00339807
O 2.51503000 5.22208980 25.31167349 -0.00556010 0.00470246 -0.00815709
O 1.77275409 11.72678682 23.81463642 -0.00815877 -0.00142095 0.00060198
O 6.31565451 7.72616523 15.27760577 0.00536800 -0.00022332 0.00150277
O 1.74416288 11.64644097 15.45978634 -0.00102389 0.00415853 0.00182628
O 6.45460070 7.81626789 23.59111513 -0.00240525 -0.00221912 -0.00040119
O 6.74157900 1.23778309 25.61512841 -0.00575169 0.00653533 0.00904651
O 2.03370548 5.67050688 0.71110799 0.00218392 0.00234934 0.00047169
O 5.63281610 15.51492461 6.71956861 -0.00083557 0.00921069 0.00137041
O 2.25840857 16.58866127 15.40848701 0.00093052 0.00067230 -0.00196200
O 1.84580309 23.04904881 1.26177883 -0.00168037 -0.00006572 -0.00765269
O 6.62385239 22.22045636 9.82996643 0.00047409 0.00014716 0.00356158
O 2.16641020 23.24424568 9.37778487 0.00049028 -0.00686878 0.00322954
O 5.56683583 22.13319594 1.57494025 0.00014421 0.00332166 -0.00278777
O 6.44367836 15.68967112 15.13457327 -0.00175719 0.00129340 -0.00389147
O 1.93738892 16.64924163 7.25645328 -0.00087221 0.00306657 0.00185866
O 6.34665439 14.30042655 17.27526283 0.00814453 0.00187482 -0.00128986
O 2.50108223 18.01614053 9.23811172 -0.00267100 0.00111247 -0.00054520
O 1.73730767 24.77987893 7.25938478 0.00244354 -0.00599011 0.00288269
O 6.13497938 20.72313753 32.32723882 -0.00442578 -0.00138218 -0.00135214
O 1.90380726 24.75116272 32.17347653 0.00266529 0.00193518 0.00550291
O 7.15306339 20.66442586 7.71470347 -0.00476548 -0.00020668 -0.00627418
O 6.47319465 14.19756942 8.98650912 -0.00128454 0.00486653 0.00151003
O 1.82394244 18.18184744 17.36335773 -0.00097493 -0.00726509 -0.00046423
O 5.69465620 16.04724014 23.29604551 0.00060267 -0.00022241 0.00193014
O 2.56757792 16.46128873 31.95869038 -0.00115182 -0.00008920 -0.00185710
O 1.32030139 22.83757198 17.60489879 0.00770577 0.00084886 -0.00203377
O 7.00613408 22.09831582 26.21257519 -0.00327018 0.00224827 0.00704147
O 3.13167080 23.16198032 26.11950926 0.00520172 0.00178091 -0.00273106
O 5.69714891 21.99206068 17.95939518 0.00378209 0.00231694 0.00297462
O 6.76600572 16.15277561 31.39024105 -0.00030744 -0.00541818 0.00970640
O 1.84109451 16.91595581 23.64950846 0.00516430 0.00281637 0.00067537
O 6.97281919 14.16792346 0.51772431 0.00400639 -0.00087081 -0.00228354
O 2.15376202 18.17091121 25.85268465 -0.00011252 0.00261285 -0.00323520
O 2.76187463 24.33277741 23.71523463 -0.00473231 0.00186821 -0.00570038
O 6.39146321 20.53498697 16.03649731 -0.00635971 -0.00095476 -0.00024019
O 1.52499752 24.58523614 15.54960273 0.00526924 0.00200714 -0.00202954
O 6.70363190 20.44222821 24.25840552 0.00208806 -0.00679383 -0.00149332
O 6.10074433 14.32322452 25.17209482 -0.00782096 -0.00051238 0.00058120
O 1.65558672 18.27547696 1.13484592 0.00036615 0.00406505 0.00071822
O 14.45438299 2.90431794 6.74028329 0.00416552 -0.00384606 -0.00117090
O 10.88477099 3.82278120 15.29741832 -0.00632187 0.00180536 -0.00555596
O 10.80255333 9.88727308 0.90633522 0.00018544 0.00170454 -0.00389369
O 15.41871450 8.87513970 9.09623900 0.00282779 -0.00379360 -0.00460857
O 11.11930497 10.22805063 9.11848049 -0.00177598 0.00111703 -0.00269203
O 14.82087665 9.22635877 0.81538602 -0.00254856 -0.00437766 -0.00126170
O 14.87551472 2.66310210 15.44438473 -0.00578587 -0.00309346 -0.00420696
O 10.05786260 3.78532893 7.05715682 -0.00178227 0.01240187 0.00375765
O 14.88013412 0.99231102 17.29479819 -0.00246032 -0.00749852 -0.00145990
O 11.00974288 5.23553171 9.15952218 -0.00289859 0.00259411 -0.00002095
O 10.38978767 11.69813453 7.17332724 -0.00156064 -0.00102701 0.00919239
O 15.06868522 7.46241485 31.90108518 -0.00162614 0.00122699 -0.00131743
O 11.07677607 11.45442481 31.71182014 -0.00161509 -0.00495921 0.00785732
O 14.74539736 7.67609026 7.04958870 0.00404400 0.00261990 -0.00014609
O 14.45489954 1.45245351 8.99479508 -0.00526864 -0.00560954 -0.00328059
O 10.41239013 5.56883401 17.11588140 -0.00202345 -0.00010316 -0.00599983
O 14.38517796 2.83411200 23.35274681 -0.00001023 -0.00605387 -0.00880693
O 11.70905945 3.70193304 31.45571363 -0.00298253 -0.00266184 0.00393382
O 9.85583686 10.17855838 17.57675627 -0.00696538 -0.00615386 -0.00068467
O 15.27734636 9.46311978 25.88179915 -0.00870592 0.00155636 0.00186874
O 10.68564622 10.10444827 25.57876991 -0.00066755 -0.00329946 -0.00142302
O 14.02044867 9.18248576 17.79185075 0.00256344 0.00066354 0.00027301
O 16.04268113 2.79614502 31.41011881 -0.00438632 0.00289107 0.00836699
O 9.56546821 3.86978263 23.04977894 0.01053486 -0.01026159 -0.00464599
O 15.45940664 1.38129151 0.70071033 -0.00160472 -0.00043797 -0.00300160
O 10.39401410 5.06792806 25.16182292 -0.00126369 0.00244131 -0.00246448
O 10.35129279 11.86254234 23.56490207 -0.00364185 0.00027817 -0.00251242
O 14.32928043 8.00147485 15.27683110 -0.00278269 -0.00751220 0.00330176
O 10.37294690 11.54816084 15.44807300 -0.00096372 0.00021035 0.00352315
O 15.52601769 7.73756237 23.83051542 -0.00414876 -0.00301259 -0.00403203
O 14.74031317 1.29273952 25.33713146 -0.00211046 -0.00087149 0.00365645
O 10.82058223 4.73741225 0.81943379 0.00545409 0.00233455 -0.00052152
O 14.53243085 15.75654922 6.88306865 -0.00341580 0.00256009 0.00069213
O 10.83166235 16.61263071 15.15789126 0.00003702 -0.00117607 -0.00339541
O 9.89862312 23.12125012 1.52638813 -0.00164415 0.00184501 0.00217726
O 15.31706531 22.10896854 10.01495716 0.00929539 0.00321221 0.00467529
O 11.17158647 22.85455336 9.66084494 0.00013867 -0.00361436 -0.00319120
O 14.25182322 22.26509417 1.73910385 -0.00353488 0.00289596 0.00254207
O 15.28823479 15.36899957 15.11478355 -0.00018265 -0.00653105 -0.00129014
O 10.39776370 16.56182563 6.99947017 0.00561571 0.00052671 0.00118113
O 14.81968523 14.12047525 17.20263330 -0.00642889 0.00648254 0.00161293
O 10.55891020 18.10801545 9.14264296 -0.00092834 0.00277257 0.00503008
O 10.83245092 24.42948682 7.63341574 0.00551811 -0.00180937 0.00467106
O 14.72066220 20.74078051 32.50843485 0.00396757 -0.00112639 0.00366141
O 10.51886162 24.73783486 32.26426247 0.00774399 0.00375614 0.00391394
O 15.09133370 20.65970515 7.87373620 -0.00350545 0.00312779 -0.00003759
O 15.21507556 14.10058657 8.82513570 -0.00402528 0.00200971 0.00289850
O 10.21862901 18.08046367 17.24950543 0.00116646 -0.00581431 0.00366654
O 14.63257478 15.91793461 23.23859260 0.00292159 -0.00363204 -0.00086131
O 11.27773149 16.45462787 31.67651933 -0.00411880 -0.00577665 0.00654944
O 10.10485768 22.82275593 17.86306961 0.00388115 0.00410180 0.00141813
O 15.21618655 22.36711017 26.38172829 0.00283553 0.00440792 0.00052749
O 11.16461495 23.07415834 26.16479682 -0.00439470 0.00172388 0.00216315
O 14.13583809 21.59295950 17.69936939 0.00043083 -0.00615817 -0.00667507
O 15.62952254 15.60262501 31.34235136 -0.00321332 0.00278854 -0.00023380
O 9.89228824 16.85051124 23.27714331 0.00598289 0.00018378 0.00339201
O 14.88983738 14.21755958 0.60739568 -0.00170293 -0.00083427 -0.00299502
O 10.84139886 17.91560190 25.55606436 -0.00274541 0.00403426 0.00321340
O 10.61405803 24.71423029 23.96275738 -0.00212414 -0.00077837 0.00496830
O 15.11791309 20.08052335 15.90176983 -0.00036463 0.00100690 0.00546967
O 10.21708436 24.42660134 15.72030412 0.00501186 0.00498918 -0.00103167
O 14.69274260 20.51016775 23.94134068 -0.00468012 -0.00300978 0.00144459
O 14.70300552 14.26648803 25.13530377 -0.00170402 0.00084389 0.00482553
O 10.75437472 18.14176384 0.68836570 -0.00396145 0.00634137 -0.00193760
O 22.64188860 2.38231874 7.24210031 -0.00765449 -0.00439264 -0.00025912
O 19.23492372 3.65458136 15.15025820 0.00432385 -0.00424731 0.01166923
O 18.36514623 10.09332485 1.32480744 -0.00480620 0.00004120 -0.00223033
O 23.73716417 9.33691380 9.49407214 0.00141272 0.00233202 -0.00057269
O 19.82297739 10.46672417 9.28364156 -0.00277404 0.00334137 0.00133665
O 22.98269219 9.45034987 1.39768330 0.00002562 -0.00805052 0.00285309
O 23.96147940 2.51017582 15.06143477 0.00566072 -0.00193528 -0.00430434
O 18.37892456 3.56398877 6.95421290 0.00460984 0.00144258 0.00464161
O 23.47138953 0.94882552 17.10950680 0.00414180 0.00166350 0.00108604
O 18.72852601 5.11273365 8.92608417 0.00483166 -0.00619924 -0.00090554
O 18.84181718 11.90093299 7.27348604 0.00163793 -0.00386752 -0.00312053
O 23.16530697 8.17136172 31.91073616 0.00335246 -0.00065802 -0.00188398
O 19.04792250 11.50375576 32.01024040 -0.00628381 -0.00049214 0.00092674
O 23.28136118 7.52034391 7.50057989 -0.00001213 -0.00783893 -0.00064819
O 23.43819046 0.94952721 9.10125172 0.00472282 -0.00015487 0.00076047
O 19.14439605 5.20356536 17.14869352 0.00536910 0.00178426 -0.00118467
O 22.95460177 2.72705291 23.07083989 -0.00485178 -0.00452169 -0.00193963
O 19.74838359 3.60036224 31.56857663 -0.00591975 -0.00362193 0.00074258
O 18.74021349 10.10394382 17.40346133 -0.00207457 -0.01032628 -0.00482238
O 24.06571114 9.17858872 25.77553586 -0.00134851 0.00087569 -0.00506840
O 19.65106104 10.35647330 25.88589411 0.00308693 0.00354829 -0.00262383
O 22.67407232 9.17056378 17.77942136 0.00573333 0.00334928 -0.00628950
O 23.93594964 2.72902085 31.83477100 0.00508437 -0.00305310 -0.00008483
O 18.72737553 3.38454988 23.27350666 0.00054571 0.00347745 0.01039272
O 23.41363815 1.10471866 1.01763714 -0.00264523 -0.00370189 0.00108225
O 19.02878051 5.19867813 25.32013500 -0.00306587 -0.00244121 0.00113183
O 19.30591249 11.68001148 23.70070365 0.00108002 0.00104108 -0.00039621
O 22.80612274 7.70935227 15.83085418 0.00216762 -0.00193194 -0.00108496
O 19.06883446 11.64591856 15.32452266 0.00548987 0.00647720 0.00043972
O 23.47283461 7.63743273 23.78184088 -0.00437046 0.00017211 0.00181792
O 23.50632909 1.65079191 25.48794127 0.00318329 0.00314486 0.00286660
O 19.73559174 5.07928970 0.71126608 0.00650978 -0.00656223 -0.00059250
O 22.78706621 15.81091341 6.81722547 0.00280693 0.00007874 -0.00328777
O 19.58271486 16.28016961 15.25004753 -0.00300196 0.00179739 -0.00001161
O 18.64481516 23.24144510 1.33285397 -0.00339002 0.00463898 -0.00345154
O 24.13374827 22.16286399 9.67985836 -0.00080078 -0.00403350 0.00394316
O 19.75215344 23.31124115 9.40483720 0.00469019 -0.00419869 -0.00165134
O 22.63482297 22.22333905 1.71645502 0.00188170 -0.00228134 0.00694080
O 23.58471437 15.35912039 15.06120463 -0.00955573 -0.00023244 0.00391304
O 18.50427080 16.95616041 7.34570426 0.00154932 0.00193910 0.00136672
O 23.18768392 14.02839724 17.19043682 0.00020905 0.00205186 0.00151630
O 19.55878660 18.42952849 9.11240093 -0.00337309 -0.00285476 -0.00072938
O 18.69873162 25.01601877 7.49960530 0.00114036 -0.00416502 -0.00223591
O 23.00878492 20.50684110 32.55041646 -0.00181024 0.00086298 0.00240379
O 19.49290430 24.52022024 32.02977048 -0.00332845 -0.00022334 -0.00078762
O 23.51050970 20.49244786 7.62325220 -0.00350373 -0.00932347 0.00216470
O 23.43584191 14.22246528 8.73001711 0.00472209 0.00359776 -0.00264989
O 19.01191388 17.74433967 17.58115811 0.00192304 -0.00517442 -0.00292852
O 22.93476542 15.82957603 23.27648680 0.00059259 -0.00237523 0.00655432
O 19.59755363 16.36942986 31.86497916 0.00100106 -0.00195661 -0.00035723
O 18.59846244 22.76191526 17.59573754 -0.00036349 0.00200586 0.00816108
O 23.89080056 22.54800342 26.39504476 0.00395679 -0.00144489 0.00068931
O 19.91266891 23.35105073 25.91646277 0.00235124 0.00210387 -0.00198079
O 22.48264576 21.44618282 17.87094632 -0.00083255 0.00198688 0.00069191
O 24.26319477 15.62080893 31.33172071 0.00122759 0.00871258 -0.00118322
O 18.52618392 16.95247152 23.81166791 0.00367220 0.00359854 -0.00128602
O 23.39729151 14.33955327 0.61847705 0.00443497 0.00004030 -0.00555609
O 19.50585198 18.36915095 25.69490804 -0.00076365 -0.00229843 0.00395063
O 19.55309206 24.56909982 23.71352879 0.00065822 0.00280897 0.00561879
O 23.75780915 19.97666741 15.73209879 -0.00008867 0.00538083 0.00648448
O 18.85706701 24.53886548 15.69566798 0.00162449 0.00163046 -0.00005224
O 23.40176427 20.92992982 24.13781797 0.00666426 -0.00402495 -0.00299155
O 23.07278010 14.26180424 25.25989089 0.00161822 0.00038917 -0.00070188
O 19.30802785 17.84537688 1.07771946 0.00250361 0.00941132 -0.00163579
N 7.65156688 12.86445885 2.25229373 0.00382351 0.00331648 0.00405589
N 0.50846266 6.20182668 10.50606974 -0.00046291 -0.00724055 0.00403110
N 3.27083197 25.75964990 5.86141459 -0.00370573 0.00214500 -0.00103310
N 5.22246592 6.45988648 13.76246731 -0.00100802 -0.00352363 0.00719612
N 0.99932400 0.30791040 13.98289236 -0.00212975 -0.00403102 0.00006589
N 7.59923105 6.59939331 5.65561785 -0.00289887 0.00061435 -0.00198600
N 5.33231299 12.99871451 10.49321969 0.00050256 -0.00173278 -0.00095558
N 3.23582389 6.80978998 2.21926262 -0.00199431 -0.00663446 0.00033097
N 7.38995509 13.10362051 18.88230659 0.00016327 -0.00185346 0.00603629
N 1.31647016 6.43939125 26.88038707 -0.00387031 0.00209372 -0.01000375
N 3.28786589 25.70116266 21.94998916 0.00380461 -0.00039633 -0.00485811
N 5.39793074 6.71652788 30.30720909 -0.00376800 -0.00692146 0.00147429
N 0.93798706 0.11870709 30.45745221 -0.00220152 -0.00635355 0.00048404
N 7.71055484 6.61598069 22.04739962 -0.00582169 0.00524885 0.00010327
N 5.21718130 13.20199418 26.95712189 0.00404096 0.00107215 0.00069110
N 3.21435287 6.37236877 18.66069176 -0.00536508 -0.00275062 -0.00645057
N 7.39117104 0.26918066 2.40809808 0.00407701 -0.00710140 0.00520842
N 1.02043155 19.09868869 10.62786996 -0.00263645 -0.00140739 0.00378297
N 3.33123495 12.82776204 5.48691799 0.00513892 -0.00533698 -0.00100104
N 5.21134799 19.40942517 14.35404823 0.00314543 -0.00264747 -0.00510258
N 0.73301910 12.81937371 13.75534483 -0.00426501 0.00121436 0.00171240
N 7.54311956 19.28482934 5.87156385 -0.00197466 -0.00097697 0.00487977
N 5.17324697 0.26860710 10.45812264 0.00090313 -0.00234130 -0.00401543
N 3.29065630 19.03543360 2.43379298 -0.00735135 0.00180117 -0.00329501
N 7.34897585 25.60767556 18.69241443 -0.00024542 -0.00628039 -0.00043600
N 1.07348017 19.36163735 27.52218807 -0.00247681 0.00328120 -0.00482333
N 3.29656730 12.46075937 22.32788363 -0.00329866 -0.00387402 0.00724266
N 5.32428380 19.37257180 30.67575010 -0.00678404 -0.00429450 0.00149233
N 1.42828569 12.80789042 30.59724035 -0.00539075 0.00043636 0.00260374
N 7.45676758 19.20313704 22.45450897 -0.00796461 -0.00510293 0.00195510
N 5.36583431 0.11795982 27.06031835 -0.00351420 0.00332027 -0.00240420
N 2.96283753 19.40049324 18.85002343 -0.00282686 0.00451789 -0.00295980
N 15.83867579 12.96381364 2.34232397 -0.00424859 0.00227292 0.00472398
N 9.38664492 6.14693862 10.47245359 0.00240433 -0.00235669 -0.00474306
N 11.84098301 25.54409232 5.93919280 -0.00186168 0.00141991 0.00324135
N 13.39531801 6.62372856 13.71361937 -0.00016732 -0.00354324 0.00189102
N 9.38533037 25.68570830 13.95584150 -0.00534222 -0.00036137 -0.00753941
N 16.24946856 6.69041604 5.57487574 0.00406628 0.00742451 0.00528236
N 13.67505503 13.25025494 10.27695357 0.00239651 -0.00629022 -0.00077191
N 12.24211774 5.78861346 2.27289803 -0.00163181 0.00534636 0.00494403
N 16.00343423 12.91591418 18.74215339 -0.00427907 0.00156212 0.00083961
N 9.37702426 6.09060105 27.01334347 0.00242790 -0.00229484 0.00434219
N 11.68639485 25.69554429 22.25355155 0.00342487 0.00321718 -0.00467233
N 14.04481698 6.29361172 30.22112939 -0.00854360 -0.01047085 -0.00441838
N 9.69376947 0.15425596 30.55865181 -0.00291021 -0.00257366 -0.00189662
N 16.34458165 6.54923848 22.12896907 0.00239811 -0.00751961 0.00198149
N 13.57787526 13.11054775 26.70010887 0.00581594 0.00137030 -0.00349061
N 11.87756739 6.29974547 18.68336242 -0.00464039 -0.00421286 0.00306031
N 15.99564671 25.68728516 2.29126175 0.00877371 0.00154670 -0.00077549
N 9.45731508 19.50148470 10.55735190 -0.00891542 -0.00280771 -0.01061903
N 11.45156847 12.92049866 5.57343453 0.00345973 0.00548522 0.00296736
N 13.82560364 19.08742484 14.29442245 -0.00273266 0.00283841 0.00195496
N 9.29043675 12.75783836 13.77674362 0.00235978 -0.01407672 -0.00975283
N 15.76589973 19.33189960 6.22218039 0.00279603 0.00439098 -0.00653762
N 13.35741945 0.29490917 10.64013713 0.00571690 0.00006297 -0.00107082
N 11.72674582 19.35490472 2.38385994 0.00854749 -0.00129251 -0.00590484
N 15.77110965 25.45234761 18.94240733 -0.00148967 0.00053939 -0.00084502
N 9.48488860 18.99027510 27.11180450 -0.00706170 -0.00367048 0.00111893
N 11.76640632 12.89644794 22.04773784 -0.00052949 0.00693611 -0.00055796
N 13.66694788 19.47763182 30.93321507 -0.00036456 0.00142186 -0.00185612
N 9.50477561 12.48182897 30.46258904 0.00852370 -0.00039241 0.00127794
N 16.07521557 19.49037079 22.50001733 -0.01111450 0.00407270 -0.00046461
N 13.87924058 0.03174787 27.05858357 -0.00492104 -0.00332011 -0.00300608
N 11.64806183 19.15361174 18.62744783 0.00578661 0.00095346 -0.00621215
N 24.38653222 13.20543630 2.28563576 0.00016934 0.00127894 -0.00471585
N 17.75815273 6.35956109 10.56489017 -0.00100732 0.00636238 0.00768330
N 20.45057307 25.57950222 6.03899718 -0.00228589 -0.00086988 -0.00229304
N 22.18559273 6.51360075 14.05127620 -0.00253518 0.00090598 -0.00219160
N 17.70847865 25.64029115 14.02874319 -0.00366688 0.00573311 -0.00297759
N 24.38566091 6.43891729 5.81691017 0.00674141 -0.00293801 0.00315598
N 21.91787146 13.17758895 10.17905154 0.00653551 -0.00629285 -0.00634846
N 20.45270073 6.35016163 2.58086152 -0.00061229 0.00095784 0.00224783
N 24.50832468 13.02900208 18.75650254 -0.00070290 0.00017895 -0.00065811
N 18.00167446 6.28236573 27.07331956 0.00024760 0.00607576 0.00177184
N 20.20113725 0.00268983 21.87867226 0.00127933 0.00173508 0.00065878
N 22.30863656 6.77077583 30.39681907 -0.00163386 0.00324326 0.00453105
N 18.26018581 25.67468150 30.50624578 -0.00252466 -0.00326920 -0.00422173
N 24.42356618 6.38256096 22.12865854 0.00687124 -0.00069031 0.00245740
N 22.28467159 12.99811945 26.95132002 -0.00052380 0.01013703 -0.00527477
N 20.58617240 5.99241747 18.67892764 -0.00034113 -0.00140630 -0.00340216
N 24.58451254 0.06986282 2.73055415 0.00189106 0.00502697 0.00303178
N 18.19397137 19.28782003 10.78794887 -0.01204375 -0.00253859 0.00528498
N 19.86548117 13.08426208 5.70954514 -0.00200061 -0.00068179 -0.00153662
N 22.33462846 19.19541992 14.10981588 -0.00637778 0.00100936 0.00071287
N 17.64777632 12.63427570 13.78287645 0.00217839 -0.00038179 -0.00635902
N 24.54059537 19.32928449 5.88840428 -0.00591752 0.00197240 -0.00081180
N 21.73688794 0.37289009 10.50645749 -0.00513286 0.00423893 -0.00339875
N 20.26314327 19.20996349 2.64545125 -0.00328204 0.00373025 -0.00238957
N 24.76771680 25.64036411 18.69750157 -0.00385359 -0.00726778 0.00091237
N 18.15690571 19.29217807 27.35113258 0.00023698 -0.00060609 -0.00178414
N 20.10227942 12.93836061 21.98200329 0.00035336 -0.00555834 0.00837442
N 22.51799581 19.31739844 30.62790562 -0.00101344 0.00127445 0.00266046
N 18.15012111 12.95193730 30.53880260 0.00415137 0.00780514 0.00140991
N 24.25594809 19.42967186 22.60343281 0.00062015 -0.00259584 -0.00672407
N 22.23491016 0.46872597 27.02998122 -0.00492684 -0.00304224 0.00097955
N 20.16603503 19.15213179 19.01956277 0.00534230 -0.00371902 0.00184316
C 7.61727002 0.55812775 4.72054069 -0.00860037 -0.00225374 0.00345035
C 0.81513435 5.86086719 12.86805125 -0.00818866 -0.00399048 0.00192943
C 3.20085126 12.57809522 3.12830228 0.00641391 -0.00630307 -0.00332385
C 4.98840051 6.72175558 11.37721317 -0.00181072 0.00242951 -0.00426065
C 0.93598696 12.61569119 11.45923781 0.00201713 -0.00492635 -0.01050205
C 7.84136872 6.77723512 3.29146251 0.00136477 -0.00528650 0.01108807
C 5.11881820 0.47144057 12.88105064 -0.00218684 -0.00289235 0.00524068
C 3.43663194 6.26953654 4.56226810 -0.00142563 0.00218569 0.00606833
C 7.17032230 1.04200599 5.96507687 -0.00810023 0.00627641 -0.00378413
C 1.33867527 5.15235182 13.97293120 0.00352824 0.00013352 -0.00494192
C 2.88056311 11.79728768 2.05876773 -0.00223815 -0.00832283 0.00100210
C 5.19060533 7.44551642 10.21857871 -0.00138227 0.00110345 -0.00150001
C 1.44220253 11.97444651 10.34817298 -0.01017278 -0.00524042 -0.00164049
C 7.53903448 7.39969242 2.09476588 -0.00698520 -0.00242636 -0.00255663
C 5.57867890 1.06015584 14.08177171 -0.00197033 -0.00342444 -0.00529716
C 2.89737404 5.64013254 5.72089064 -0.00287170 -0.00318024 0.00502577
C 6.31488570 2.13996538 6.07866886 0.00258397 -0.00510327 0.00115811
C 2.30939347 4.16257718 13.67676739 0.00616356 0.00166324 0.01190407
C 1.99920859 10.72064974 2.15451570 -0.00574547 -0.00214267 -0.00523238
C 6.15415260 8.48135039 10.15503901 -0.00091725 0.00083583 -0.00004228
C 2.26983015 10.88603913 10.49253877 0.00172795 0.00052453 0.00154484
C 6.77391521 8.53407596 2.07024811 0.00329224 0.00106975 0.00177749
C 6.50466912 2.07247842 14.06082055 -0.00119968 -0.00764560 0.00285016
C 2.06492416 4.51759137 5.61465057 -0.00966620 0.00219790 0.00825253
C 5.93447882 2.72211410 4.85779715 0.00263482 0.00241641 -0.00054125
C 2.40609373 3.62587035 12.33841381 0.00007958 -0.00382096 0.00452351
C 1.76780395 10.19693422 3.44365086 -0.00042339 -0.00572977 0.00086755
C 6.41525261 9.06970374 11.43339045 -0.00409380 0.00555862 -0.00034435
C 2.35849773 10.15145367 11.69869012 0.00379398 -0.00080114 0.00208420
C 6.30430700 9.05641184 3.28226087 0.00238167 -0.00662406 0.00231640
C 6.77322831 2.66602267 12.84638985 0.00395547 -0.00222026 -0.00116359
C 1.84890272 4.02155555 4.30604589 0.00220661 0.00134347 -0.00024893
C 6.26198451 2.22454104 3.59222807 -0.00583347 0.00027938 0.00095939
C 1.75598135 4.27592479 11.32847998 0.00408764 0.00489972 0.00739826
C 2.24492256 10.85560548 4.59071622 0.00697019 0.00406741 0.00389983
C 6.19201015 8.39116543 12.62929375 0.00270381 -0.00060761 -0.00564768
C 1.73860450 10.74468716 12.79054152 0.00165133 0.00003060 -0.00043891
C 6.65137626 8.46849189 4.47567499 -0.00166668 0.00070915 0.00343772
C 6.30776577 2.09116116 11.63869458 -0.00121911 0.00046725 0.00026573
C 2.27093629 4.68597570 3.19465961 -0.00079118 0.00364257 0.00470749
C 7.16639436 1.10040173 3.53541933 -0.00458139 -0.00571364 0.00202774
C 0.96807516 5.42865910 11.56048372 -0.00357060 0.00127562 0.00059392
C 2.88594874 12.08588755 4.39004110 0.00316916 -0.00313061 -0.00289282
C 5.52563382 7.17748446 12.61998975 -0.00198725 -0.00360825 0.00366770
C 1.08002267 12.02594562 12.71498137 0.00393587 -0.00009028 -0.00317157
C 7.37243456 7.27528093 4.50194342 0.00498240 -0.00098083 0.00487837
C 5.54676072 0.95174772 11.57657590 0.00183005 -0.00258739 0.00683043
C 2.98066539 5.96567343 3.29807070 0.00978650 -0.00256690 -0.00318738
C 6.91946216 0.29652786 1.17008399 0.00038106 -0.00025238 0.00586439
C 1.22290076 6.35073020 9.33666971 -0.00002708 0.00515868 -0.00208711
C 2.78335416 12.82073961 6.71900258 0.00325832 0.00622194 0.00219976
C 5.79092855 6.66391651 14.99961613 0.00453461 -0.00324597 -0.00041893
C 1.31313945 12.71327760 15.00548965 0.00025822 -0.00178875 0.00294101
C 6.89471252 6.73156376 6.78909747 -0.01039886 -0.00483889 -0.00516681
C 5.81920035 0.29579952 9.30727545 0.00149414 -0.00084178 -0.00310642
C 2.82289663 6.60979453 0.94567673 -0.00437532 -0.00814497 -0.00351469
C 7.20465727 12.14048676 16.75785142 0.00231721 0.00350805 0.00247640
C 0.91069029 7.67148474 8.63186234 0.00679680 0.00409180 0.00445378
C 2.57272926 1.12176707 7.84602072 0.00046030 0.00604174 0.00404103
C 5.94864329 5.48422874 32.41437275 0.00348991 0.00248592 -0.00342623
C 1.28466727 1.27833632 32.55141343 0.00398626 0.00208166 -0.00107187
C 6.95155434 5.72045346 7.85765879 0.00485638 0.00732571 -0.00348130
C 5.81446812 11.96871935 8.38161562 0.00041166 -0.00445501 -0.00940203
C 2.82481299 7.37088390 16.46603363 -0.00085407 0.00186118 0.00701638
C 7.54681610 0.11026980 21.13080539 -0.00806070 -0.00165307 -0.01161706
C 0.98493822 6.20920534 29.28666263 -0.00634129 -0.00221955 -0.00751989
C 3.11840612 12.37550006 19.91866136 0.00083991 -0.00118766 0.00185336
C 5.13472574 7.02371732 27.96725675 0.00286237 0.00053410 0.00420190
C 1.02081902 12.63455012 28.32288944 0.00381881 0.00543077 -0.00163541
C 7.80228914 6.82513261 19.60476004 -0.00125876 -0.00662979 -0.00310135
C 5.34543958 0.47128357 29.46315997 -0.00585112 0.00152299 0.00022068
C 3.32082314 6.21101276 21.02871347 -0.00396428 -0.00792031 0.00691484
C 7.30524917 0.81713023 22.27330575 -0.00769592 0.00108457 -0.00452961
C 1.20963851 5.45890600 30.36897859 0.00553031 0.00643419 -0.00459080
C 2.76316887 11.75182047 18.73669900 -0.00131528 -0.00655490 0.00140360
C 5.41560469 7.74509056 26.77820846 -0.00585370 0.00165849 0.00649185
C 1.18501599 12.01547548 27.11316417 0.00224041 -0.00510478 -0.00306789
C 7.29473404 7.45158297 18.52314964 -0.00478169 -0.00063059 -0.00210141
C 5.55476408 1.18417542 30.63694940 0.00469646 -0.00266828 0.00411981
C 3.15916950 5.45087471 22.21212011 -0.00390693 -0.00036561 -0.00183606
C 6.45022885 1.92659527 22.26186411 0.00392041 0.00066348 0.00392969
C 2.06860796 4.32852025 30.39628659 -0.00429226 0.00356175 -0.01043176
C 2.01645503 10.54342524 18.73876611 -0.00190353 -0.00460278 0.00068876
C 6.27285124 8.85528362 26.74656148 0.00442045 -0.00640940 -0.00307667
C 2.04135612 10.87893608 27.05321370 0.00337579 0.00413076 -0.00250861
C 6.38139006 8.55337684 18.65508174 0.00120558 -0.00561936 0.00264417
C 6.47268610 2.37623104 30.57010894 0.00944684 -0.00157868 0.00458611
C 2.36099931 4.22499646 22.17595540 -0.01274933 -0.00429905 -0.00674643
C 6.21834903 2.45600471 20.99099961 0.00294500 -0.00315467 0.00103072
C 2.37352181 3.75168265 29.11816273 -0.00006198 0.00355814 0.00818082
C 1.60961964 10.01778206 19.96064561 0.00570074 -0.00260012 -0.00168110
C 6.61192673 9.39270111 28.02438337 -0.00056851 -0.00167602 -0.00249352
C 2.44554826 10.27782658 28.24043929 -0.00435269 -0.00170306 0.00209337
C 6.23388552 9.21475538 19.87647552 0.00898977 0.00137935 0.00262177
C 6.78155545 2.78400265 29.27364649 -0.00383693 -0.00273890 0.00555728
C 2.10201243 3.69452125 20.89732640 0.00533413 -0.00145094 0.00432200
C 6.46657206 1.79943609 19.82094478 -0.00137961 -0.00043061 0.00058116
C 1.91367945 4.37221769 27.99426983 -0.00262519 -0.00454459 0.00172727
C 2.05409114 10.59158520 21.16763152 -0.00140487 0.00746620 0.00063468
C 6.31293721 8.74053804 29.17426639 0.00440884 -0.00277059 -0.00379456
C 2.14321984 10.81569115 29.47172612 0.00296635 0.00497725 -0.00528224
C 6.66212372 8.49749174 20.96498677 -0.00816757 -0.00226530 -0.00788726
C 6.37121530 2.07539543 28.15797374 0.00009217 -0.00078170 0.00072213
C 2.53849511 4.30743630 19.74945282 -0.00319580 -0.00537327 0.00573569
C 7.11646280 0.57023889 19.90897186 0.00389044 -0.00331024 0.00222262
C 1.41831423 5.69006763 28.06163665 -0.00588073 -0.00197992 0.00177346
C 2.80336782 11.76524109 21.16301436 -0.00106613 0.00394478 0.00234590
C 5.58768285 7.51660902 29.18930943 -0.00077700 0.00381164 0.00080259
C 1.55144503 12.06654702 29.47896258 -0.00527702 0.00412070 0.00206131
C 7.36622897 7.33160050 20.90447140 -0.00213951 -0.00847784 0.00531613
C 5.73162305 0.82069741 28.14217007 -0.00187586 -0.00614483 0.00143372
C 3.04230593 5.61654906 19.78339533 -0.00445303 0.00439336 0.00223008
C 7.00933750 0.10390371 17.45654274 0.00540379 0.00372672 -0.00188294
C 1.86123306 6.23582257 25.62958560 -0.00317980 0.00318513 -0.00260351
C 2.54656410 12.59147426 23.43471579 0.00427957 0.00116542 0.00918096
C 6.15866482 6.68925117 31.46758717 -0.00479142 0.00030666 0.00324852
C 1.85790407 12.50997316 31.82260496 0.00019728 0.00422694 0.00564009
C 6.97941723 6.73338134 23.22703525 0.00071959 0.00156289 -0.00045642
C 6.04698965 0.25019531 25.88567239 -0.00558248 0.00136082 -0.00116552
C 2.88734428 6.13857929 17.37374578 -0.00193756 0.00158884 -0.00186376
C 7.30157191 11.84803479 0.10217784 0.00368418 0.00205854 -0.00528735
C 1.63870021 7.45448293 24.77668022 -0.00653992 -0.00000340 0.00397136
C 3.34480724 0.83811174 24.15622957 0.00303793 0.00419804 -0.00181688
C 5.68859141 5.61906073 16.06489928 -0.00012785 -0.00431237 -0.00150424
C 1.35769711 1.14096306 16.12810513 -0.00205534 0.00232503 0.00015437
C 6.86687054 5.51170414 24.07701543 0.00955945 -0.00089437 0.00092317
C 5.34401099 11.95964317 24.92760663 -0.00034869 0.00396334 0.00755222