1920
Time=3000.00000000 pbc="T T T" Lattice="25.25578226 0.00000000 0.00000000 0.00000000 25.88555564 0.00000000 0.00000000 0.00000000 32.93078489" energy=-12250.19131756 virial="-44.82798463 -11.29092114 10.02281579 -11.29092114 -31.62202397 -8.54350906 10.02281579 -8.54350906 -97.04053247" stress="0.00004338 -0.00057372 0.00051273 -0.00057372 0.00064012 -0.00042522 0.00051273 -0.00042522 -0.00236215" Properties=species:S:1:pos:R:3:vel:R:3
O 5.52651486 3.01916016 6.96243602 -0.00687351 -0.00682676 0.00328194
O 2.68780928 4.37914799 15.05805971 -0.00317038 0.00049347 -0.00053827
O 1.82447255 9.90841117 1.79972510 0.00476839 -0.00531496 -0.00253883
O 6.49154274 9.42050306 9.92886748 -0.00128995 -0.00189774 0.00487446
O 2.48801440 9.75506460 10.06152864 0.00324149 0.00901512 -0.00357221
O 6.19586479 9.27105192 1.44970798 -0.00436131 -0.00075138 -0.00161932
O 6.76882169 3.20631091 14.77231632 0.00428009 -0.00489070 -0.00627273
O 1.77386855 3.89626102 6.62562738 0.00446275 -0.00097133 -0.00369044
O 6.71951564 1.55469226 16.77305365 -0.00049101 -0.00118562 0.00528661
O 2.19518560 5.17275197 8.81082769 -0.00023752 -0.00342822 -0.00160764
O 2.36250792 11.59561250 7.98242994 -0.00063051 -0.00539741 0.00340461
O 6.62491242 7.82568975 32.29481010 -0.00110332 0.00385518 -0.00448842
O 2.19398781 11.84841646 0.07656615 -0.00715320 -0.00776082 -0.00516006
O 6.66722406 7.94169376 7.66989026 -0.00345377 0.00101719 -0.00563316
O 6.01053185 1.09258617 8.86224288 -0.00340955 0.00645089 -0.00268671
O 1.41650475 5.29893771 17.26822152 -0.00121340 0.00018876 -0.00010376
O 6.19895852 2.18935124 23.05897641 0.00394430 -0.00001088 -0.00656984
O 2.91634285 3.70814668 31.12448113 0.00133577 -0.00163890 -0.00037357
O 1.75348293 9.73226390 18.52292303 0.01109927 -0.00037354 -0.00158259
O 6.52372101 9.14700359 26.02721464 -0.00152518 0.00564932 0.00624103
O 2.18230036 10.27038391 26.72374883 0.00672324 -0.00466227 0.00104085
O 5.49451164 9.22360145 18.22238791 0.00088178 -0.00226975 0.00097240
O 6.89142364 3.41756753 31.47177319 0.00273982 -0.00289901 -0.00256260
O 2.27459407 3.34113978 23.38818540 -0.00460401 0.00497262 0.00194131
O 6.67307130 1.98980089 0.85418467 0.00902147 -0.00013058 -0.00015542
O 2.57015628 5.16717582 25.03068110 -0.00227279 -0.00079115 -0.00636409
O 2.13630095 11.69410167 24.44061083 0.00119420 -0.00585715 0.00699321
O 5.81844970 7.95567594 16.02649445 -0.00822752 -0.00160970 -0.00026057
O 2.01121853 11.04419360 16.29503378 -0.00273012 -0.00021618 -0.00473487
O 6.26555689 7.27465379 24.24520639 -0.00051113 -0.00338892 0.00115060
O 6.00220152 1.00763826 25.44650055 0.00372376 0.00302491 0.00274260
O 1.88333512 5.27002924 0.27613731 -0.00706550 -0.00391134 -0.00245393
O 5.23612299 15.56984174 7.21468048 0.00525556 0.00831663 0.00362086
O 2.75154209 16.59931816 15.61082694 -0.00028749 -0.00515250 0.00816867
O 1.87418461 23.26188263 0.87330111 -0.00496484 0.00543283 0.00247844
O 7.00326293 22.20365481 8.90085437 0.00263493 0.00599450 -0.00276484
O 2.33908343 22.79112899 9.35841696 0.00173117 0.00233695 -0.00095758
O 5.68484476 21.99353169 1.00025203 0.00681674 0.00482987 0.00127857
O 6.58329640 16.27386248 15.47120358 0.00474915 -0.00598289 -0.00167940
O 2.01794465 16.36919111 6.63105012 0.00432126 -0.00101026 -0.00119554
O 6.65772467 14.54877979 17.47634801 0.00570418 0.00454849 -0.00414450
O 1.83543679 17.70673885 9.11230999 -0.00014062 0.00301917 -0.00172903
O 2.16396666 24.54043458 7.32241278 0.00098025 0.00483398 -0.00529846
O 6.23571399 20.65217838 31.53667753 0.00523035 0.00506803 -0.00231670
O 2.37532176 25.15550342 32.17333993 0.00053577 0.00737045 -0.00285255
O 6.12425144 20.52421809 7.22914587 0.00705016 -0.00412008 -0.00192024
O 5.65879473 14.22308842 9.35662634 0.00043523 0.00060289 -0.00394184
O 1.92550394 18.18262657 17.53930638 -0.00111070 -0.00187208 0.00140391
O 5.93156476 15.68473694 23.73852860 -0.00352763 -0.00182279 0.00263636
O 2.11660702 16.30263026 31.31617734 0.00279302 -0.00286963 -0.00032039
O 1.43249411 23.03148495 17.31954339 -0.00202901 -0.00517968 0.00510306
O 6.83170789 22.18454934 25.37269822 0.00328007 0.00363082 -0.00570995
O 2.67409558 23.20245035 26.01252338 0.00271525 0.00340376 0.00678343
O 5.45933476 22.49041184 17.48693752 -0.00090541 0.00459803 -0.00069318
O 6.63307453 15.91273521 31.87404981 -0.00079822 -0.00168697 -0.00198475
O 1.56808024 16.55386703 23.71314353 -0.00848187 0.00610397 0.00403679
O 6.86530718 14.38695777 1.04443995 -0.00322289 0.00102838 0.00716515
O 1.53785556 18.35999270 25.33159424 0.00316728 0.01031191 -0.00327380
O 2.65863998 24.07810857 23.57584945 0.00038722 0.00161528 -0.00252428
O 5.79381022 21.42762080 15.19865095 0.00551691 -0.00350286 -0.00307599
O 2.19668798 24.73262593 15.42432021 -0.00623148 0.00175321 0.00754939
O 6.01879354 20.65538903 23.40604388 -0.00409189 -0.00228754 -0.00009783
O 6.14102809 13.86285261 25.76069371 -0.00000981 0.00834204 0.00302392
O 1.94218552 18.34239175 0.45561401 0.00246524 0.00181188 0.00546416
O 14.30698725 2.89926865 6.64504454 0.00252904 -0.00004137 0.00321913
O 11.29291000 3.81734083 15.61372582 0.00598102 -0.01419101 0.00219346
O 10.13413624 10.08379005 1.18842384 -0.00057059 -0.00194633 -0.00122110
O 15.99238569 8.90713172 9.46594463 -0.00174941 0.00214287 -0.00410646
O 11.08389894 10.50472966 9.61913757 0.00428428 -0.00276038 0.00074703
O 14.19943973 9.23767088 0.76052436 0.00599373 -0.00851553 0.00408497
O 15.30129857 2.96168578 14.62798020 0.00144420 0.00231671 0.00968138
O 9.64942195 4.06473498 7.37524809 0.00782188 0.00138833 0.00091508
O 15.18187960 1.38849543 16.79376719 0.00361258 0.01172884 -0.00470318
O 10.49480422 5.16157930 9.42552846 -0.00900648 0.00606349 0.00166061
O 10.72193356 11.74674018 7.29377113 -0.00453538 0.00461119 0.00198005
O 15.54717539 8.08882239 31.75456156 -0.00468542 -0.00330068 -0.00090464
O 10.76504173 11.92416256 31.93994842 -0.00274610 0.00530837 -0.00931348
O 15.68561921 7.97450384 6.98073426 -0.00659804 0.00034956 0.00074701
O 14.68254305 0.88179055 8.35034280 0.00495611 -0.01053770 0.00529161
O 11.14924934 5.45336305 17.68908218 0.00666134 -0.00415459 -0.00074523
O 14.38947917 3.17504876 22.91474170 0.00274849 0.00326395 -0.00324749
O 11.77999050 3.88751153 32.28786771 0.00106891 0.00130766 -0.00460889
O 9.44970349 10.12493616 18.02342792 -0.00224161 -0.00200481 0.00998105
O 15.58323210 9.56164699 25.61325529 -0.00059466 -0.00160249 0.00404974
O 10.90807700 10.13455531 26.00523366 -0.00375906 0.00748741 0.00603156
O 14.42337674 9.42210942 17.48098244 -0.00011650 0.00149613 -0.00672580
O 15.02081124 2.36789594 31.31109248 -0.00905620 0.00141944 -0.00036700
O 9.92980617 3.35599236 23.93571274 -0.01198073 0.00106760 0.00228880
O 14.15569823 0.87826572 0.46089709 0.00505122 -0.00172535 -0.00907022
O 10.07752983 5.21115364 26.07956701 -0.00115739 -0.00156091 -0.00282421
O 10.08464536 11.74371477 24.05146907 -0.00260302 0.00063396 0.00209493
O 14.86372127 7.70332119 15.53068460 0.00192135 0.00186311 -0.00517161
O 10.55564216 11.44686863 16.12568832 -0.00177642 -0.00303407 0.00439947
O 14.54664353 7.93893178 23.67717538 0.00203905 -0.00346768 0.00566646
O 15.10288567 1.42277387 24.95030047 -0.00445064 -0.00529580 -0.00628931
O 11.11108241 5.37433765 1.21431687 -0.00289296 0.00470764 -0.00733493
O 14.90141263 15.88136790 7.23508370 0.00026167 0.00332191 0.00090957
O 10.54991587 16.36651359 15.14651689 0.00172952 0.00134798 -0.00162900
O 9.88968649 23.73718685 0.47719362 -0.00659957 -0.00165216 0.00259766
O 14.96011476 21.95625359 10.41078884 0.00036326 -0.00174663 -0.00020786
O 10.54264644 23.10376335 8.84971657 0.00163639 -0.00341512 -0.00453739
O 14.74448450 22.36881014 2.09434582 -0.00087578 -0.00600011 0.00187897
O 15.52431513 15.66821106 15.12842930 -0.00275256 -0.00364876 -0.00006328
O 9.79196574 16.54423056 6.48133053 -0.00971616 0.00260157 -0.00977502
O 14.88685165 14.21304740 17.16808336 -0.00825692 -0.00791260 -0.00027644
O 10.17847541 17.98947829 8.78003189 -0.00481282 0.00195434 0.00615637
O 10.95530199 24.75572218 6.78342919 -0.00169765 0.00437163 -0.00064906
O 15.03047852 20.77627943 31.78748084 0.00066398 -0.00437417 -0.00163249
O 11.26578482 24.93998801 31.51208943 0.00259654 0.00427701 0.00471869
O 14.20679083 20.66384037 8.30620496 -0.00241810 -0.00016923 0.00387571
O 14.95153115 13.97638548 9.20876721 0.00526989 -0.00410218 0.00663059
O 10.69335747 18.37660129 16.92890196 -0.00439129 -0.00133458 0.00383460
O 13.76743832 14.92264123 23.58555226 -0.00330953 0.00529840 0.00449615
O 11.08363167 16.53783992 31.02759321 0.00359979 -0.00000289 0.00194197
O 9.70847290 23.27540263 17.42155277 0.00455557 0.00255348 -0.00163035
O 15.10693121 21.99157890 25.48755785 0.00302307 -0.00553368 -0.00112422
O 11.33438374 23.40775791 25.54892665 -0.00358549 -0.00312027 0.00422610
O 14.52444089 22.45293551 18.47227130 0.00061751 0.00341844 -0.00205118
O 15.54970645 16.08605138 31.80844664 0.00055067 -0.00014134 -0.00548116
O 10.37595856 16.43721475 22.95140255 0.00100302 -0.00458447 0.00001431
O 15.10032585 14.63050202 0.87658100 -0.00363422 0.00196011 0.00597029
O 10.22367052 18.03633629 25.02802154 0.00871647 -0.00336852 0.00534403
O 10.71387684 24.70457984 23.39151261 0.00120541 0.00465721 -0.00547329
O 14.10430328 20.71993475 16.57231275 0.00258979 -0.00155335 0.00151074
O 10.66326192 24.37864480 15.26437686 -0.00235375 -0.00214742 -0.00643365
O 13.92263325 19.93457156 24.05318454 0.00150322 0.00161960 0.00052468
O 14.64537552 14.06306998 25.99448146 0.00515678 -0.00167798 -0.00134780
O 10.85040196 18.04719965 0.36367754 -0.00212758 0.00234243 -0.00105481
O 22.14543655 2.56710889 6.91880544 0.00039587 -0.00287989 -0.00086992
O 18.51578743 4.00410684 15.11343934 -0.00521437 -0.00286765 0.00197043
O 19.49543549 10.03992379 1.34393984 0.00875572 0.00410307 -0.00593420
O 23.74138504 8.79455461 9.73515159 0.01087822 0.00262314 0.00007425
O 18.70091812 10.74502648 8.95662478 -0.00117227 -0.00251880 -0.00706602
O 22.13242425 9.25458919 1.71030536 -0.00041423 -0.00315719 -0.00578063
O 24.06352730 2.38919169 15.34105625 0.00649392 -0.00221180 0.00269441
O 18.59498448 4.33355035 6.70811891 0.00405460 0.00263813 -0.00504513
O 22.79288533 1.18387312 17.30682553 0.00564499 -0.00075532 -0.00046225
O 19.75415122 5.37082652 8.78293917 0.00141780 -0.00051571 -0.00529483
O 18.56793739 12.37722812 7.11779226 -0.00070234 -0.00330735 -0.00040663
O 23.74945339 7.38680502 31.69469255 0.00225863 0.00407655 -0.00480494
O 19.23426120 11.66579310 32.07428337 -0.00471348 -0.00712038 0.00560761
O 22.94023559 7.46380969 7.61694925 -0.00141265 -0.00520930 0.00548779
O 23.06264824 1.35519763 8.97743293 -0.00642259 -0.00035276 -0.00814178
O 18.23147112 5.63649178 17.13564326 0.00103327 -0.00193117 -0.00622446
O 23.35506054 3.12236913 23.38561811 -0.00202664 0.00100029 -0.00066351
O 19.11147224 3.95696059 31.46572338 -0.00228083 -0.00264777 -0.00693654
O 18.58129831 10.20774332 17.29212076 0.00805636 -0.00675315 -0.00550072
O 23.43236555 8.71342340 25.51410545 0.00239282 -0.00018170 0.00770291
O 19.49233893 10.49275572 25.89973783 -0.00210983 -0.00330851 0.00110486
O 22.53585742 8.96580204 18.03218339 0.00757183 0.00313684 0.00592746
O 23.57238394 3.11806633 31.42921665 0.00049972 0.00211619 -0.00492423
O 17.96259067 4.12415919 23.06344893 -0.00280681 0.00121850 0.00124634
O 23.82323383 1.58486770 0.51460516 0.00993993 0.00310819 -0.00035519
O 19.11074475 5.46291173 25.00476442 -0.00277548 0.00713233 -0.00084328
O 19.05507633 11.38671993 23.55801896 -0.00199483 0.00254274 -0.00786771
O 22.65620025 7.14048149 16.12305715 -0.00277392 0.00181648 0.00775905
O 19.40001609 12.03579798 15.36237034 -0.00184013 -0.00035732 -0.00070787
O 22.48315572 6.91437721 23.93533053 0.00704661 -0.00082555 0.00477701
O 23.48576895 1.35757883 25.27446865 0.00195587 -0.00591999 0.00184336
O 18.13071913 5.41135563 0.54704774 -0.00073071 0.00079942 -0.00323469
O 22.95042123 15.88126229 7.06393794 0.00516789 0.00406730 -0.00065520
O 20.20318909 17.10049127 15.69614492 -0.00285084 0.00051733 0.00340579
O 18.64835737 22.83973429 1.25588720 0.00621535 -0.00108695 -0.00280285
O 23.54792030 21.74621340 9.39714729 0.00107738 -0.00157421 -0.00039197
O 19.25486376 23.20312599 9.30752704 0.00343118 -0.00094716 0.00315337
O 22.80771228 22.33859914 1.06793351 -0.00020781 -0.00387098 -0.00660275
O 23.77240152 15.57175704 15.57663987 0.00265355 -0.00051440 0.00652873
O 17.67389211 15.55408457 6.98078842 0.00163331 0.00076570 -0.00401639
O 23.14666983 14.17324579 17.66648655 0.00254560 -0.00513737 0.00401343
O 19.57823955 19.11971686 10.36982687 0.00555047 0.00680349 -0.00226174
O 18.53260487 24.64531996 7.32550093 0.00067523 -0.00768655 0.00010495
O 22.08693744 20.73796649 31.96707988 0.00668783 -0.00484283 -0.00148280
O 18.84469597 24.44193125 31.99182908 -0.00026149 0.00018583 0.00130512
O 22.42566116 20.68874779 7.35597025 -0.00167286 0.00555432 -0.00305944
O 23.64363767 14.07327416 9.43430343 -0.00561435 -0.00598450 -0.00914150
O 19.08893032 18.09742793 17.84731588 -0.00643657 0.00021417 -0.00075994
O 22.59527868 15.60588217 23.68635814 0.01286397 0.00574427 0.00573971
O 19.75808909 16.26448072 32.14381660 -0.00293564 0.00454877 -0.00168263
O 18.62986646 23.00721626 17.50286622 -0.00062525 0.00310604 -0.00330921
O 23.13499326 22.15785809 25.75118564 0.00482916 0.00361464 0.01146888
O 19.72986902 22.54215266 25.87135729 -0.00045678 0.00376966 0.00464098
O 23.28942878 22.59479157 17.69341500 -0.00309941 0.00469209 0.00442556
O 23.64525848 15.35657078 31.90834276 0.00149077 0.00272938 -0.00608221
O 17.66520896 16.27075131 23.72814743 -0.00002347 0.00458991 0.00082515
O 22.62875823 14.16736365 0.99985811 -0.00012114 -0.00391793 0.00359679
O 18.50596902 17.87321199 25.85919473 -0.00397528 -0.00526339 0.00060289
O 18.42492520 24.81497646 23.17552981 0.01122291 0.00838521 0.00644028
O 23.25908886 20.92480415 15.75570703 0.00152185 0.00196806 -0.00228594
O 18.29477552 24.68845418 15.51583613 0.00326950 0.00055955 -0.00340613
O 22.66656537 20.48770187 23.62422384 -0.00464827 -0.00031029 0.00089921
O 23.15797215 13.99339516 25.62845573 -0.00492055 -0.00214341 0.00170001
O 19.92761239 17.85609140 1.40134299 -0.00077993 -0.00419976 -0.00193718
N 7.56191648 13.11404314 2.91947396 0.00073225 0.00234029 -0.00226251
N 1.07862885 6.52912698 10.24727694 0.00980084 0.00956439 0.00151307
N 2.95448008 25.84690191 5.61923725 0.00668806 -0.00048723 -0.00297966
N 4.97125385 6.50219795 14.44264771 0.00098181 0.00309542 -0.00323785
N 1.50770187 0.19627668 13.72424031 0.00192919 -0.00250440 0.00305327
N 7.23187828 6.34295027 6.17931738 0.00049533 0.00378401 -0.00226635
N 5.07117730 12.99547587 11.19517603 0.00126097 0.00520922 0.00062078
N 2.63419640 6.68654216 1.92796460 -0.00148490 -0.00598438 0.00268344
N 7.48933768 13.14192547 19.06060132 0.00440882 -0.00116311 0.00537794
N 1.62122355 6.50345531 26.59998630 0.00114703 -0.00068442 -0.00030575
N 2.98029271 25.58904484 21.91113277 0.00000841 0.00671977 -0.00066603
N 5.40189801 6.56411327 30.91294100 -0.00126599 0.00104659 -0.00698528
N 1.12862013 0.28536715 30.52612014 0.00683511 -0.00105991 0.00555963
N 7.39266354 6.31244861 22.52740014 -0.00011329 -0.00623951 0.00265610
N 4.99180387 12.92414478 27.48210532 0.00303609 -0.00017037 -0.00016993
N 2.63275274 6.49319306 18.83396093 -0.00225959 -0.00114804 -0.00918416
N 6.68105950 0.39127027 2.38622343 0.00157965 0.00525651 0.00831636
N 1.08140510 18.90551662 10.94342939 0.00116663 0.00349646 -0.01287784
N 2.92172022 13.05622521 6.20573635 0.00549186 0.00381593 -0.00254800
N 4.77948210 20.22633717 13.48729712 0.00659520 0.00326480 -0.00628627
N 0.80231748 12.25752078 14.75085422 0.00507514 -0.00218998 -0.00053767
N 7.09150677 19.23850350 5.56597513 0.00741258 0.00268326 0.00659635
N 4.92997380 25.88487689 10.53305540 0.00409229 -0.00288082 -0.00453499
N 2.85883136 19.63217685 2.07954098 -0.00045741 -0.00108828 0.00596430
N 7.34284958 25.81331649 18.17320527 0.00365736 0.00213356 0.00887266
N 1.04031629 19.69474758 27.10000791 0.00047922 -0.00194120 0.00436973
N 2.88625239 12.98601885 22.76138265 0.00514614 -0.00475240 0.00524331
N 5.02588223 19.68802044 29.93203460 -0.00114644 0.00779639 0.00047925
N 1.07130995 13.06872099 31.35780012 0.00518352 -0.00009633 0.00228638
N 7.01086906 19.37715724 21.77393811 -0.00376419 -0.00504897 -0.00147221
N 4.88045102 0.36330954 27.29390940 0.00044168 -0.00143556 -0.00334833
N 3.43609133 18.92630618 19.07904425 0.00516600 -0.00219068 -0.00248263
N 15.74513708 13.12094638 2.56852335 0.00061096 -0.00039316 0.00118504
N 9.36853175 6.37803840 11.04081622 -0.00022293 -0.00209397 0.00165607
N 11.87794865 0.14220452 5.08473842 -0.00065906 0.00115392 -0.00023326
N 13.52093246 6.58346333 13.91663340 0.00307076 0.00327022 -0.01109882
N 9.78258810 25.83605010 13.67720730 0.00238515 -0.00273206 -0.00356824
N 16.34623014 6.72049829 5.22330612 -0.00110983 0.00295682 0.00062622
N 13.78256473 12.85307252 10.86646044 -0.01134311 -0.00957258 -0.00261127
N 12.28792569 6.36387506 2.94637799 0.00095059 -0.00070870 0.00614920
N 16.16063744 13.20406721 18.76058972 0.00245157 -0.00716693 -0.00010333
N 9.74712402 6.51548586 27.91630432 0.01026810 0.00774739 -0.00679066
N 11.98550562 25.74678556 21.87598345 -0.00503572 0.00070959 -0.00283034
N 14.05140669 6.97719730 30.32964640 0.00592526 0.00010641 -0.00696778
N 9.41878361 25.67489217 30.26407797 0.00245558 -0.00845022 0.00052483
N 15.88024046 6.79804045 22.18038791 -0.00306641 -0.00419804 0.00170913
N 13.72235140 12.97623749 27.75981482 0.00106586 -0.00077168 0.00804759
N 11.55701579 6.58884870 19.66597205 0.00041525 -0.00137381 0.00441748
N 15.42521422 25.87995475 2.07359540 -0.00075277 -0.00249088 0.00047016
N 9.34937685 19.32695232 10.54650885 0.00378786 0.00993395 0.00472446
N 12.03714543 12.61883633 5.72953007 -0.00522601 -0.00002635 0.00100149
N 13.46094221 19.22550666 14.89205227 0.00210956 0.00079627 -0.00753611
N 9.27153905 12.51506598 14.48223519 0.00271094 -0.00259943 -0.00354763
N 14.86549404 19.29324459 6.68073173 -0.00078813 -0.00252930 0.00284262
N 13.85824114 25.68299527 10.21691858 0.00548501 0.00437356 -0.00710500
N 11.74937904 19.32776862 1.98043185 0.00577707 -0.00184858 0.00168147
N 15.80426434 0.10564411 18.65562089 0.00206041 0.00577572 0.00072947
N 9.21507330 19.30062143 26.66509972 -0.00755727 0.00504567 0.00210913
N 11.72794256 12.33203486 22.66528366 0.00077406 0.00203628 0.00355514
N 13.45828328 19.78720131 30.37847596 -0.00181823 -0.00175240 0.00804509
N 9.00847849 12.52009489 30.73023068 -0.00046782 -0.00351308 0.00818568
N 15.34504774 18.90656781 22.58015481 0.00237532 -0.00185483 -0.00978115
N 14.15028327 25.82214286 26.37319045 0.00369262 -0.00088766 -0.00079407
N 11.20523131 19.80266149 18.60743625 -0.00179361 -0.00046902 -0.00217358
N 23.67417682 12.78799976 2.46269631 -0.00329572 -0.00098304 0.00339704
N 18.19549161 6.39818590 10.15619519 -0.00210480 -0.00337641 -0.00814589
N 20.02350101 25.47206032 5.88847953 -0.00617457 0.00203975 0.00741883
N 21.91760090 5.95229879 14.25397224 0.00196434 0.00160413 -0.00247915
N 17.78035924 0.16691356 13.73630327 -0.00283091 0.00337264 0.00184524
N 24.13968245 6.38736016 5.90629714 0.00679863 0.00062954 -0.00293249
N 22.42140975 12.92141918 10.91166101 0.00004774 0.00441053 -0.00169881
N 19.94500224 6.18697712 1.78512075 0.00337344 0.00483221 0.00377327
N 24.28800203 12.94757622 19.27693493 -0.00168601 -0.01196341 -0.00027058
N 18.37177487 6.70334056 26.73803129 -0.00618093 0.00108940 -0.00035652
N 20.09155769 25.73425344 21.94198243 0.00064090 0.00386238 -0.00161504
N 22.34005829 6.14356535 30.38567895 -0.00025586 -0.00078985 0.00140717
N 18.00300260 25.62939522 30.29306661 0.00397577 0.00737760 0.00106697
N 24.12793450 6.29686235 22.51469871 -0.00006443 0.00569332 -0.00027252
N 22.26481260 12.69642400 27.18635425 -0.00765485 0.00127858 -0.00338680
N 20.14102687 5.97710672 18.34828458 0.00557202 0.00385807 -0.00017483
N 24.42283199 0.37141178 2.32853532 0.00466913 -0.00832510 -0.00299147
N 17.55196054 19.18018043 11.48305276 -0.00165940 -0.00168986 0.00241948
N 20.23845864 13.25369063 5.78903607 0.00135751 0.00336394 -0.00012751
N 22.42327689 19.40502850 14.30552894 -0.00361097 -0.00365780 -0.00040132
N 18.11929886 13.26309123 13.88982941 -0.00421200 -0.00088523 0.00084046
N 23.72846475 19.60318208 5.84119283 0.00252746 -0.00171087 0.00653429
N 22.12545041 0.14836437 10.68960673 -0.00297501 0.00299588 0.00439303
N 19.84654661 19.11856482 3.28181073 0.00235102 -0.00477042 -0.00490197
N 24.44877739 0.41338601 18.64697867 0.00115507 0.00270110 0.00312993
N 18.02842475 19.19724437 27.71380750 0.00516076 -0.00248748 -0.00136792
N 20.34598191 12.51794868 22.05473522 0.00218354 0.00134360 -0.00106402
N 21.52520465 19.29036619 30.30699148 -0.00373848 0.00477134 -0.00011412
N 17.96353858 12.88841105 30.66961874 -0.00088609 0.00038069 0.00745053
N 23.79002008 19.20409099 22.15518346 -0.00225337 -0.00229696 0.00563473
N 22.00355018 0.53897809 26.86158919 0.00629705 0.00355873 0.00359844
N 20.27526629 18.98503116 19.59579017 0.00033950 -0.00780034 0.00001690
C 7.28323231 0.76240142 4.70664101 -0.00411378 0.00168199 -0.00408878
C 0.90694292 6.43814199 12.67550153 -0.00061938 0.01007974 0.00523152
C 3.20744565 12.59060787 3.85724621 0.00004168 0.00208981 0.00867816
C 5.07627149 6.71790416 11.98646246 -0.00582525 0.00525941 0.00023042
C 1.10535832 12.24320389 12.35548835 0.00257006 -0.00531253 -0.00617301
C 7.63369549 6.79475932 3.81667123 0.00290294 0.00475601 -0.00391274
C 5.06355850 0.63049866 12.90255620 -0.00803550 0.00328077 0.00157068
C 3.36619360 6.10130462 4.17446790 -0.00866704 0.00174153 -0.00284339
C 7.11709977 1.53305011 5.85451126 -0.00301923 -0.00797638 -0.00480399
C 1.23323438 5.88157805 13.90794088 -0.00178276 -0.00216001 0.00378673
C 2.98961123 11.75150768 2.80147151 0.00232436 -0.00163893 0.00225579
C 5.54877048 7.38891901 10.89260086 0.00022591 -0.00178175 -0.00183004
C 1.62618362 11.72397276 11.14539001 -0.00392107 -0.00351351 -0.00596602
C 7.42931394 7.51581703 2.62648818 -0.00639634 0.00991760 0.00407375
C 5.60991742 1.36651382 13.88754101 -0.01226962 0.00044027 0.00111092
C 3.12763449 5.41327151 5.35758330 0.00075585 -0.00467279 -0.00844897
C 6.17601896 2.59431482 5.82167644 0.00637120 0.00393085 -0.00364203
C 2.01490022 4.71342613 13.96233079 -0.00447247 0.00398858 0.00167632
C 2.18589889 10.54011262 2.92040715 0.00373397 0.00097151 -0.00782464
C 6.19541495 8.63356856 10.97480598 -0.00166430 -0.00221228 0.00447952
C 2.21089332 10.44801760 11.20359710 0.00381041 -0.00252578 -0.00413589
C 6.51917405 8.59325015 2.56310121 -0.00334331 -0.00678564 0.00584005
C 6.33081948 2.53963546 13.68910863 0.00185042 0.00575938 -0.00078832
C 2.06827795 4.47287320 5.45857032 0.00243244 0.00356029 -0.00380987
C 5.84191247 3.09296934 4.57642908 0.00383482 0.00336852 -0.00409942
C 2.10172883 3.99210775 12.75335741 -0.00812153 0.00693172 0.00011536
C 1.73026365 10.22858027 4.25525745 -0.00524715 -0.00005435 -0.00111027
C 6.58968094 9.03974253 12.27806945 -0.00616071 0.00209029 0.00376225
C 2.54075337 9.93244748 12.50068722 0.00245025 0.00505335 -0.00233348
C 5.85972311 8.95448328 3.74786761 -0.00608613 0.00636243 -0.00458967
C 6.42798086 2.90147506 12.34602248 0.00055716 0.00240680 0.00478569
C 1.27034096 4.18578180 4.31831641 0.00753855 -0.00383650 -0.00640391
C 6.27123559 2.47305452 3.42976064 0.00531709 0.00360301 -0.01192519
C 1.98225079 4.60293436 11.49219868 0.00384449 -0.00470279 0.00011006
C 2.08007647 11.01193310 5.34475059 0.00232937 -0.00643378 0.00333949
C 6.05054785 8.44275466 13.43401207 -0.00596818 -0.00126398 -0.00244247
C 2.13551955 10.54535775 13.69580259 0.00002020 -0.00155308 0.00054883
C 6.13121486 8.29622270 4.94084279 0.00827897 -0.00557102 -0.00237326
C 5.91131038 2.15740523 11.32680648 -0.00369257 0.00305086 -0.00247266
C 1.66571024 4.77937231 3.12585238 0.00089038 0.00486014 -0.00466905
C 6.83198045 1.19399717 3.49272014 0.00088021 -0.00092218 -0.00143726
C 1.32011681 5.84780771 11.46410049 -0.00268350 0.00429007 -0.00271060
C 2.74693976 12.21513372 5.16495961 -0.00263165 0.00621179 -0.00760776
C 5.32826719 7.27057708 13.30126166 -0.01023331 -0.00383325 0.00173606
C 1.29183580 11.63537208 13.60264656 0.00236164 -0.00727006 -0.00286111
C 7.02309847 7.15013512 5.02669294 -0.00520911 0.00151819 0.00238259
C 5.34251595 0.82019184 11.51502988 0.00489306 -0.00542374 -0.00420741
C 2.56137209 5.84816057 3.03796609 0.00572645 0.00132819 0.00190950
C 6.83923302 0.79651927 1.09583480 -0.00620296 0.00070032 -0.00208167
C 1.60462934 6.23687081 8.99801187 0.00256772 -0.00580341 -0.00021001
C 2.60145747 12.70946459 7.49413033 0.00677846 -0.00270514 -0.00937775
C 5.39910858 6.81393190 15.70849616 -0.00245074 -0.00112605 0.00112808
C 1.47164341 12.08726024 15.87114003 0.00206353 -0.00890594 -0.00427955
C 6.96897508 6.77555304 7.42963083 0.01048141 0.00015032 -0.00283668
C 5.51404639 0.07818157 9.33418384 0.00313616 -0.00177983 -0.00228994
C 2.05547342 6.41205215 0.72891648 0.00817155 0.00274312 0.00118880
C 6.71903701 12.11029855 17.03780637 0.00137815 0.00290464 0.00022499
C 1.22127400 7.14121158 7.81281865 -0.00255043 0.00045810 -0.00149759
C 2.65986565 0.92251916 7.85441570 -0.00089744 0.00171164 0.00782411
C 5.32530753 6.11160270 0.38553140 0.00330220 0.00216455 -0.00894363
C 1.62078688 1.40953041 32.66954357 -0.01008964 0.00308226 0.00874565
C 6.92321627 5.69885676 8.49016335 -0.00067511 0.00616356 0.00104710
C 5.35979129 11.88490542 8.98156736 0.00766472 0.00232947 0.00504009
C 2.12762350 7.47827875 16.65573924 -0.00378126 0.00234433 0.00652842
C 7.51682300 25.86681605 20.48251034 -0.00146374 -0.00925251 0.00669015
C 1.32142953 6.10124743 28.95097760 0.00028232 -0.00233689 -0.00146734
C 3.13824766 12.45681655 20.44955017 -0.00040333 -0.00337546 -0.00474240
C 5.31845298 6.73832616 28.51661074 -0.00358525 -0.00269390 0.00378831
C 1.20089138 12.85576180 29.00229120 -0.00069924 -0.01401077 -0.00244721
C 7.27630715 6.76577916 20.13847652 -0.00208861 -0.00147607 -0.00263053
C 5.23507666 0.78782521 29.55200367 -0.00162010 0.00331384 -0.00035340
C 3.47675237 5.92624314 21.11925426 -0.00039198 0.01537968 0.00180452
C 7.19658104 0.51290420 21.72220708 -0.00118489 -0.00551437 0.00206126
C 1.57059104 5.38901238 30.06981271 0.00368069 -0.00753432 -0.00111619
C 2.80014274 11.65213665 19.34311610 0.00409741 0.00040864 0.00032674
C 5.64777631 7.31179100 27.29510474 0.00747107 0.00052668 -0.00082524
C 1.39367215 12.19873721 27.82469424 -0.00661433 -0.00349879 0.00738050
C 6.79189382 7.47874562 19.04648116 -0.00495881 -0.00510973 0.00109251
C 5.61036396 1.59754845 30.60358253 -0.00461716 0.00897141 0.00530537
C 3.25690731 5.21495490 22.24917547 -0.00417184 0.00028732 -0.00010261
C 6.50221243 1.71476622 21.82716572 -0.00075169 -0.00580656 -0.00108851
C 2.33564047 4.21893645 30.00400320 -0.00474009 -0.00146273 -0.00552690
C 2.15795774 10.42572752 19.57160932 0.00020270 0.00525457 -0.00011145
C 6.37992546 8.54180989 27.25314820 -0.00719534 -0.00053557 0.00061263
C 2.03477106 10.93796523 27.88593337 -0.00070870 -0.00067193 0.00984608
C 6.07678360 8.63414547 19.21658871 0.00205566 -0.00630401 0.00257901
C 6.47855589 2.72213393 30.38242270 -0.00006122 0.00260894 -0.01283397
C 2.54060705 4.01673338 22.24543105 0.00846841 0.00119487 0.00591782
C 6.28594886 2.44622654 20.66819142 -0.00198406 0.00233598 -0.00422913
C 2.57806045 3.69100119 28.70227761 0.00924860 -0.00206787 0.00191776
C 1.99533754 9.91895553 20.89297936 0.00213298 0.00587719 -0.00211009
C 6.61343892 9.16310445 28.46177684 -0.00442326 0.00308427 0.00604110
C 2.39931212 10.38455993 29.15265362 -0.00344844 -0.00404076 0.00645972
C 5.85652132 9.08282003 20.57946603 -0.00074357 0.00615421 0.00679330
C 6.79605380 3.02370071 29.05621070 0.00594538 -0.00022385 0.00341229
C 2.08371831 3.57590716 21.02509191 0.00221189 0.00483246 0.00119128
C 6.76170746 1.97787480 19.45846106 0.00419799 -0.00433946 0.00424986
C 2.36511364 4.39138616 27.55160675 0.00387843 -0.00395659 0.00327913
C 2.08419443 10.83385718 21.96156444 -0.00025566 0.00654477 0.00008408
C 6.41227067 8.52307257 29.67707206 0.00188855 -0.01003144 0.00287841
C 2.07715510 11.04706035 30.33611468 -0.00282347 0.00032385 0.00499068
C 6.31752975 8.41180218 21.67001172 0.00750086 -0.00458417 -0.00212350
C 6.34088684 2.25526348 27.96526963 0.00071636 -0.01375609 -0.00472432
C 2.17254535 4.37990283 19.89044976 -0.00391842 0.00595652 0.00500047
C 7.23527540 0.68465620 19.31413756 0.00083672 -0.00306318 0.00286078
C 1.75759190 5.66322107 27.68672534 0.00522426 -0.00915180 0.00146999
C 2.71237872 12.10657537 21.75922884 -0.00013844 0.00636384 -0.00601765
C 5.80316410 7.20699374 29.70213587 0.00144034 0.00885411 0.00055483
C 1.42393806 12.24801765 30.25582705 0.00083660 -0.00562954 -0.00092853
C 7.02865614 7.13693486 21.48894454 -0.00048210 0.00400782 0.00816412
C 5.58729559 1.08864487 28.28227233 0.00217462 -0.00234274 -0.00274196
C 2.81371932 5.63682453 19.91638907 -0.00152149 0.00579528 0.00544556
C 7.08825843 0.36947213 16.92228271 -0.00289233 0.00620015 0.00673544
C 1.93351302 6.19463811 25.35385724 0.00348670 -0.00504203 0.00343032
C 2.50973770 12.83109011 24.01740699 0.00183824 -0.00011574 0.00008768
C 5.84325626 6.89098982 32.12698564 -0.00518690 0.00108782 -0.00496204
C 1.46914230 12.82147278 32.63343920 0.00195262 0.00155040 -0.00104019
C 6.87375563 6.30504878 23.79176100 -0.00452361 -0.00028897 -0.00073691
C 5.50536735 0.11151595 26.13407980 0.00489283 -0.00163975 -0.00137925
C 1.97392272 6.33126406 17.64859740 0.00035024 -0.01012748 -0.00099702
C 7.35310734 11.99829252 0.73722510 0.00292252 -0.00002671 0.00050114
C 1.54935188 7.07831070 24.21640029 0.00173626 0.00585007 -0.00429806
C 3.10455113 0.42870900 24.15533620 -0.00721151 0.00148181 -0.01420912
C 5.47563750 5.59626790 16.60002186 0.00098801 0.00452888 -0.00295424
C 1.97421084 1.19679808 15.77837476 0.00356000 0.00053973 -0.00980085
C 7.11683356 5.03857211 24.53418353 0.00083393 -0.00249353 -0.00159022
C 5.09448086 11.80230314 25.26901602 -0.00222245 0.01266213 -0.00495894