1920
Time=69000.00000006 pbc="T T T" Lattice="25.52651055 0.00000000 0.00000000 0.00000000 25.57725834 0.00000000 0.00000000 0.00000000 32.92685293" energy=-12253.30891359 virial="-25.76462672 -13.44214729 -3.10024047 -13.44214729 -3.95500532 -6.32215278 -3.10024047 -6.32215278 -2.06229076" stress="0.00095070 -0.00061776 -0.00016908 -0.00061776 0.00201868 -0.00037407 -0.00016908 -0.00037407 0.00203813" Properties=species:S:1:pos:R:3:vel:R:3
O 5.91362727 2.58534191 6.64010295 0.00151371 0.00661737 0.00488592
O 2.36501840 3.78413462 14.91686371 -0.00427176 0.00642531 -0.00238473
O 1.52886649 9.99600273 1.40727462 -0.00441186 0.00648596 -0.00419735
O 6.94949149 8.91368064 9.34061221 0.00321549 0.00567840 -0.00957398
O 2.31275721 10.04194971 9.50218508 -0.00483796 -0.00341040 -0.00008047
O 5.88764829 9.37532431 1.26043352 0.00105869 0.00581887 0.00096671
O 6.75574773 2.70141319 14.77110112 0.00043529 0.00116387 -0.00297101
O 1.54960775 3.67754387 6.37465736 0.00006962 -0.00131547 0.00063979
O 6.48718503 1.16787235 16.79339883 -0.00161216 -0.00058045 0.00251085
O 1.68341186 5.11556998 8.58039814 0.00804680 -0.00291678 -0.00260178
O 2.20387184 11.91266562 7.52713997 0.00791395 0.00313792 0.00301667
O 6.17955623 7.58240307 32.21871026 -0.00393169 -0.00133872 0.00060306
O 2.18789005 11.86057824 32.48496861 0.00224880 -0.00186341 -0.00325757
O 6.58801456 7.56320463 7.13383407 0.00368971 -0.00462854 -0.00062219
O 6.27852229 0.99800478 8.65361214 -0.00068279 -0.00080905 -0.00461687
O 2.18718247 5.21189319 17.03986227 0.00155608 0.00401656 -0.00460390
O 6.29975525 2.72130797 23.14118844 0.00614562 -0.00506618 0.00102071
O 2.43287814 3.64322284 31.39501670 -0.00825484 -0.00667162 -0.00213035
O 1.98280417 10.12087257 17.66381627 0.00055101 0.00359957 0.00338589
O 6.62258214 9.24331705 26.09648905 0.00153074 -0.00390095 0.00326642
O 2.25711225 9.84165691 26.24128322 0.00294528 0.00864181 -0.00227032
O 5.94874902 8.94362210 17.75535702 -0.00512804 0.00038132 -0.00317018
O 7.14303155 2.41045004 31.48529467 0.00170850 -0.00197131 -0.00232030
O 1.35350861 3.43421832 22.99209214 -0.00044618 -0.00341951 0.00000076
O 6.47002949 1.04656829 0.56171452 0.00324988 -0.00963369 0.00464965
O 1.98188965 4.96833061 25.07223812 0.00318599 0.00459776 0.00202421
O 2.42351350 11.07854023 24.03131732 0.00152614 0.00185034 -0.00472706
O 6.14508620 7.55410710 15.51742740 0.00658814 0.00225174 0.00187099
O 2.15591613 11.79793712 15.74182497 -0.00632850 0.00259187 -0.00105481
O 6.29654847 7.56007040 23.99592414 0.00030637 -0.00314200 0.00816850
O 6.55302047 1.19647499 25.32052688 -0.00326302 -0.00235326 -0.00113598
O 1.89890635 5.30089388 0.32355768 -0.00025899 -0.00768520 0.00247632
O 6.00952176 15.68299382 7.08075849 0.00308345 -0.00531809 0.00417423
O 2.65704699 16.98209298 15.53123623 0.00400894 -0.00514977 -0.00407770
O 1.53779258 22.71612228 1.07101216 -0.00604565 0.00005159 -0.00275844
O 6.86347681 21.83912353 9.81625934 0.00027287 0.00099853 -0.00705434
O 2.38195863 22.98716859 9.31517753 -0.00488172 0.00286479 0.00179782
O 5.98750780 21.81305198 1.52140198 0.00686040 0.00079337 0.00363492
O 6.42376757 15.62228279 15.30318288 -0.00371866 -0.00747493 -0.00045301
O 1.20907341 16.85632460 7.12582920 0.00051891 -0.00538324 -0.00895839
O 6.17132651 13.99561772 17.31446233 -0.00541882 -0.00301762 -0.00424228
O 1.87132314 18.13305310 9.26366442 -0.00191841 -0.00465443 -0.00200199
O 2.04280527 24.31783886 7.17847336 -0.00162975 0.00578022 -0.00936822
O 6.02241330 20.31798001 32.32186240 -0.00003530 -0.00527011 -0.00270094
O 2.15407082 24.21227523 32.07387435 -0.00299607 0.00169399 -0.00128288
O 6.28720525 20.30782332 7.83525257 0.00730149 -0.00313683 0.00472071
O 5.90214194 14.00833447 9.13814201 0.00029296 -0.00008662 -0.00161837
O 1.74226806 18.22113732 17.62782065 0.00028218 0.00373415 -0.00101464
O 5.71028782 15.37173343 23.50818165 -0.00202250 0.00215406 0.00356334
O 2.58596443 16.41367753 31.81664996 -0.00424155 0.00015800 0.00153366
O 1.33757603 23.31712179 17.61824109 -0.00430925 -0.00171108 -0.00383155
O 6.94008208 22.11855651 26.15941970 0.00050821 -0.00290999 0.00072105
O 2.78965538 23.07452548 25.80688881 -0.00147355 0.00056246 0.00096556
O 5.59465859 22.17603800 18.08150406 -0.00469518 -0.00109973 -0.00058689
O 7.51163721 15.40491819 31.56514075 0.00344722 0.00795721 -0.00080506
O 1.86194367 16.07937618 23.56172193 -0.00013294 0.00300011 0.00297269
O 6.71398120 14.29011282 0.71758502 0.00236244 -0.00336165 0.00100646
O 1.70127385 17.84219243 25.57727493 -0.00019564 0.00706091 0.00090989
O 2.43609465 24.46252511 23.77240386 -0.00370317 0.00187876 0.00393423
O 6.06302020 20.63294466 15.93849938 0.00319792 -0.00259985 -0.00218130
O 1.87778873 24.63621704 15.55043340 -0.00339566 -0.00164520 -0.00296661
O 6.73448114 20.43213507 24.11950182 -0.00177524 -0.00095560 0.00138513
O 6.10579342 13.86866336 25.56863793 -0.00829891 0.00524755 0.00232782
O 1.90870412 17.97972006 0.92157199 0.00141107 -0.00085923 0.00723779
O 14.29846688 2.77658709 6.48961189 -0.00491800 0.00085906 -0.00341881
O 11.00633374 4.16349086 15.31142381 -0.00034536 -0.00022025 -0.00318758
O 10.45763214 9.90976076 1.50550865 -0.00375587 -0.00183116 0.00042746
O 15.22277986 9.04111509 9.58878065 -0.00526532 -0.00291554 -0.00332374
O 10.72526968 9.93026682 9.64466650 0.00409544 0.00389903 0.00040951
O 14.34857558 8.92026369 1.36205678 -0.00069906 -0.00025296 0.00571130
O 14.78576901 3.16805808 15.06838668 0.00410203 -0.00470790 0.00480679
O 10.24385203 3.16436326 6.79555701 -0.00286078 0.00500691 -0.00207918
O 14.84374550 1.30687464 16.89316129 0.00364935 0.00404870 0.00306377
O 10.20598075 4.76691690 8.81286667 -0.00314871 0.00222889 0.00027440
O 10.25821284 11.60993586 7.63839316 0.00961425 -0.00197884 0.00402082
O 15.07518867 7.26676670 32.41385341 -0.00163781 0.00249711 -0.00173114
O 10.78242790 11.36798388 32.26684141 -0.00603023 0.00375194 -0.00240267
O 14.32888235 7.30715167 7.70269637 0.00622817 0.00171833 0.00015452
O 14.75341993 1.53173598 8.69398888 0.00132460 -0.00771516 -0.00403912
O 10.35783318 5.42188622 17.33937391 -0.00642175 -0.00129569 -0.00201584
O 14.28520648 3.19862746 22.86800578 0.00459344 0.00086574 -0.00302237
O 10.96749368 3.34257117 31.56556515 -0.00062695 0.00294383 -0.00112675
O 10.15892932 10.04918597 17.88481549 -0.00194263 -0.00191135 0.00283687
O 15.76145838 8.96988667 26.06699995 -0.00016796 0.00984838 0.00151015
O 11.41485256 10.06700477 25.93128346 0.00012436 0.00314681 -0.00348070
O 14.27027404 9.39307686 17.71469318 0.00202134 0.00419588 0.00413630
O 15.43453451 2.77446175 31.24523252 0.00777479 0.00023430 -0.00260431
O 10.04044875 3.76293600 23.32891319 0.00712713 0.00115790 0.00258704
O 15.14508485 0.93369738 0.31081394 0.00335144 0.00361780 -0.00255020
O 10.85279070 5.12537745 25.47978497 0.00164526 0.00426801 -0.00061282
O 10.78302400 11.63215235 23.97966270 0.00371410 -0.00188557 -0.00109524
O 14.95442510 7.93970521 15.72584639 0.00746064 -0.00175899 -0.00169183
O 10.68756122 11.42601765 15.83054847 0.00059137 -0.00316565 -0.00197640
O 15.11695830 7.74913419 23.84527116 0.00476904 -0.00379957 -0.00195640
O 14.75283235 1.43471973 25.07521440 0.00062305 0.00723613 0.00145118
O 10.87912860 4.88236978 0.68270725 0.00106908 -0.00070909 -0.00375883
O 13.99991329 15.29126631 7.23219226 0.00156164 0.00432251 -0.00204508
O 11.02443967 16.37860861 15.47409720 -0.00553094 -0.00469531 -0.00447842
O 10.23119051 23.10269188 1.08155906 0.00217595 0.00569367 -0.00135764
O 15.25415288 21.65512980 9.62851831 0.00678653 -0.00592040 0.00018292
O 10.95164826 22.94994097 8.91998552 0.00004599 0.00230438 -0.00076217
O 14.69619750 21.96786832 1.30072694 0.00216377 -0.00461076 -0.00282425
O 15.36696466 15.49756054 15.18460349 0.00114309 0.00207896 0.00138989
O 9.87247174 16.54652275 7.19567671 0.00389358 -0.00224076 0.00081562
O 15.45427938 14.25189303 17.41935533 -0.00225751 -0.00076158 -0.00597669
O 10.66734858 18.19662572 9.44281308 -0.00380240 -0.00290228 -0.00290219
O 10.32962930 24.55414851 7.10273814 -0.00434205 -0.00125208 -0.00063181
O 15.23904083 20.31060748 32.33144777 -0.00409302 0.00406348 0.00081313
O 10.76076303 24.30088140 31.91192041 0.00184495 0.00154607 -0.00576075
O 14.64510561 20.43477883 7.51412232 -0.00526832 -0.00027180 -0.00597477
O 14.86732447 13.78113644 9.00182624 -0.00030320 -0.00301896 0.00034070
O 10.88105862 17.88467050 17.49902045 -0.00627237 0.00225875 0.00373347
O 14.72308091 15.72150957 23.91461253 0.00403529 -0.00299580 0.00198862
O 11.32196640 16.30463721 31.80070047 -0.00456520 -0.00151607 -0.00069772
O 10.14120977 22.81003462 17.19913423 -0.00609814 0.00293353 0.00375704
O 15.36144346 22.54617769 26.18366444 0.00163808 -0.00216809 0.00465145
O 11.47944857 23.20941411 25.68454549 -0.00163136 0.00021871 0.00048040
O 14.72510590 21.77818856 17.89760905 -0.00409215 0.00277378 0.00163313
O 15.84567080 15.32603556 31.59577433 0.00164029 0.00055746 -0.00639451
O 9.97102048 16.69032338 23.75174419 -0.00439538 0.00480028 -0.00059247
O 15.48472490 14.46799808 1.04154968 -0.00093517 -0.00735089 0.00397816
O 10.83679164 18.14462750 25.61438305 0.00029464 -0.00182970 -0.00405646
O 10.57459149 24.46555937 23.47920094 0.00365254 -0.01291535 -0.00119356
O 14.83426922 20.59879721 15.77748490 0.00859867 0.00348576 -0.00177471
O 10.63027310 24.41246613 15.20363823 0.00087943 -0.00073377 0.00047718
O 15.20419715 20.68135005 24.35747107 -0.00063185 0.00801846 -0.00502031
O 15.18791778 13.82257162 25.61610107 0.00100057 0.00010576 0.00079602
O 11.06236103 17.96373316 0.95924278 0.00220942 0.00121703 -0.00494045
O 22.84251281 2.70363811 6.78075064 0.00223020 0.00612253 0.00398547
O 19.69393991 3.85027875 15.04664058 0.00268053 -0.00058237 -0.00243662
O 18.42938424 9.79498507 1.19492066 0.00397810 0.00545375 0.00688583
O 24.17755112 9.26736756 9.18066404 -0.00398705 0.00447174 0.00843751
O 19.54911678 10.39202382 9.45739259 0.00015488 -0.00633590 -0.00163165
O 22.47615533 8.91069030 0.94759173 0.00050563 -0.00099021 0.00292152
O 23.33259498 3.15091710 15.24295229 -0.00404439 -0.00326805 0.00104233
O 18.87297034 3.54031568 6.91781079 -0.00392185 0.00059113 -0.00270791
O 23.12061948 1.29425279 17.14737777 -0.00139535 -0.00032813 0.00150414
O 18.62419776 5.09399053 8.81029485 0.00161284 -0.00164891 -0.00708169
O 19.00627171 11.75504082 7.38687409 0.00916369 0.00150250 0.00244498
O 23.61366278 7.64427623 31.98621697 0.00301328 -0.00875892 0.00597751
O 18.97304418 11.55307210 32.15761540 -0.00583911 0.00148381 -0.00339131
O 23.47679351 7.79828681 7.19203256 0.00180495 -0.00139235 -0.00513397
O 23.20509542 1.30654225 9.00635789 -0.00435189 0.00500819 0.00815273
O 18.97964402 5.20882899 16.98637804 0.00702360 -0.00344905 0.00211064
O 22.95840089 2.50061372 23.52953833 -0.00099264 0.00685942 0.00311764
O 19.91990388 3.85479707 31.54447406 -0.00414785 -0.00213691 -0.00267080
O 19.02227782 10.04695831 18.03936814 -0.00490661 0.00065470 0.00321956
O 23.91511419 8.96835223 25.75117593 -0.00487914 0.00071266 -0.00231156
O 19.73842949 9.78233108 26.12231695 -0.00056873 -0.00385942 0.00347934
O 22.74379272 8.95046170 17.29248328 0.00043831 0.00083533 -0.00170315
O 24.18347027 2.70630491 31.40518290 0.00652035 -0.00094008 0.00135726
O 18.54015484 3.68588725 23.32834558 0.00202005 0.00582552 0.00165034
O 23.77681418 1.24957540 0.57612601 0.00136756 0.00288268 0.00282103
O 19.20007592 5.06688724 25.19387037 -0.00043027 -0.00291197 -0.00270195
O 19.53721190 11.35804802 24.20676919 0.00073388 0.00121636 0.00247576
O 23.67576445 7.71112726 15.16692534 -0.00391475 0.00226954 -0.00489760
O 18.91285953 11.41871087 15.77532160 0.00300825 -0.00681490 0.00540614
O 23.53486298 7.62947553 23.51135095 -0.00444565 -0.00416313 0.00004667
O 23.84500554 1.08774038 25.46543129 0.00235377 0.00274448 0.00024449
O 18.86097460 5.26379570 0.59528627 0.00261908 0.00057373 -0.00065493
O 23.00503186 15.60776000 6.93712889 -0.00304855 0.01073563 0.00273158
O 20.00771547 16.37870624 15.44657763 -0.00254644 0.00485743 -0.00154162
O 18.74318774 22.71820498 1.15034052 -0.00640389 0.00503008 -0.00034544
O 23.37094846 22.04982239 9.88316369 -0.00358336 -0.00240885 -0.00695698
O 19.34282314 22.75099900 9.53790304 -0.00613091 0.00142906 0.00027323
O 23.35685983 21.92876282 1.58931575 -0.00649864 -0.00334592 0.00058201
O 23.92355347 15.29245270 15.28391739 0.00173197 0.00173648 0.00766897
O 18.25049846 16.93118092 7.09046945 0.00308625 0.00171969 0.00246688
O 23.73232777 13.94055515 17.44307427 0.00397095 -0.00164173 0.00372422
O 19.05874309 17.92553101 9.43235171 0.00504828 -0.00062671 -0.00235568
O 19.52947621 24.09288425 7.36123296 -0.00027672 0.00024848 0.00022355
O 24.03964217 20.25737003 32.58102876 0.00475846 0.00208318 -0.00330257
O 19.21142285 24.45537774 32.00132468 -0.00026513 0.00583129 0.00028130
O 23.00439702 20.28789814 7.80457429 -0.00010235 0.00064305 -0.00315120
O 23.11234359 14.01876255 8.96909612 0.00353035 0.00198330 -0.00207277
O 18.99606719 17.82562608 17.68768153 -0.00151314 -0.00286856 0.00223936
O 22.95436913 15.72212856 23.49452776 0.00136673 0.00120670 0.00081315
O 20.12849960 16.67784651 31.88300960 0.00368380 0.00156571 0.00451169
O 18.35527032 22.87346872 17.55438329 0.00002960 0.00139774 0.00650165
O 23.81890684 21.83322159 26.09671972 -0.00197389 -0.00886043 0.00218107
O 19.55301198 22.85464243 25.90172990 0.00038615 0.00262331 0.00322217
O 23.20066905 22.08830469 18.06717174 -0.00073207 -0.00831614 0.00123034
O 23.97239973 15.50582991 31.70249347 0.00264478 0.00014857 0.00166731
O 18.87626749 16.30063052 23.76789339 -0.00228276 0.00205199 0.00364125
O 23.37882511 13.89228204 0.75386488 0.00423149 0.00952888 0.00114553
O 19.32496058 17.92733954 25.65251707 -0.00060124 0.00010194 -0.00482721
O 19.06529232 24.22783304 23.72666571 0.00351245 -0.00144134 0.00216409
O 23.57318129 20.23073399 16.15549171 -0.00189061 -0.00592101 0.00099469
O 18.49325577 24.43846356 15.55944678 -0.00404802 -0.00242735 -0.00032317
O 22.89308138 20.29307268 24.24542695 -0.00177284 0.00287488 0.00605670
O 23.15845464 13.83730784 25.51574959 -0.00286983 -0.00313662 -0.00144197
O 19.41182680 17.83441291 0.95523081 0.00130375 0.00477048 0.00010623
N 7.55202279 13.02872942 2.44757774 -0.00526448 0.00393580 -0.00055083
N 0.89954033 6.42083894 10.23334744 0.00132713 -0.00250214 -0.00324069
N 3.30955387 25.44886210 5.48354416 -0.00507288 -0.00592314 0.00164672
N 4.93103645 6.47685654 13.87600636 0.00342264 0.00522999 -0.00239378
N 0.45072073 25.43057839 13.89554183 0.00219049 0.00295295 -0.00022469
N 7.60089418 6.26388307 5.56663007 0.00170545 -0.00294458 0.00048297
N 5.29161473 12.61909910 10.87837835 0.00383829 -0.00236692 0.00145714
N 3.10160276 6.51630153 1.94575421 0.00162242 -0.00647751 0.00512171
N 7.63355460 13.07704232 18.80748087 0.00434632 0.00008088 0.00064699
N 1.54767393 6.54989515 26.72349895 0.00063358 -0.00184211 -0.00281215
N 3.30572849 0.27928391 22.15015511 0.00294598 0.00283126 -0.00005225
N 5.43668677 6.16401518 30.61879676 0.00205132 0.00266670 0.00155716
N 0.88327277 25.26439464 30.53725824 -0.00369573 -0.00177776 -0.00401064
N 7.57177624 6.40800706 22.42495206 -0.00404637 -0.00379888 -0.00181442
N 5.09104107 12.66185305 27.35708353 -0.00729034 0.01337830 -0.00039621
N 3.35309755 6.13650252 18.72953499 0.00684411 0.00113457 0.00569900
N 7.52457652 25.40890941 2.11996505 -0.00379020 -0.00246057 -0.00035491
N 0.64616714 19.20411744 10.96116956 0.00478176 -0.00212116 0.00106519
N 3.30753850 12.87541997 5.77822466 0.00867463 -0.00395529 0.00397947
N 5.03299255 19.32045937 14.38119674 -0.00465243 -0.00597624 0.00168796
N 1.17151500 13.00650182 14.10486855 0.00051393 -0.00467358 -0.00348018
N 7.36507692 19.07833936 6.21047220 0.00240293 -0.00077682 -0.00092997
N 5.12039281 0.04680374 10.35457422 -0.00186383 -0.00204826 -0.00434618
N 3.12761549 19.11152773 2.57628533 0.00478915 -0.00327097 0.00232911
N 7.24181207 25.43648212 18.45642126 0.00120665 -0.00721291 0.01367076
N 1.03362703 19.25194259 27.28114810 -0.00320061 -0.00065435 0.00373383
N 3.11671786 12.61821408 22.48793531 -0.00496732 -0.00512633 -0.00043383
N 5.46726593 19.01388718 30.50646103 0.00602521 -0.00071468 0.00177790
N 1.14111324 12.85087728 30.75434864 -0.00422532 -0.00972406 -0.00442682
N 7.44148517 19.16369351 22.39587947 0.00150546 0.00293570 -0.00340653
N 5.43472190 25.53191338 26.81290381 -0.00151438 -0.00126914 -0.00182799
N 3.17318419 19.19052957 19.28047842 0.00158641 0.00068891 0.00006295
N 15.98236448 12.89278658 2.64135248 0.00761666 -0.00208693 0.00037984
N 9.25126447 6.10967359 10.40183626 -0.00526744 0.00272846 -0.00219291
N 11.90426662 25.49722952 5.79602713 0.01230224 0.00526214 0.00038372
N 13.58103000 6.78944934 14.33912249 0.00609653 0.00288563 0.00313559
N 9.43776624 25.50727449 13.66112698 -0.00387565 0.00408344 0.00032111
N 15.72822695 6.40251195 6.10613524 -0.00400404 0.00270127 0.00000139
N 13.59452669 12.85703559 10.58236274 0.00080305 0.00078425 0.00636467
N 11.55762124 6.21014300 2.42161253 -0.00285399 -0.00146300 0.00323606
N 16.30447997 13.25254211 19.20597458 0.00051769 0.00191560 -0.00962278
N 9.49367460 6.20415487 27.01344953 -0.00404127 -0.00159462 -0.00290626
N 11.97866592 25.34433600 21.86365628 -0.00235762 0.00364113 -0.00718031
N 13.99168169 6.28181126 30.60818280 0.00699412 -0.00853661 0.00598716
N 9.62841253 0.04890400 30.46435322 -0.00416284 0.00600836 -0.00496371
N 15.98855997 6.48789896 22.14041335 0.00140960 -0.00276779 -0.00218908
N 13.77484600 12.80105484 27.15972573 -0.00053995 0.00364362 -0.00266510
N 11.74185428 6.50800466 18.86749816 -0.00033485 -0.00279149 0.00204024
N 16.31026312 25.49643713 2.09123812 -0.00133592 0.00157790 0.00488303
N 9.32233573 19.06932176 10.99026662 -0.00201676 0.00056185 -0.00090821
N 11.44378594 12.80835215 6.18824048 0.00732143 0.00466348 0.00864517
N 13.62612629 19.38820686 14.24251419 0.00371813 -0.00138833 0.00523496
N 9.54334251 12.65594722 14.25258499 -0.00331359 -0.00483200 -0.00219805
N 16.11795884 19.27745403 6.10693326 0.00029578 -0.00722472 0.00530907
N 13.67926404 0.39320072 10.34889440 -0.00083408 0.00101024 0.00319985
N 12.23075520 18.91273510 2.71959948 -0.00465593 -0.00403722 -0.00170409
N 15.90828134 0.21386598 18.58597811 0.00586295 -0.00817698 -0.00130858
N 9.68949819 19.24402110 27.30916846 0.00592631 0.00180164 -0.00043695
N 11.81893869 12.88051610 22.43003171 0.00006666 0.00366894 0.00344052
N 14.16851208 19.25990116 30.58357977 0.00131666 0.00353622 0.00013836
N 9.64539752 12.46831930 30.54612097 -0.00125580 -0.00188212 0.00479890
N 16.05190624 19.36259088 22.60205726 0.00017626 -0.00098657 -0.00063140
N 14.02447724 0.04223367 26.68252169 0.00165091 0.00226920 -0.00034646
N 11.53726773 19.14582708 19.30022904 0.00194905 -0.00167488 0.00845179
N 24.26820253 12.61176663 2.39561477 0.00274156 -0.00126919 0.00260365
N 17.93125678 6.42908953 10.57617277 0.00664545 -0.00360894 -0.00200753
N 20.46062151 25.38619124 5.72525072 -0.00096282 -0.00629815 -0.00447121
N 22.01018639 7.14560172 13.75331556 -0.00192558 -0.00156806 -0.00744703
N 17.76012802 0.17801743 13.85903232 -0.00601587 -0.00335272 0.00598889
N 24.57928815 6.64021164 5.46417133 0.00331458 0.00100667 0.00118291
N 22.13811642 12.71530383 10.64130616 0.00466297 -0.00816625 -0.00058048
N 20.14495947 6.25117582 2.16717444 -0.00134102 -0.00606017 0.00355461
N 24.54866181 12.62834389 19.12946664 0.00208273 0.00082805 -0.00958915
N 18.31139270 6.34631472 26.87178936 0.00270619 -0.00748339 -0.00350930
N 20.21896574 25.39051371 22.04674459 0.00174993 0.00029462 -0.00578729
N 22.71756771 6.12357703 30.48125538 0.00578718 0.00110640 -0.00612131
N 18.18547151 0.12461289 30.40906418 -0.00546737 -0.00312041 -0.00678445
N 24.70191755 6.48282846 21.89124851 0.00232043 0.00121028 0.00029758
N 22.56298638 12.51260924 27.26497971 0.00808514 0.00656892 -0.00547022
N 20.23850897 6.12625892 18.63799083 -0.00452966 0.00232915 -0.00324377
N 24.56792759 25.53031976 2.21128589 -0.00236299 0.00494191 0.00160470
N 17.93060748 19.11646941 11.07697066 0.00284906 0.00022509 0.00797190
N 20.17072601 12.73501610 5.57067562 -0.00503717 0.00460448 -0.00365472
N 22.28913215 19.13066497 14.53332003 -0.00092376 0.00303468 0.00734170
N 17.86672217 12.64677770 14.22399802 -0.00188217 0.00399654 -0.00107976
N 24.38710860 19.16850929 6.42258137 0.00386786 -0.00259975 0.00225272
N 22.17547452 0.09979976 10.69288145 0.00293214 -0.00024692 0.00461493
N 20.63699641 18.88678359 2.55128177 0.00421597 -0.00061743 0.00553725
N 24.39897660 0.13790954 18.77922879 0.00059861 0.00663020 0.00760782
N 18.03976732 18.95171052 27.24375599 -0.00137724 -0.00187818 0.00226715
N 20.37131389 12.78510308 22.66155497 0.00662482 0.00594021 0.00586577
N 22.61240016 19.40041507 31.04750469 -0.00633544 0.00020308 0.00520728
N 18.40236798 12.87923626 30.34969510 0.00231335 0.00841435 -0.00922958
N 24.26387151 19.18250861 22.79794547 -0.00262799 0.00288539 0.00419550
N 22.33791943 0.18500791 26.85523591 0.00669892 0.00054831 -0.00108963
N 20.47103698 18.78456955 19.16997609 -0.00144326 0.00308025 0.00507017
C 7.58059575 0.19129741 4.51634508 0.00241387 0.00015234 -0.00412704
C 0.76819828 6.17713092 12.64289054 -0.00508591 -0.00124320 0.00115904
C 3.47229981 12.33157291 3.50776483 0.00249070 -0.00054408 -0.00248543
C 4.98731687 6.67561035 11.47828769 -0.00075869 -0.00009287 -0.00833034
C 1.04040637 12.62764047 11.69258864 -0.00458781 -0.00174888 -0.00491586
C 7.56519536 6.75477112 3.15061305 -0.00435642 0.00661179 0.00244960
C 4.91619533 0.49935547 12.62475066 0.00582507 0.00244871 0.00811680
C 3.33455507 6.07646623 4.32638567 -0.00051286 -0.00610705 -0.00190231
C 7.15260571 0.79732996 5.65313421 0.00355133 -0.00593010 0.00143711
C 1.00714894 5.43750460 13.75106156 -0.00369107 0.00156140 0.00194971
C 2.91269837 11.73399902 2.40941031 -0.00052721 -0.00630743 -0.01081305
C 5.52150448 7.20601722 10.31465444 -0.00544809 0.00115040 0.00023372
C 1.24906382 11.84798940 10.57885339 -0.00135023 0.00317518 -0.00378672
C 7.21627401 7.47759770 2.03578709 -0.00271500 0.00425996 -0.00521796
C 5.21432280 1.30595988 13.70718411 0.00141454 -0.00735070 0.00010739
C 3.00271440 5.33054250 5.42543056 -0.00223740 -0.00862170 -0.00448061
C 6.31379002 1.93203430 5.57679653 0.00542089 -0.00797243 -0.00126543
C 1.88086604 4.27231096 13.72771569 -0.00103028 -0.00209343 -0.00773162
C 2.01609424 10.62639090 2.53873638 -0.01406230 -0.00010504 -0.00214613
C 6.29877937 8.40182425 10.35875785 -0.00524602 -0.00118546 0.00616955
C 1.98459305 10.63724706 10.63571477 -0.00090499 0.00601174 -0.00787297
C 6.47765526 8.68339326 2.29266770 0.01020627 -0.00263245 -0.00683473
C 6.14409835 2.32475896 13.64395678 0.00687182 -0.00523752 0.00001344
C 2.18037989 4.19668680 5.32748812 -0.00499225 0.00551973 -0.00142300
C 5.99809183 2.48448598 4.25917277 -0.00059551 -0.00560450 -0.00277426
C 2.08832304 3.74726469 12.45095628 0.00179595 0.00417076 -0.00119430
C 1.66749742 10.19721453 3.83722116 -0.00334697 -0.00598860 0.00016535
C 6.49822017 9.03472332 11.63913659 0.00401270 0.00115941 0.00768279
C 2.32415463 10.20379504 11.93642659 -0.00202325 0.00048252 -0.00048673
C 6.39229120 9.20361437 3.57448252 0.00133068 0.00434612 -0.00319411
C 6.46141817 2.77282490 12.41954304 0.00147452 0.00922232 -0.00734623
C 2.03654950 3.61827331 3.99979582 -0.00340428 0.00588791 0.00215191
C 6.45772739 1.89459442 3.11565630 -0.00087056 -0.00100439 0.00552009
C 1.77114885 4.40863327 11.25752891 0.00807145 0.00296085 0.00598881
C 2.15982060 10.86332978 4.95505951 0.00044699 -0.00630016 -0.00965809
C 5.95838359 8.45281274 12.77080872 -0.00437597 0.00037621 0.00433716
C 2.22011238 10.98225620 13.09519968 0.00475110 0.00886568 0.00397455
C 6.82581947 8.52805496 4.67917036 -0.00437970 0.00681331 -0.00015152
C 6.12216490 2.07831458 11.29554870 -0.00219044 0.00216179 -0.00372157
C 2.46203344 4.35439988 2.96879192 0.00139310 -0.00302366 -0.00091296
C 7.17941429 0.63704926 3.21166770 -0.00442188 0.00393078 -0.00290339
C 1.15105092 5.69621040 11.39466628 0.00483426 -0.00026227 -0.00468371
C 2.90717453 11.99671989 4.79742949 -0.00126639 0.00264516 -0.00920864
C 5.35263241 7.12400618 12.74498957 0.00070029 0.00495924 -0.00119410
C 1.42112458 12.15540223 12.96922353 0.00315628 -0.00277646 -0.00323617
C 7.32864767 7.20027988 4.45172736 -0.00106704 -0.00234250 -0.00164693
C 5.45335781 0.87841997 11.42083197 -0.00387230 -0.01039962 -0.00334515
C 2.98844144 5.67106100 3.06367509 -0.00154008 -0.00266112 0.00171767
C 7.01687658 0.00936370 0.88283061 -0.00722346 0.00068758 -0.00027085
C 1.34946245 6.21052121 8.98076448 0.00047368 -0.00137802 -0.00320905
C 2.79458620 12.86145425 7.03763756 -0.00124921 -0.00078170 0.00645577
C 5.53255529 6.55505695 15.07305086 -0.00048214 0.00229645 0.00006637
C 1.69060123 12.83910041 15.30699397 -0.00114351 0.00168919 0.00336933
C 7.17467853 6.51741289 6.84339043 0.00230935 0.01266115 0.00045618
C 5.62975201 0.06396554 9.12973324 0.00521155 0.00761574 -0.00089645
C 2.45402877 6.33480346 0.70044701 -0.00020224 0.00175933 -0.00493212
C 7.06729912 11.75186615 16.90869864 0.00232439 0.00488294 -0.00638652
C 1.53654043 7.48570018 8.12552302 -0.00337090 0.00667595 -0.00199314
C 2.83577701 1.03926696 7.47524408 -0.00295924 0.00105275 -0.00054040
C 5.60611391 5.31065425 32.84901643 -0.00049726 0.00030940 -0.00361017
C 1.41395485 0.89878403 32.59092072 -0.00913303 -0.00260906 -0.00290996
C 7.26535028 5.29662435 7.81106906 -0.00406627 -0.00112396 0.00150594
C 5.51803444 11.79169549 8.58733037 -0.00607822 -0.00144746 -0.00038161
C 3.07424737 7.36292489 16.61897281 0.00399688 0.00184583 -0.00566396
C 7.66480504 0.29672718 20.82467477 -0.00599615 -0.00236848 0.00602343
C 1.30544396 6.20487169 29.11495556 -0.00293830 0.00128114 -0.00075192
C 3.42795888 12.40436774 20.12220984 -0.00297218 -0.00617520 0.00655448
C 5.36813130 6.52611263 28.27473454 0.00265019 0.01061665 -0.00000362
C 0.95169411 12.26413761 28.51421318 -0.00580379 0.00323998 0.00497368
C 7.71713965 6.60001417 20.00025118 0.00126694 -0.00061057 -0.00185350
C 5.07816002 0.43060769 29.15759966 0.00532157 -0.00223228 -0.00096789
C 3.35851705 5.62702095 21.02827195 0.00306798 0.00074971 0.00180096
C 7.32242662 0.98509046 21.94801353 0.00349881 -0.00131561 0.00436480
C 1.54140608 5.51115016 30.25926755 -0.00184995 0.00037892 -0.00110349
C 3.35914750 11.60609764 18.96378844 -0.00131697 -0.00198727 -0.00354081
C 5.65594894 7.28676222 27.10575444 0.00340526 -0.00064533 -0.00019938
C 1.32888136 11.69450881 27.30678307 -0.00502762 -0.00334202 0.00080985
C 7.31223735 7.26560904 18.83307965 -0.00137789 -0.00519897 -0.00056022
C 5.48619396 1.01526036 30.33758978 0.00056096 0.00171737 0.00445756
C 2.92884201 4.96278172 22.07797964 0.00234233 0.00383625 0.00056923
C 6.58745724 2.15277278 21.97724163 0.00653981 -0.00495361 -0.00674306
C 2.18561444 4.25606986 30.27192040 -0.00126764 0.00336002 -0.00184267
C 2.54018143 10.50240682 18.86660608 0.00419908 -0.00997468 0.00174385
C 6.29787781 8.50664693 27.18777224 -0.00486472 0.00024646 0.00382080
C 2.09238396 10.59304883 27.29823814 0.00394365 -0.00036538 0.00351172
C 6.52531907 8.38098346 18.84309013 -0.00215939 0.00139806 0.00064472
C 6.53019730 1.99150325 30.37097679 0.00042418 -0.00256404 0.00156713
C 1.92402248 3.97357917 21.88835616 0.00549532 0.00184298 0.00056743
C 6.17544530 2.68604265 20.72020216 0.00168482 -0.00121231 -0.00813790
C 2.36084324 3.69157265 28.95572169 -0.01242215 -0.00481827 0.00333402
C 2.15649555 9.93978984 20.11849309 -0.00255074 -0.00945965 -0.00116925
C 6.57156538 8.97303994 28.47093132 -0.00241644 -0.00325775 -0.00020316
C 2.62895015 10.21372571 28.64165633 0.00635746 0.00751365 0.00703565
C 6.24347115 9.02411742 20.09922147 0.00343054 0.00258424 -0.00359280
C 6.80245536 2.57005633 29.11562709 0.00141076 0.00086844 -0.00264005
C 1.67518676 3.42736459 20.60927308 -0.00169121 0.00433195 0.00562444
C 6.36025861 1.91048368 19.58643423 -0.00029186 0.00092998 -0.00153489
C 2.16562553 4.43155670 27.82221521 -0.00339629 0.00305754 0.00798612
C 2.47441431 10.55725615 21.32093500 0.00054858 0.00655521 -0.00512318
C 6.31263652 8.25703466 29.61446072 0.00676816 -0.00141342 -0.00833405
C 2.33644266 10.83042017 29.81499248 0.00436733 -0.00520632 0.00299884
C 6.62581482 8.37644461 21.27059458 -0.00547413 0.00314117 0.01254656
C 6.41083405 1.95994598 27.93068359 -0.00123596 0.00370965 0.00258121
C 2.20646376 4.09579754 19.54725986 0.00193209 -0.00291379 -0.00446375
C 7.05013857 0.65787925 19.63548001 0.00177866 0.00582528 -0.00427592
C 1.57927623 5.72921120 27.81571162 0.00159185 -0.00577688 0.00700857
C 2.94521754 11.84403891 21.29575022 -0.00073787 0.00087187 0.00161572
C 5.71564890 6.93822365 29.53502545 0.00194337 -0.00294525 -0.00214775
C 1.46662071 11.97719457 29.73419499 0.00464776 -0.00108312 -0.01006695
C 7.30970148 7.13345727 21.24091892 -0.00196833 0.00350346 0.00079121
C 5.68523842 0.72626634 27.90952754 0.00001138 0.00159324 0.00448880
C 2.95688005 5.27390832 19.74896239 -0.00895846 -0.00187880 -0.00255547
C 6.83885193 0.08800056 17.18810180 0.00518766 0.00338129 0.00016940
C 1.84642730 6.14176769 25.46030026 -0.00633222 0.00348214 -0.00727832
C 2.70868686 12.25305963 23.72473235 -0.00087827 0.00232156 -0.00619753
C 5.76163600 6.51226888 31.88296515 -0.00707003 -0.00539069 0.00008814
C 1.56531453 12.78301069 32.04957533 -0.00299981 0.00007690 -0.00656849
C 7.03731083 6.63387288 23.65553877 0.00514045 -0.00655101 0.00881527
C 5.94873727 0.15377406 25.59203909 -0.00388245 0.00013229 0.00242801
C 2.80210354 6.17729400 17.51201729 -0.00341985 0.00108514 -0.00275106
C 7.26454845 11.98539718 0.35941969 0.00175043 0.00415341 -0.00198471
C 1.91639089 7.29596927 24.46006059 -0.00208308 -0.00866503 -0.00071343
C 2.93639744 1.14439910 24.45620800 -0.00362138 -0.00423386 0.00637831
C 5.54307192 5.26201962 15.87252855 0.00093969 0.00329364 -0.00248874
C 0.79666474 1.10329891 15.86658985 -0.00177899 0.00705518 0.00155801
C 7.23396502 5.49544591 24.57384552 0.00320804 0.00840526 -0.00242600
C 5.48965349 11.65835107 25.16006807 0.00262550 0.00314920 -0.00037053