1920
Time=42000.00000002 pbc="T T T" Lattice="25.57571444 0.00000000 0.00000000 0.00000000 25.47987851 0.00000000 0.00000000 0.00000000 32.99320091" energy=-12250.31799006 virial="-68.61440489 -28.25725959 4.60158648 -28.25725959 -110.40576756 -18.20222456 4.60158648 -18.20222456 -75.75686264" stress="-0.00102625 -0.00136694 0.00020993 -0.00136694 -0.00294755 -0.00082570 0.00020993 -0.00082570 -0.00140655" Properties=species:S:1:pos:R:3:vel:R:3
O 5.99926826 2.53221800 6.70004620 0.00592274 -0.00303602 0.00809554
O 2.54008513 3.75348913 15.48573556 -0.00402149 -0.00335244 0.00483070
O 1.68459398 10.19311764 1.02106476 -0.00439415 -0.00666634 -0.00433442
O 6.85620476 9.07701654 9.43211146 0.00808898 0.00683593 0.00228440
O 2.82218137 9.91409033 9.18290045 0.00240681 -0.00398098 -0.00212424
O 6.19256633 9.01311198 1.34429861 0.00043092 0.00284449 -0.00402358
O 6.94167176 3.07433151 14.76074498 0.00524916 -0.00861089 0.00035174
O 1.26999679 3.85320811 6.71939227 -0.00021730 0.00281242 -0.00155287
O 6.48844187 1.55420874 17.07056121 -0.00000011 -0.00325560 -0.00557683
O 1.85243791 4.83752219 9.19353277 0.00105490 -0.00830005 -0.00396338
O 2.09592693 11.36495391 7.23925818 -0.00305975 0.00173853 0.00494644
O 6.27024163 7.52249078 32.28784490 0.00057884 0.00019193 0.00072596
O 2.20396488 11.85782890 32.07779212 0.00217517 0.00520331 0.00032060
O 6.34655454 7.46798393 7.43276585 -0.00562908 -0.00016635 0.00281967
O 6.17907247 1.08757003 8.85914232 0.00245073 -0.00173801 -0.00052985
O 1.90118639 5.22553318 17.39944663 0.00279376 -0.00723013 0.00033696
O 5.99634930 2.55627140 23.68133208 -0.00275767 -0.00012441 0.00351501
O 2.88607197 3.29971259 31.61336242 -0.00263929 0.00497968 -0.00423423
O 1.46113341 10.28322948 17.67532253 -0.00274622 0.00091001 0.00500038
O 6.82722666 9.06726011 26.06825755 -0.00262545 -0.00258286 0.00217551
O 2.96263358 10.20476221 25.81859050 0.00125959 -0.00187610 -0.00246993
O 5.74562656 9.28625628 17.86522983 0.00488865 -0.00267526 -0.00078694
O 6.67294326 2.24764928 31.75515778 0.00406965 0.00170296 0.00291995
O 1.69476287 3.57239390 23.61378821 -0.00786641 -0.00483554 0.00074556
O 6.26788034 0.79512292 0.75650763 0.00836466 -0.00157460 -0.00692592
O 2.04493799 5.16123423 25.58820569 0.01152467 0.00475589 -0.00133044
O 2.35414142 11.48449166 23.82163122 -0.00288383 -0.00153146 0.00389708
O 6.10688849 7.76244030 15.73029697 -0.00194446 0.00360227 0.00096819
O 2.06325019 11.45974121 15.51017362 -0.00148073 -0.00158350 -0.00557813
O 6.48773298 7.48863401 23.95688324 -0.00439870 0.00737277 0.00096029
O 6.92021075 0.96913817 25.63406125 -0.00118680 0.00599232 0.00610905
O 2.49595980 5.08666605 0.64642842 -0.00297693 0.00837117 -0.00180802
O 5.83860093 15.22014096 6.61022356 -0.00194795 -0.00210233 0.00245195
O 2.58063291 16.34932023 15.29847737 0.00310605 0.00002176 -0.00169365
O 1.52697037 22.65033308 1.55251951 0.00289574 -0.00098153 0.00119986
O 6.63326732 21.82998732 9.80018752 -0.00177018 0.00363518 -0.00342362
O 2.52984732 22.76828956 9.76096595 0.00289681 -0.00488221 0.00053892
O 5.39901852 21.48073701 1.50034969 0.00577442 -0.00509581 0.00161349
O 6.40011089 15.61627934 15.09231952 0.00630931 0.00889647 0.00976429
O 1.62669505 16.14421329 6.99142985 0.00708135 0.00080689 -0.00116611
O 6.74238858 13.89260093 17.03199302 0.00004334 0.00027826 0.00193300
O 1.72599060 17.89455037 8.95321317 0.00281290 0.00602218 -0.00114612
O 2.45495261 24.38492384 7.69818045 0.00120760 0.00873863 0.00047746
O 6.62146650 20.24321742 32.46978688 0.00323921 -0.00017785 0.00033950
O 2.00224926 23.94186974 32.33887452 0.00108618 0.00016497 0.00166769
O 6.49032757 20.32022286 7.68197795 0.00303257 0.00475929 -0.00367146
O 6.16846998 13.91280483 8.98272380 0.00252966 0.00208216 -0.00445689
O 1.76827659 17.91784878 17.18546743 -0.00333560 -0.00690208 0.00655310
O 5.93707102 15.68888830 23.04115214 0.00149212 -0.00335857 0.00096710
O 2.81664164 16.85909749 31.66486372 -0.00058471 -0.00114270 0.00028073
O 2.04753883 22.31929252 18.10714576 -0.00913517 0.00215679 -0.00059680
O 6.82895666 21.79736380 26.29778951 0.00650223 0.00258107 -0.00255711
O 2.95084421 22.92749005 26.17117716 -0.00133032 -0.00384934 -0.00750801
O 6.07523243 22.09664432 17.88317653 -0.00297454 -0.00104994 0.00471966
O 6.99501225 15.79025336 31.32127873 0.00144379 -0.00371371 0.00281917
O 1.67143244 16.51746935 23.44804903 -0.00322840 0.00019381 -0.01028116
O 6.70930730 14.08481928 0.45170748 0.00094778 0.00097118 0.00086944
O 2.10646392 18.05916763 25.52618019 0.00160200 0.00251643 0.00128516
O 1.93758398 24.35091105 24.15445016 0.00685991 -0.00289360 -0.00688970
O 6.03187052 20.50107863 15.86619850 0.00493536 0.00742398 0.00867378
O 2.05366906 24.20694512 16.19412072 0.00118233 0.00142311 0.00097118
O 6.48323788 20.47377385 24.05906155 0.00328186 0.00841198 -0.00502186
O 6.56598204 14.23809404 25.09466845 -0.00158579 -0.00275041 -0.00063447
O 2.04262665 17.87023274 0.86807915 -0.00072147 -0.00160473 -0.00038866
O 14.75295039 3.02110075 7.12378935 0.00187628 0.00328794 -0.00877697
O 11.35332693 3.93966923 14.97104872 -0.00526520 0.00921164 -0.00602426
O 10.13852213 10.17190740 1.40023552 -0.00269930 -0.00322454 0.00386416
O 15.63307041 9.27126414 9.50780640 0.00222529 0.00544279 0.00176371
O 10.91154205 10.29217694 9.50368052 0.00437784 0.00550316 -0.00021263
O 14.75511373 9.20248429 1.43768749 0.00631729 -0.00129374 -0.00733669
O 14.97200791 2.53201680 15.40044477 -0.00204620 -0.00371453 -0.00745330
O 9.88077693 3.44304463 6.82933474 0.00329467 -0.00240557 -0.00034746
O 14.94468143 0.95732444 17.42213606 -0.00205582 -0.00047633 -0.00142222
O 10.44916105 5.09061355 8.93444947 -0.00023815 -0.00027587 0.00301958
O 10.46083880 11.59563146 7.35790666 -0.00314330 0.00133995 0.00085680
O 15.18574509 7.52583994 32.37611561 -0.00548134 -0.00310731 0.00030250
O 10.93408773 11.33607885 32.07491317 0.00378246 0.00457883 -0.00617977
O 14.77136734 7.87112735 7.63482872 0.00494366 -0.00094821 0.00284024
O 15.06648353 1.37461944 9.10885288 0.00709947 0.00221676 0.00129813
O 10.71403846 5.17066935 17.22048620 0.00638792 -0.00533483 -0.00006134
O 14.71018509 2.77677111 23.50980722 -0.00292419 -0.00315703 -0.00598250
O 11.48083440 3.95533802 31.81233534 0.00385297 -0.00473013 -0.00207346
O 9.71487214 10.21447239 17.93775360 -0.00228637 0.00326669 0.00352056
O 15.46774107 9.03080219 26.12896597 -0.00312833 -0.00084773 -0.00223893
O 11.73422458 9.96365759 25.94994206 -0.00076801 -0.00307328 -0.00362861
O 14.47299143 8.93862508 17.81487532 -0.00306366 0.00570817 -0.00649506
O 15.43745704 2.88501330 31.61776256 -0.00039904 -0.00033452 -0.00841665
O 9.92902285 4.18008162 23.35275359 0.00580728 0.00622507 -0.00274040
O 15.08524785 1.49461898 0.83013636 0.00110990 0.00399176 -0.00175834
O 10.59842255 5.06125690 25.71491675 -0.00757795 0.00200448 0.00005981
O 10.83756619 11.47597249 24.07363756 -0.00469043 -0.00346949 0.00136142
O 14.91419707 7.54747808 15.49620172 0.00430412 0.00137620 -0.00016966
O 10.23083956 11.37765531 15.75481223 -0.00173122 -0.00449850 0.00581934
O 14.52978565 7.62630286 24.13683901 -0.00205611 0.00147145 -0.00265620
O 14.88937456 1.00403815 25.45750606 -0.00079168 -0.00416276 -0.00365306
O 10.79639135 5.21188753 1.04075722 -0.00454746 0.00556452 -0.00538270
O 13.92727258 15.08575790 6.62800044 0.00102957 -0.00069785 -0.00450046
O 10.82289427 16.33535941 15.45663316 -0.00215166 0.00500799 0.00291937
O 10.20981435 22.66729735 1.01507526 0.00067035 0.00770012 0.00016909
O 15.48091435 21.52456357 9.44213391 0.00051075 -0.00313334 0.00983205
O 11.27461617 22.78965201 9.38240133 -0.00891060 -0.00032533 0.00100631
O 14.19395413 21.69336601 1.33011100 -0.00406221 0.00005879 0.00337047
O 15.27670014 15.52723304 15.13622128 -0.00289087 0.00118680 -0.00501493
O 9.83840379 16.82273739 7.22246624 -0.00391440 -0.00161289 -0.00285536
O 14.66488099 14.01293737 17.02595628 0.00095419 -0.00346147 -0.00098387
O 10.82167926 18.03116233 9.35005765 0.00114557 0.00274658 -0.00281500
O 10.81316438 24.27434786 7.19982912 -0.00033601 -0.00097081 0.00061347
O 14.97960911 20.32675859 32.32157279 -0.00069029 -0.00058768 0.00644574
O 10.44726036 24.32226582 32.00288629 0.00007505 0.00356385 0.00020805
O 14.86216112 20.14402534 7.35102414 -0.00117261 0.00191808 0.00379180
O 14.47968208 13.99823630 9.10599657 -0.00133132 0.00212457 0.00617655
O 10.20191238 17.97725297 17.45346446 0.00763294 0.00078977 0.00047286
O 14.58667899 15.54896770 23.20458656 -0.00213243 0.00279120 -0.00460237
O 11.46893532 16.20075743 31.89603295 0.00204218 0.00262829 -0.00381514
O 10.08388823 22.93552656 17.52884346 0.00070347 0.00469548 0.00328687
O 15.56394861 21.61562587 26.11985305 -0.00705025 -0.00246892 -0.00009440
O 11.46625723 22.69155446 26.00924063 0.00133372 0.00379936 0.00012490
O 13.90562310 21.68931100 17.61348872 -0.00208449 0.00272375 -0.00054993
O 15.18171299 15.54115835 31.51255211 0.00006000 -0.00766602 0.00351490
O 9.73139165 16.62865048 23.50672310 0.00617826 -0.00611484 -0.00143796
O 15.29255753 13.92944476 0.54636534 0.00082986 -0.00216291 0.00084756
O 10.60166726 17.92772400 25.83641943 0.00408588 0.00048783 -0.00493194
O 10.93092189 24.11298801 23.85299649 -0.00061047 -0.00169119 0.00463724
O 14.98723930 20.24490260 15.57983773 -0.00261991 -0.00107182 0.00026988
O 10.69344289 24.35385023 15.52446574 0.00380892 -0.00349656 -0.00003964
O 14.82239800 20.49551006 23.95945549 -0.00114630 -0.00498226 -0.00113690
O 15.20891223 13.84345236 25.20303685 0.00903872 -0.00383391 -0.00088660
O 10.92226221 17.71406571 1.06693096 -0.00342388 -0.00050788 -0.00272485
O 22.56482413 2.78829427 7.08056877 -0.00141422 0.00049293 -0.00298922
O 19.47324118 3.42236885 15.55046452 0.00063774 -0.00176706 -0.00245889
O 18.71063889 10.31544459 0.88620605 0.00006216 0.00138981 0.00500744
O 23.80554579 9.10940397 9.66019270 0.00026994 -0.00109167 -0.00714548
O 19.74202864 10.02805243 9.31086386 0.00345779 -0.00094069 0.00210263
O 22.96932816 9.22899590 1.48217436 -0.00214953 0.00119430 -0.00054446
O 24.26579682 2.55277078 15.45598390 -0.00605184 0.00086224 0.00373465
O 18.65795084 3.77872444 7.10052022 -0.00195787 -0.00028646 -0.00228162
O 23.67329458 0.99410201 17.45877833 -0.00132065 -0.00564628 0.00326395
O 18.92433087 5.13175374 9.34850053 -0.00409840 0.00477473 0.00041393
O 19.24223398 11.41524846 7.17154650 0.00532030 0.00363568 0.00121208
O 23.46619624 7.58898761 32.47263814 -0.00102882 0.00313932 0.00018475
O 19.39075106 11.59772011 31.77368692 0.00107040 -0.00052646 -0.00439526
O 23.20236880 7.67527259 7.44548209 0.00181943 0.00547584 -0.00344088
O 23.13931897 1.25228771 9.27149372 -0.00123441 -0.00350864 -0.00308154
O 19.13998331 4.96264829 17.59426731 0.00225192 0.00520720 0.00312791
O 23.48877631 2.82539360 23.65935155 -0.00001359 -0.00368945 -0.00300322
O 19.66838779 3.62789756 32.00491567 0.00331885 0.00988061 0.00957757
O 18.44878715 10.13976063 17.60622553 -0.00388409 0.00130082 0.00460388
O 24.28907695 8.95555351 26.35648911 0.00610073 0.00240881 -0.00122796
O 20.29362842 10.02203094 25.85326617 0.00755827 -0.00583846 -0.00388547
O 22.93033863 9.08100584 18.00968302 -0.00326247 0.00217144 -0.00009785
O 23.87862613 2.71700281 31.73857302 0.00215687 0.00516332 0.00996050
O 18.59346193 3.97028005 23.83099048 0.00144565 0.00374177 0.00008362
O 23.63742393 1.23305437 0.90250627 -0.00279437 0.00557096 0.00696388
O 19.47099285 5.38650380 25.86355251 0.00269498 -0.00593799 0.00397716
O 19.81777362 11.26678396 23.78848508 0.00182066 0.00279082 0.00702102
O 23.60540038 7.58201491 16.02384684 -0.00623826 0.00352517 0.00633720
O 18.55131805 11.57854809 15.36879306 0.00060200 -0.00365492 0.00021115
O 23.59826888 7.73801584 24.31729390 -0.00026003 0.00320747 -0.00264832
O 23.11615309 1.06541657 25.58598950 0.00310327 -0.00159753 -0.00402557
O 19.12934797 5.08483623 1.02685428 0.00910007 0.00401188 0.00231831
O 23.04903557 15.48066155 6.66336537 0.00219027 -0.00593131 0.00581145
O 19.77151591 16.41164950 15.12061669 -0.00045823 -0.00119144 -0.00299226
O 18.81775973 22.75589776 1.37319021 -0.00424474 -0.00302054 0.00389763
O 24.15145906 21.87108534 9.86284916 0.00094305 0.00095717 -0.00674533
O 19.20411654 22.83733565 9.58635546 -0.00168097 0.00507181 0.00295216
O 22.91127944 21.51655364 1.35431978 -0.00484873 0.00780676 -0.00423668
O 23.49266855 15.69337119 14.87333688 -0.00495280 -0.00502218 -0.00054859
O 18.49353556 16.36088580 6.82800699 0.00167399 0.00139060 0.00102910
O 23.50522877 13.96716927 16.95980854 -0.00226680 0.00498611 -0.00012775
O 19.18845560 17.91247331 8.93459197 -0.00292543 0.00297744 0.00778049
O 19.11705913 24.50987276 7.51265473 -0.00339016 -0.00677057 -0.00047208
O 23.63988091 20.07935684 32.28069759 -0.00076593 -0.00295378 -0.00277999
O 19.17721530 24.38729469 32.21860881 0.00318766 -0.00232698 -0.00398524
O 23.58449904 20.61390155 7.75540455 0.00408476 0.00270703 0.00751034
O 23.34489290 14.05932262 8.72242943 -0.00049670 0.00038768 -0.00327309
O 19.14668642 17.87420775 17.12990936 0.00089928 -0.00301002 -0.00070352
O 22.80428370 15.57875672 23.09850354 -0.00010552 -0.00233533 0.00231555
O 20.14652719 16.36196728 31.45069023 -0.01202474 -0.00439861 0.00329924
O 18.22038141 22.43431112 17.96347478 -0.00223654 0.00066975 -0.00189649
O 23.62822794 22.04247825 26.10230338 -0.00168325 0.00207740 0.00252773
O 19.28850937 22.99080325 26.06240555 -0.00009041 -0.00170261 -0.00334045
O 22.78065675 21.62960180 18.05649611 0.00015525 -0.00257338 -0.00440515
O 24.34335608 15.34769472 31.34194630 -0.00167992 -0.00137737 0.00670630
O 18.52895028 16.32273921 23.22706777 -0.00449199 0.00338514 0.00339816
O 23.54354715 14.06235557 0.57675111 0.00892596 -0.00600642 -0.00178894
O 18.89853487 17.84320053 25.47606536 0.00394419 0.00794693 -0.00188923
O 19.20269949 24.38715974 23.91770016 0.00347306 -0.00140176 -0.00032629
O 23.45999623 20.52556313 15.85439999 -0.00355587 -0.00044601 0.00467977
O 18.68248755 24.13784461 15.78355167 -0.00821171 -0.00227010 -0.00415494
O 23.33688620 20.33057277 24.19999085 0.00411127 0.00091423 0.00027924
O 23.07951111 13.99755771 25.09051529 -0.00113343 -0.00405033 -0.00414944
O 19.41995480 17.66884268 0.73750323 0.00111264 0.00369413 -0.00339705
N 7.90286756 12.95584994 1.94815407 -0.00203934 -0.00004865 -0.00164493
N 0.87646110 6.26141518 10.80817510 -0.00411267 -0.00431879 -0.00547430
N 3.20625617 0.04571329 5.93079625 0.00262099 0.00234124 0.00326816
N 5.39047048 6.33542791 14.09100301 0.00410617 -0.00553190 -0.00132019
N 0.87485173 25.22501832 14.40736392 -0.00469904 -0.00692223 0.00028442
N 7.45707325 6.19681069 5.88901267 0.01035050 0.00436286 -0.00446707
N 5.31892713 12.49941796 10.52022433 -0.00255540 0.00205209 0.00701554
N 3.78640652 6.08425874 2.24486928 -0.00038793 -0.00773030 -0.00106207
N 7.41002522 12.50614914 18.71958068 0.00720154 -0.00353025 -0.00885948
N 1.27012914 6.33590481 27.43068352 0.00029734 -0.00104744 -0.00323121
N 3.24621259 25.45392261 22.56303732 -0.00124753 0.00020908 -0.00107945
N 5.10945201 6.52846189 30.60050597 -0.00104010 0.00474231 -0.00109769
N 1.07883902 25.38887770 30.79084555 0.00069373 0.00669683 -0.00084037
N 7.63233210 6.39481835 22.27588733 -0.00234122 -0.00066413 0.00276516
N 5.56625023 12.91460760 26.64925645 -0.00451431 0.00304510 0.00095269
N 2.99413168 6.43276415 19.04591738 0.00217001 -0.00414648 -0.00091851
N 7.55910781 25.11063274 2.19940581 0.00270966 -0.00449915 -0.00002447
N 1.13560351 19.19213857 10.73207427 0.00136701 -0.00009032 -0.00202678
N 3.44386089 12.44369721 5.79629154 0.00214108 0.00104729 -0.00411679
N 5.24042428 18.98342155 14.36004175 -0.00445309 0.00179150 -0.00047616
N 1.05961838 12.49490510 13.71232465 -0.00239586 -0.00352546 0.00709259
N 7.62188348 19.24134846 5.98647574 -0.00357763 -0.00475176 0.00077601
N 5.47722719 25.25475154 10.59853917 -0.00308717 0.00342929 -0.01069803
N 3.30434989 19.02002010 2.40315857 -0.00783560 -0.00350369 -0.00134357
N 7.49821078 0.36835637 18.77015755 -0.00022228 0.00021768 -0.00155575
N 1.16620914 19.40736155 27.15698822 -0.00037073 0.00109710 -0.00555393
N 3.20812802 12.83015196 22.16941188 -0.00284266 0.00085074 0.00508596
N 5.43827844 19.07289462 30.89305396 -0.00039205 -0.00343012 -0.00466392
N 1.11212380 12.91685699 30.39343310 -0.00682651 -0.00243741 0.00043658
N 7.38211772 19.18318138 22.38298928 0.00662862 0.00302976 -0.00650161
N 5.27183989 25.39476583 26.83722854 0.00418015 0.00421687 -0.00155345
N 3.08198846 18.94726314 18.79808180 -0.00009896 -0.00214072 0.00099083
N 16.20614866 12.65764621 2.27363293 0.00484137 0.00104199 0.00059449
N 9.30145672 6.45946619 10.42642657 0.00093500 -0.00041125 0.00787678
N 12.10134985 25.23754894 5.56817510 -0.00369793 -0.00238019 -0.00888297
N 13.50635206 6.62857504 13.92261236 -0.00471833 -0.00411720 -0.00444766
N 9.55105743 0.04193664 13.80659524 -0.00541936 0.00009654 -0.00951871
N 16.21234756 6.65401253 6.18225137 -0.00084591 -0.00356031 0.00944541
N 13.00421898 13.25848991 10.65702026 -0.00127080 0.00282859 -0.00330342
N 12.05665018 6.32208525 2.73488807 0.00244225 -0.00491203 -0.00565112
N 16.03864559 12.84563592 18.51392581 0.00173093 0.00179813 0.00650234
N 9.13553042 6.00377852 27.26362935 0.00374581 0.00116704 -0.00118385
N 11.58722357 0.12182821 22.12739446 -0.00061472 0.00043573 0.00135336
N 13.89228085 6.45084360 30.79133679 -0.00199141 -0.00434332 0.00087052
N 9.45598603 25.46058300 30.29949683 0.00520699 0.00244496 0.00037199
N 16.03595012 6.74156167 22.64107267 0.00660048 0.00402284 0.00210124
N 14.12669341 12.69235895 26.85770623 0.00063471 0.00160968 -0.00129336
N 11.87775360 6.30028083 18.77396862 -0.00331452 0.00015137 -0.00225399
N 15.69984912 0.05312240 2.48759615 -0.00546139 0.00667236 -0.00053002
N 9.34804587 18.97866944 10.81244918 0.00167049 -0.00217719 -0.00923943
N 11.98380764 12.64875055 5.99852747 0.00209606 0.00121880 0.00544669
N 13.63746972 19.12585086 14.05939234 -0.00448354 -0.00465188 -0.00370310
N 9.44638878 12.80826273 14.10233455 -0.00108849 0.00149985 -0.00126050
N 16.09268541 19.10102542 5.82042691 0.00023691 -0.00440359 0.00361434
N 13.77882216 0.16526150 10.54208745 -0.00307253 -0.00201250 0.00091214
N 12.19074915 18.83376887 2.59817299 0.00318626 0.00221826 0.00218517
N 15.72257030 25.12800219 19.11429654 0.00253351 -0.00398530 -0.00648285
N 9.68790942 19.19911267 27.54402224 0.00054193 0.00124657 0.00460689
N 11.95784391 12.60700646 22.45289608 -0.00155696 -0.00783039 -0.00161530
N 13.99697963 18.98671282 30.80913873 -0.00535592 0.00244093 0.00171659
N 9.78077758 12.47615233 30.47653918 0.00539652 -0.00035918 -0.00164990
N 15.96745646 19.47578029 22.28034307 -0.00247964 -0.00071237 0.00374914
N 13.80235367 25.41921809 27.13374938 -0.00929126 -0.00057222 -0.00350271
N 11.43451533 19.18727260 18.97483928 -0.00254271 -0.00578514 -0.01074723
N 24.79942381 12.90593100 2.11551589 -0.00283467 -0.00081041 -0.00289285
N 17.86191722 6.23624543 11.08613002 0.00095408 -0.00686796 0.00248279
N 20.38762370 0.06809966 5.91228503 0.00168044 -0.00410831 -0.00010616
N 22.28320521 6.67298349 14.33720795 -0.00234723 0.00047400 -0.00086789
N 17.79851069 0.09485214 14.21577965 -0.00185552 -0.00250431 0.00081033
N 24.64833553 6.60714280 5.96848959 0.00297476 -0.00512006 0.00302900
N 22.48876096 12.64993805 10.32227063 -0.00297234 0.00266556 -0.00331859
N 20.57977706 6.11719115 2.44379686 -0.00312073 0.00113106 -0.00126492
N 24.42124874 12.74893062 18.68964855 0.00234220 0.00235072 0.00031360
N 17.97107155 6.23606235 27.39489805 0.00108711 0.00308774 0.00300876
N 20.45855024 25.12491179 22.05328174 0.00259204 -0.00973576 -0.00120360
N 22.52649437 6.30105776 30.86721095 -0.00121872 0.00174075 0.00225319
N 18.41897404 0.48019729 30.72013356 0.00542619 -0.00290911 -0.00025979
N 24.71974724 6.50215177 22.68272975 0.00231001 0.00059289 -0.00652184
N 22.58749639 12.67680503 26.89770012 -0.00698626 -0.00245643 -0.00528699
N 20.38394646 6.22095097 19.06363367 -0.00053925 -0.00831877 0.00143469
N 24.40136877 25.46192479 2.70578202 0.00118314 0.00105453 -0.00493964
N 17.94317982 18.91556853 10.58756807 -0.00422853 0.00198555 -0.00305528
N 20.39932121 12.67487876 5.61246578 0.00255410 0.00065830 -0.00932956
N 22.32640279 19.21742388 14.26059892 -0.00314077 -0.00102062 0.00280087
N 17.84439383 12.87165077 13.66747048 -0.00551594 -0.00003236 -0.00007961
N 24.57519843 19.27117944 6.13148712 -0.00667080 0.00327474 -0.00525959
N 22.42434459 25.37378838 11.01190154 -0.00649932 0.00696966 -0.00214527
N 20.29052411 19.05432067 2.38361899 0.00108035 -0.00324577 0.00243787
N 24.36877624 25.14787235 19.16221546 -0.01061585 0.00111334 -0.00502599
N 18.04879120 19.02501893 27.18731392 0.00211899 -0.00290662 -0.00468250
N 20.52720584 12.63178900 22.08213015 0.00020941 -0.00643361 0.00292036
N 22.24383995 19.23504381 30.67059324 -0.00189863 0.00360535 -0.00084922
N 17.96612081 12.45271771 30.25169368 0.00017760 -0.00823337 -0.00312397
N 24.30186362 19.00194169 22.64874247 -0.00343444 0.00583043 -0.00376329
N 22.50708137 25.12174518 27.24749666 0.00129387 -0.00292548 -0.00668610
N 20.22788096 19.18683599 18.64109297 -0.00303469 0.00271416 0.00680851
C 7.61193432 25.47887403 4.59540813 -0.00625637 0.00096849 0.00046755
C 0.85578681 6.09681979 13.18988451 0.00509001 0.00065263 -0.00602676
C 3.57419821 12.16742385 3.44673925 -0.00843076 -0.00140254 -0.00565051
C 5.12679313 6.72284607 11.67374436 -0.00463491 0.00011284 0.00200233
C 1.11578551 12.21468273 11.33040983 -0.00427627 0.00140848 -0.00160588
C 7.65769275 6.55319649 3.54263125 -0.00152422 0.00902619 0.00159937
C 5.20206765 0.37968842 12.92174747 -0.00142186 -0.00404644 0.00205510
C 3.44983211 5.79323160 4.64828427 -0.00172921 0.00300953 0.00299786
C 7.42326570 0.82466143 5.67090553 -0.00736979 0.00110481 -0.00633086
C 1.18596079 5.44836320 14.38222880 -0.00561975 0.00670869 -0.00046440
C 3.14582851 11.72514003 2.19735420 0.00126985 -0.00265976 -0.00211149
C 5.44203520 7.41023838 10.51809635 -0.00099329 0.00671077 -0.00711820
C 1.38450849 11.48668482 10.20750607 0.00302550 -0.00282474 0.00281745
C 7.42815891 7.32501031 2.43042289 0.00174852 -0.00861703 -0.00831792
C 5.54560167 1.27610441 13.89455867 -0.00527864 0.00182088 -0.00838864
C 2.92587867 5.23918306 5.78490616 -0.00052187 0.00001088 0.00513209
C 6.59736199 1.96112269 5.56241467 -0.00335161 -0.00340272 0.00269386
C 2.08069518 4.33564823 14.37672734 -0.00021700 -0.00621707 0.01053861
C 2.21503324 10.63210234 2.17988689 0.00007180 -0.00185395 0.00115365
C 6.37155901 8.47267857 10.55790483 0.00106212 -0.00076273 -0.00129872
C 2.18160724 10.32050876 10.28495588 0.00457912 -0.00119622 0.00266092
C 6.64608098 8.51731515 2.49315889 0.00510709 0.00514644 0.00377668
C 6.39662479 2.36285757 13.67101652 -0.00352411 -0.00079994 0.00182482
C 2.03168311 4.16608658 5.65370870 0.00373994 0.00318518 -0.00120081
C 6.34847472 2.48315643 4.28878656 0.00248757 0.00851543 0.00188309
C 2.40289551 3.77304740 13.09615018 -0.00731385 -0.00032725 -0.00108033
C 1.86140528 10.03855906 3.39313455 -0.01055087 -0.00144311 0.00090447
C 6.62639172 9.04987198 11.79976463 -0.00979509 -0.00366496 -0.00152680
C 2.29840668 9.71866490 11.53940477 0.00349467 0.00415517 0.00294626
C 6.31210194 9.07319580 3.71899193 0.00212261 0.00261633 -0.00362763
C 6.77420280 2.78253459 12.42946093 0.00619012 0.00139183 -0.00528648
C 1.78884144 3.69413949 4.36311380 0.00012117 0.00343395 0.00441054
C 6.81111495 1.79603279 3.19688257 0.00054148 -0.00136861 -0.00005391
C 2.19083280 4.46968881 11.90705926 0.00160407 0.00098938 0.00348177
C 2.18429625 10.56613754 4.60736118 -0.00276144 -0.00065761 0.00116886
C 6.16698723 8.48860270 13.00241617 -0.00191077 0.01153799 0.00343321
C 1.83260100 10.36439470 12.65686323 -0.00711507 0.00467061 -0.00083346
C 6.67996672 8.34351650 4.86400484 -0.00091854 0.00008731 0.00135107
C 6.45235829 1.87255890 11.36976804 0.00655420 -0.00455962 0.00318469
C 2.46996958 4.17019098 3.21629289 0.00474087 -0.01565855 0.01124394
C 7.30752435 0.52701606 3.28437289 0.00186669 -0.00207668 0.00130824
C 1.35796192 5.61906976 11.97092137 -0.00060306 0.00310278 -0.00576945
C 3.01521014 11.78297096 4.66363822 -0.00623164 0.00618464 0.00645619
C 5.58410160 7.18119903 12.92354128 0.00491379 0.00070098 -0.00506635
C 1.26636604 11.66058381 12.61971476 -0.00581131 -0.00311257 -0.01038610
C 7.24390675 7.02822119 4.78256489 -0.00369757 0.00085080 0.00059143
C 5.76723173 0.62348604 11.61407950 -0.00129378 -0.00148478 0.00051029
C 3.17960276 5.35402943 3.35721712 -0.00253416 -0.00915358 -0.00437703
C 7.02655645 25.30130731 0.99577120 0.00693685 -0.00208876 -0.00105869
C 1.39950546 5.95752205 9.54693019 0.00195881 -0.00022863 -0.00142886
C 2.72465925 12.40371538 6.94805800 0.00265024 0.00199873 -0.00080603
C 5.79270470 6.61643264 15.38236274 -0.00427092 -0.00061236 -0.00013741
C 1.42488709 12.41089936 15.00492450 0.00294260 -0.00132162 0.00014953
C 6.87947761 6.42186278 7.10400427 0.00225456 0.00064129 0.00450822
C 5.73037446 0.06175101 9.26407502 -0.00526876 0.00297686 -0.00467867
C 3.11820092 6.08636487 1.01695962 0.00128453 0.00052711 -0.00811706
C 6.98551079 11.57745695 16.53269165 -0.00189472 -0.00315984 -0.00269027
C 1.23570160 7.01444852 8.49400802 -0.00031090 -0.00133059 0.00106300
C 2.80580021 1.15410411 8.10332101 -0.00351880 0.00172781 0.00041142
C 5.79254060 5.19516531 32.37063165 0.00812578 -0.00005591 -0.00112045
C 1.34086222 0.71037593 0.08576594 0.00178962 -0.00238575 0.00220360
C 6.88272202 5.22708204 8.14544853 0.00464828 0.00774059 -0.00253576
C 5.91524377 11.64579125 8.27976374 0.00125536 -0.00008048 0.00363594
C 2.98816325 7.34540084 16.83084907 -0.00250396 -0.00072013 -0.00071372
C 7.60713622 0.37365135 21.13435499 -0.01077783 0.00539702 0.00835193
C 1.19077703 5.78283107 29.73328772 0.00375902 0.00167000 -0.00027103
C 3.19281232 12.48573905 19.81388281 0.00182481 0.00396518 -0.00511533
C 5.24271345 6.66951206 28.21343520 -0.00564104 -0.00383416 0.00361182
C 1.08236767 12.29263961 28.03942618 0.00069839 -0.00869304 0.00477714
C 7.39626661 6.65613385 19.83460884 -0.00430275 -0.00413340 0.00452451
C 5.16671896 25.45043834 29.24173275 0.00136268 0.00159464 -0.00043981
C 3.36283665 5.99249986 21.40929110 0.00058137 -0.00688648 0.00307478
C 7.21104418 0.92149784 22.35117058 0.00158503 -0.00157262 0.00522418
C 1.61128279 5.02869245 30.78244449 0.00309237 -0.00120759 -0.00075199
C 2.89093173 11.75426834 18.72726534 -0.00162462 0.00969467 -0.00328315
C 5.69086298 7.37810283 27.11831497 -0.00162577 -0.00288052 -0.00714199
C 1.38433731 11.55570380 26.90488523 0.00019390 0.00933009 0.00243611
C 7.06797752 7.44895840 18.79248788 0.00000321 -0.00273254 0.00089584
C 5.55061079 0.53813556 30.46421518 0.00276963 0.00436267 -0.00250353
C 3.12302523 5.26589718 22.54062528 0.00297045 -0.00152854 0.00150179
C 6.35969034 2.01882148 22.42378176 0.00515372 0.00261036 0.00186553
C 2.41207722 3.89609381 30.52004230 0.00294477 -0.01177145 0.00318241
C 2.01548966 10.68552546 18.80376148 0.00417192 0.00192497 0.00125282
C 6.43651577 8.54148267 27.25078409 -0.00552164 0.00459945 -0.00178226
C 2.37122287 10.58689595 26.93365290 -0.00146302 -0.00125196 0.00456748
C 6.28140391 8.63603323 18.98432857 0.00015795 -0.00815753 0.00516503
C 6.28593847 1.78068110 30.52574511 -0.00157083 -0.00513375 0.00828441
C 2.20004338 4.17898350 22.53866970 0.00033645 -0.00459299 -0.00704638
C 5.93225343 2.60329695 21.21433998 -0.00696654 0.00265039 0.00139052
C 2.48551820 3.44001443 29.24854208 0.00114925 0.00150036 -0.00511932
C 1.61062592 10.20939720 20.09102590 -0.00576022 -0.00274560 -0.00494967
C 6.72236461 9.10276517 28.47083793 0.00185816 0.00243791 -0.00045854
C 2.66220567 10.10269473 28.28982238 0.00794874 -0.00189271 -0.00673441
C 6.01202795 9.06164856 20.32065586 0.00437749 -0.01055475 0.00120986
C 6.46821733 2.47392251 29.30962396 -0.00328838 0.00182394 -0.00367538
C 1.79157002 3.76899950 21.30010399 0.00169157 0.00106589 -0.00537269
C 6.25919309 2.07103918 19.98616126 -0.00451786 -0.00453003 -0.00262201
C 2.07390207 4.17310745 28.19228609 -0.00374092 -0.00342381 0.00372462
C 1.98281109 10.88111982 21.22782874 0.00471541 0.01308189 -0.00261155
C 6.13673601 8.50251719 29.56717160 0.01042803 0.00536827 0.00085906
C 2.26658727 10.81002981 29.41032189 0.00050772 0.00210319 0.00168282
C 6.54955762 8.30132523 21.37396920 0.00158908 -0.00892052 -0.00536707
C 6.13882498 1.86069820 28.07527221 0.00203542 0.00257847 0.00244877
C 2.02111497 4.44341440 20.09469256 0.00199055 -0.00481943 0.00371884
C 7.10972129 0.94888918 19.96750901 0.00652355 -0.00267274 -0.00570747
C 1.49554693 5.41709442 28.45765660 -0.00248957 -0.00296046 -0.00433817
C 2.84980785 12.06280359 21.08839395 -0.00590667 0.00252968 -0.00060204
C 5.49435570 7.22950563 29.49926263 0.00451580 0.00133828 0.00178525
C 1.45204039 11.94741605 29.32441158 0.00084998 0.00230398 0.00201982
C 7.18430172 7.09343811 21.14144460 0.00155928 -0.00364010 -0.00075935
C 5.48713531 0.61039739 28.01940700 0.00548118 -0.00281551 0.00175044
C 2.81957726 5.58996953 20.16782569 0.00301568 0.00025320 -0.00289586
C 6.91922590 0.52318868 17.53040704 0.00664552 -0.00196081 0.00008592
C 1.74551067 6.23395079 26.19060753 -0.00616950 -0.00495168 -0.00047772
C 2.79652000 12.61947654 23.44060585 0.00483105 0.00205200 0.00383916
C 5.74302593 6.50534723 31.79700586 0.00413404 -0.00403255 0.00705573
C 1.52014544 12.78933905 31.66560280 -0.00258458 0.00157989 -0.00015661
C 7.06246292 6.48130947 23.53456632 -0.00280208 0.00128936 -0.00215326
C 6.07610577 0.08813787 25.77566891 -0.00877035 -0.00707511 0.00316157
C 2.58025852 6.24085561 17.77037448 0.00630963 0.00062498 -0.00033479
C 7.23574551 11.79010302 32.91089825 0.00024445 0.00284735 -0.00188859
C 1.82104458 7.53402183 25.46261987 -0.00114353 -0.00373835 0.00101595
C 2.91248878 0.96563651 24.79036866 0.00095180 0.00200330 -0.00451665
C 5.84427444 5.39160749 16.30627464 0.00286477 -0.00803921 -0.00177375
C 1.69844735 1.02893421 16.40542868 -0.00216952 0.00110398 -0.00502001
C 7.42498548 5.37093565 24.45848288 -0.00489944 -0.00544398 -0.00025007
C 6.07324354 11.91734611 24.50396476 0.00374395 -0.00404115 -0.00202824