1920
Time=94000.00000000 pbc="T T T" Lattice="25.65950168 0.00000000 0.00000000 0.00000000 25.57625942 0.00000000 0.00000000 0.00000000 32.87478074" energy=-12253.81236660 virial="-43.08841249 -13.64393192 -3.70391117 -13.64393192 -29.06967910 -23.48343680 -3.70391117 -23.48343680 -14.38342161" stress="0.00012457 -0.00060671 -0.00012729 -0.00060671 0.00079273 -0.00106014 -0.00012729 -0.00106014 0.00145371" Properties=species:S:1:pos:R:3:vel:R:3
O 5.31748917 2.29993117 6.58975060 -0.00543710 0.00175073 -0.00454629
O 2.33352267 3.44899358 14.79854082 0.00163773 -0.00577233 -0.00579518
O 1.74289759 9.66545932 1.34010744 0.00386647 0.00539860 -0.00342610
O 6.92851262 9.08406019 9.24579518 -0.00242497 -0.00233537 0.00394983
O 3.14061276 10.02692670 9.70180528 -0.00178334 -0.00166313 -0.00470005
O 5.90793001 8.71132542 0.86899079 -0.00449028 0.00204316 -0.00328037
O 6.57365906 3.07344909 14.75688699 0.00200717 0.01099355 -0.00186163
O 1.62193142 3.73835362 6.42481412 0.00023613 0.00005043 -0.00092405
O 6.67616878 1.17408269 16.64223871 0.00540256 0.00415385 -0.00115762
O 1.90256625 5.15361882 8.55986492 -0.00231961 -0.00241051 -0.00364281
O 2.41180451 11.35781873 7.53675517 0.01202091 -0.00676111 -0.00076453
O 6.75585861 7.47209360 31.73968909 0.00037960 0.00219811 -0.00074781
O 2.23492538 11.52927758 32.30120287 0.00543938 -0.00053797 -0.00277491
O 6.44199673 7.69466480 7.09368167 -0.00040588 0.00826540 -0.00516411
O 6.08072694 0.94928908 8.79697205 -0.00306743 0.00029306 0.00088229
O 2.24567554 5.26279602 16.78297666 0.00355503 0.00193353 -0.00050369
O 6.21444793 2.74235744 22.90953015 -0.00197071 0.00187048 -0.00676879
O 2.63997449 3.44574818 31.01179164 0.00238823 0.00261411 -0.00802084
O 0.94678225 9.79595496 18.22679058 -0.00243462 0.00339160 -0.00147525
O 7.21480958 9.03220989 25.65394337 0.00325585 0.00116660 -0.00552211
O 2.74078196 10.11741116 25.98577760 -0.00098411 0.00350159 0.00234762
O 5.38847404 8.93147998 17.55584212 -0.00007394 0.00062920 0.00026081
O 7.30769693 2.57027272 31.15413521 -0.00244159 -0.00098995 0.00341875
O 1.77152222 3.72180369 22.97896558 -0.00276846 0.00491405 -0.00342007
O 6.62474011 1.21570939 0.51485897 0.00409047 0.00389611 0.00055331
O 2.31906036 5.35419307 25.09991793 -0.00124788 -0.00704055 -0.00019498
O 2.44090112 11.70327729 23.96713189 -0.00119534 0.00371114 -0.00514730
O 6.01840576 7.80265703 15.38676974 -0.00030233 0.00060719 0.00272148
O 1.23923272 10.97415895 15.90648590 0.00064483 -0.00584036 -0.00195286
O 6.52819416 7.65447727 23.63215915 0.00482016 0.00195900 -0.00281319
O 6.29876895 1.37696652 25.12600404 -0.00104916 -0.00090264 -0.00518004
O 2.82621768 4.82534739 0.23328192 0.00587984 0.00363692 -0.00271111
O 5.83608632 15.75826085 7.05592394 -0.00074764 0.00251507 0.00239121
O 3.08933567 16.46878688 15.48809220 0.00851857 -0.00432092 -0.00193208
O 1.51139279 22.72697527 0.99939648 0.00325644 -0.00613910 0.00320590
O 6.70460901 21.96154985 9.75257594 0.00496586 0.00253934 -0.00038439
O 2.68420543 22.74745621 9.50319446 0.00030051 0.00942677 0.00523087
O 5.84681122 22.19635953 1.60952504 0.00062371 -0.00022070 0.00371757
O 6.94703106 15.43281347 15.47778213 -0.00235080 -0.00260964 0.00127328
O 1.31239339 16.54765969 7.20508360 0.00026846 0.00465666 -0.00097324
O 6.31242156 13.77727387 17.25774287 -0.00030778 -0.00078858 -0.00526290
O 1.71713474 17.83114175 9.36067283 0.00002774 0.00318490 -0.00312465
O 1.98845832 24.07082865 7.25893872 -0.00109649 0.00146031 -0.00346937
O 6.55410804 20.79824665 32.40400407 -0.00586356 0.00289849 0.00426449
O 2.16737517 24.33538462 31.87352976 0.00025376 -0.00201056 -0.00195954
O 6.34960154 20.62165989 7.63397904 -0.00758381 -0.00696686 0.00385210
O 6.33761968 14.19260637 9.23730527 0.00504642 0.00138376 -0.00194073
O 2.45246809 17.91112136 17.52315843 -0.00044205 -0.00672232 0.00440395
O 5.72779673 15.65793119 23.26861224 0.00247919 0.00190788 -0.00255826
O 3.18407065 16.68978401 31.73472068 -0.00438206 0.00195176 0.00223588
O 1.57289728 22.71458227 17.74910934 0.00600370 0.00159548 -0.00200820
O 6.79952289 21.95032445 26.10519924 -0.00041581 -0.00154489 -0.00089925
O 2.79505799 23.02853465 25.69442851 0.00039714 -0.00051410 0.00189815
O 5.92005769 22.00468577 17.85866504 0.00330453 -0.00022417 -0.00510268
O 7.03692759 15.46131436 31.71307076 0.00175835 0.00155410 0.00646671
O 1.48612599 16.49504472 23.49732183 0.00601378 0.00489430 -0.00242587
O 6.63899800 14.00235142 0.84679390 -0.00087389 -0.00392974 0.00401389
O 1.97721484 18.01783280 25.54749785 -0.00140166 -0.00200620 0.00121271
O 1.89528083 24.39707944 23.70626187 -0.00111270 0.00694532 -0.00103576
O 6.19171283 20.50694677 15.88643455 0.00319468 0.00688557 -0.00152968
O 2.21410121 24.28196095 15.67263037 -0.00151825 0.00437434 -0.00427770
O 7.17305621 20.42524408 23.91320735 -0.00000161 -0.00413823 -0.00082248
O 6.18004157 14.11970370 25.33661708 -0.00171186 0.00665626 0.00195073
O 2.14602119 17.92248417 0.96853558 0.00284628 -0.00880451 -0.00870308
O 14.92170697 2.49906173 7.12462217 0.00134146 -0.00248392 0.00266101
O 11.14098874 3.79288375 14.97030416 -0.01029413 -0.00234846 0.00338947
O 10.57570970 10.00690009 1.69632246 0.00058632 0.00046685 0.00428765
O 15.67251579 8.79282455 9.46756349 -0.00366095 0.00129772 0.00040556
O 10.84726912 9.70055324 10.02925026 -0.00519838 0.00318932 0.00333869
O 14.75685159 9.39141067 1.09758481 -0.00422158 0.00156018 0.00083849
O 15.54837350 2.90636427 15.10244825 -0.00218740 -0.00004672 0.00088379
O 9.90261379 3.74434184 6.48417336 0.00126281 0.00967587 0.00374643
O 15.05720230 1.25861363 17.27783062 0.00134694 -0.00205392 -0.00323977
O 10.27568828 5.16642116 8.58891498 0.00099721 0.00367506 0.00527364
O 10.80961183 11.33362788 7.92008236 0.00396482 -0.00962844 -0.00618966
O 15.22794426 7.72062361 31.88269887 0.00595095 -0.00226798 0.00268057
O 10.19843720 11.32260427 32.36975249 -0.00011978 0.00099471 0.00450516
O 14.84124145 7.47559402 7.22848286 0.00358455 -0.00491712 0.00073062
O 15.15201707 0.82629396 9.09637728 0.00262444 0.00286655 0.00509056
O 10.63894170 5.11880528 17.06078115 0.00042833 0.00764766 0.00321530
O 14.07636560 2.64520191 23.32418545 0.00037198 -0.00054824 0.00213546
O 11.17642248 3.86965628 31.44510014 -0.00482759 -0.00340954 0.00564440
O 10.29524062 9.76986251 18.08950049 -0.00015809 -0.00057888 0.00024193
O 16.06744032 8.84696405 25.83478778 -0.00130883 0.00249826 0.00219983
O 11.06508087 9.83132624 26.08990977 0.00557213 0.00050305 0.00650754
O 13.95306371 9.28912561 17.68746870 -0.00365471 -0.00540513 -0.00025629
O 15.89758139 2.55087042 31.52380819 0.00476277 0.00146743 -0.00293225
O 10.13437873 3.63555235 23.11989395 0.00058869 0.00162646 0.00201902
O 15.24543604 1.38066853 0.80401304 -0.00271258 0.00088440 -0.00398513
O 10.58533156 5.00449857 25.19152276 -0.00126635 0.00407182 -0.00765829
O 11.53517190 11.56695086 24.19994766 0.00262074 0.00272032 0.00213674
O 14.53842488 7.76238240 15.59373578 -0.00418910 -0.00088031 -0.00113627
O 10.40760098 11.49682636 16.03481893 0.00561267 0.00154342 0.00388837
O 15.31248428 7.76939534 23.63076670 0.00340800 -0.01263129 -0.00554633
O 14.75001605 1.46494360 25.39851826 -0.00652883 0.00287063 -0.00082577
O 10.67588944 5.45422306 0.50363266 0.00212789 -0.00184215 -0.00491213
O 14.06171430 15.11913722 7.36024452 -0.00236622 0.00125347 0.00555136
O 11.14699008 16.21318337 15.29806113 -0.00619457 -0.00217088 0.00421725
O 10.26614566 23.10918134 0.94028856 0.00365097 -0.00121720 -0.00440467
O 15.41931533 21.88438211 9.87604078 0.00296854 -0.00266362 -0.00370248
O 11.27329200 22.69276496 9.56442299 0.00297281 0.00350551 0.00204384
O 14.09955066 22.09532793 1.84239937 0.00587600 0.00042253 0.00247163
O 15.38682928 15.47335486 15.36206184 -0.00630144 -0.00324861 0.00632029
O 10.03915165 16.29916703 6.89345523 0.00143975 -0.00705058 0.00543651
O 15.09786332 14.00163326 17.31902050 0.00080941 0.00600463 0.00161603
O 10.30661677 17.82767168 8.98611644 -0.00392696 -0.00741128 -0.00358650
O 10.59946090 24.16868143 7.27883833 0.00571974 -0.00176899 0.00303664
O 14.17765164 20.79325133 32.40123779 -0.00125458 0.00010353 -0.00237982
O 11.06592058 24.40609576 31.52607621 -0.00497762 -0.00603014 -0.00108291
O 14.80858832 20.15101815 7.87495804 -0.00428358 -0.00025439 0.00052401
O 15.01227545 13.96350772 9.35273139 0.00829631 0.00472476 0.00376902
O 10.85017739 17.78918611 17.38035627 0.00126020 0.00237207 -0.00337983
O 14.69337900 15.46271929 23.55500946 0.00462343 0.00491183 -0.00194927
O 11.16529759 16.00548380 31.42802193 0.00246464 -0.00766476 0.00362787
O 9.80482255 22.87071531 17.52158488 0.00173208 0.00395277 0.00135731
O 15.46823393 22.01795187 26.00977337 -0.00432265 -0.00336153 -0.00203009
O 11.45989983 23.17716708 25.47197308 -0.00215587 -0.00042980 -0.00752182
O 14.39667280 21.87407911 17.62490428 -0.00193912 0.00064579 -0.00523657
O 15.44736488 15.68817448 31.98722729 -0.00349399 0.00390877 0.00394888
O 10.50313146 16.56712715 23.55899685 -0.00194460 0.00310610 0.00203019
O 14.66710362 14.13580247 1.13097385 -0.00121762 0.00006814 -0.00474013
O 10.59281876 18.26876016 25.66107698 -0.00370200 0.00214047 -0.00296611
O 10.61806864 24.55535705 23.46860487 0.00646583 -0.00127041 -0.00287623
O 14.88227877 20.16150939 15.88396489 -0.00045953 -0.00207924 -0.00306733
O 10.57044886 24.46333790 15.56318182 0.00365615 -0.00130618 -0.00265216
O 15.00577512 20.53765003 23.81516760 -0.00547543 -0.00184003 -0.00044594
O 14.72782490 14.18536945 25.71731016 -0.00361301 0.00162228 0.00012950
O 10.66500215 17.86699040 0.86420047 0.00521716 0.00033609 0.00039981
O 22.69874984 2.88370966 6.37490017 0.00389355 -0.00046796 0.00036927
O 19.74109750 3.69921795 14.65403607 -0.00146580 -0.00005772 0.00338387
O 18.89452121 10.16540697 1.45771192 -0.00357635 -0.00244431 -0.00033122
O 24.38667505 9.12880946 9.09411835 -0.00337916 -0.00298848 -0.00457130
O 19.72309505 9.97455958 9.74928073 0.00476408 -0.00291805 -0.00074308
O 23.22201249 9.21548936 0.68271866 0.00015152 -0.00272669 -0.00257160
O 24.50780956 2.37479995 14.67818364 -0.00027979 0.00587450 0.00262270
O 18.85490236 3.90488852 6.71164954 -0.00334102 0.00571406 0.00684236
O 23.76297268 1.13155911 16.73528203 -0.00437983 -0.00251842 -0.00008946
O 19.51065724 5.64239718 8.66621828 0.00246729 0.00063381 0.00147340
O 19.11450757 11.88857019 7.74295255 -0.00542999 0.00123525 0.00169358
O 24.14161438 7.69446612 31.63440936 0.00167742 0.00226432 -0.00498664
O 19.19533395 11.71435908 32.41095518 -0.00199458 -0.00495399 0.00201646
O 23.75827619 7.78122701 6.88639012 0.00565114 0.01167245 -0.00014673
O 22.75306272 1.33321567 8.59420639 0.00086786 -0.00057168 0.00613856
O 18.99141884 5.07465202 16.75836605 0.00391818 0.00213257 0.00501340
O 23.23087761 2.80387629 22.99412351 -0.00382709 -0.00057793 0.00287242
O 19.87171352 3.88278157 31.62862500 -0.00108420 -0.00832682 -0.00646905
O 18.37124579 10.01737001 18.21551911 0.00000441 -0.00602933 0.00293341
O 24.14834534 8.81617803 25.47411377 -0.00111341 0.00141972 0.00389761
O 19.89080309 9.92981850 26.31445147 0.00348211 0.00750984 0.00280559
O 22.82790038 8.92846168 17.17861317 -0.00062032 -0.00484719 -0.00343996
O 24.40983519 2.66472360 31.32172820 0.00316486 0.00301142 -0.00466269
O 18.65298891 3.73824938 23.07760091 -0.00651814 -0.00134623 -0.00016077
O 23.59365118 1.23786337 0.49023260 0.00272137 0.00171419 0.00089073
O 19.19115346 5.04827281 25.32102470 -0.00323309 0.00626022 -0.00324631
O 19.39406072 11.46826775 24.19621274 -0.00420979 0.00169431 0.00312131
O 23.63025645 7.54543580 15.05164934 -0.00031986 0.00127459 -0.00197281
O 18.75355522 11.40045226 15.99609809 0.00138599 -0.00578805 -0.00271575
O 23.60101883 7.61841349 23.32233309 -0.00598218 0.00070132 -0.00209349
O 22.74684669 1.47385398 25.29345103 -0.00227511 -0.00671026 0.00077510
O 19.09065932 5.40236470 0.71377085 -0.00085650 -0.00668924 0.00201355
O 22.78839125 15.47177964 7.23141144 -0.00463178 0.00446366 -0.00207969
O 20.13096775 16.29567401 15.42235061 -0.00378864 0.00184580 0.00261053
O 18.61099916 23.08456143 1.09174204 -0.00268451 0.00024518 0.00232688
O 23.99436143 22.16250176 10.15951349 -0.00509054 0.00245455 -0.00061732
O 19.42203758 23.10908000 9.34636403 0.00231346 -0.00086570 -0.00007073
O 23.41171303 21.96106451 1.55646050 -0.00190499 0.00139409 -0.00417554
O 24.02673174 15.35701386 15.35519931 -0.00233432 -0.00017480 0.00311718
O 18.33127751 16.63730575 7.05018394 0.00011916 -0.00199090 0.00171370
O 23.97457622 14.02191183 17.52528330 -0.00108773 -0.00167834 0.00149475
O 18.82081087 17.98095950 9.33136609 0.00220654 0.00111950 -0.00174855
O 18.74548081 24.52420665 7.22090470 -0.00369726 -0.00022732 -0.00023824
O 23.40717490 20.30028307 32.30188594 0.00325292 -0.00336130 -0.00065628
O 19.42627388 24.46792456 31.91545970 -0.00014324 -0.00033159 0.00405853
O 23.52923897 20.49541460 7.85847031 0.00186093 -0.00196274 0.00389813
O 23.53611616 14.04827162 9.05375945 -0.00033400 -0.00081885 -0.00664403
O 19.66786229 17.69550529 17.67569219 -0.00387414 0.00711130 0.00181863
O 22.89540439 15.29575412 23.99499286 0.00039647 -0.00809474 -0.00686741
O 19.89826283 16.74436920 31.86595906 -0.00338572 0.00503492 -0.00020006
O 18.49208603 22.59833900 17.65136923 0.00334765 -0.00000021 0.00530761
O 24.31805884 22.16688719 26.38890300 -0.00381504 0.00117063 0.00185219
O 20.13564052 22.98144374 25.85366305 0.00563711 0.00431516 0.00252296
O 23.20410187 22.03347923 18.29054237 0.00650082 0.00056894 -0.00102151
O 24.36762397 15.37538633 31.64119934 -0.00489353 0.00271269 0.00011875
O 18.86644551 16.32736967 23.80566793 -0.00104623 0.00092857 -0.00267624
O 23.64136103 14.19063290 0.96973382 -0.00072894 0.00259826 0.00195581
O 19.39731263 18.15879622 25.66483189 -0.00200242 0.00295831 0.00038402
O 19.37455506 24.30655616 23.64894035 -0.00008098 0.00022225 0.00090409
O 23.54300807 20.38281327 16.41500492 0.00192439 0.00164456 -0.00737577
O 18.96005621 24.19337272 15.65768623 0.00153076 0.00154678 -0.00343747
O 24.12005361 20.25188985 24.62197628 -0.00357058 0.00390125 -0.00141212
O 23.96312689 13.68644683 25.67404228 -0.00399771 -0.00065699 0.00293022
O 19.13586756 18.09128738 1.00102737 0.00415292 0.00115152 0.00200560
N 7.69089450 12.95070774 2.65348190 -0.00467153 0.00045212 -0.00256277
N 0.95706356 6.39122344 10.26878098 -0.00434066 0.00278350 0.00078013
N 3.05577042 25.33367610 5.69385898 0.00363190 0.00083858 -0.00395777
N 5.14596162 6.47717896 13.72547740 0.01015358 -0.00310007 -0.00194346
N 1.17800534 0.05040963 13.99078840 0.00195593 -0.00127328 -0.00144610
N 7.39399609 6.37705452 5.54710486 -0.00020493 0.00181598 -0.00095310
N 5.37504324 12.88607100 10.80732555 -0.00755707 -0.00502020 -0.00343894
N 3.49182939 6.28898174 1.87332657 -0.00194513 -0.00224347 0.00236829
N 7.56140830 12.78289427 18.87547344 -0.00474027 -0.00046106 -0.00494678
N 0.84624443 6.41751663 26.62807348 -0.00136636 0.00512699 -0.00023062
N 3.31903312 25.44971209 22.26386687 0.00542881 0.00174192 -0.00363942
N 5.30646475 6.49022963 30.21399278 0.00175446 0.00618860 0.00067312
N 1.11478148 0.10040777 30.33281997 0.00096763 -0.00362814 0.00107916
N 7.46113470 6.48503931 21.91627296 0.00568032 -0.00315310 -0.00169795
N 5.07955875 13.13410383 26.99223422 0.00236751 0.00818543 -0.00823626
N 3.12866172 6.51832970 18.45599019 0.00469102 -0.00052602 0.00271476
N 7.53682120 25.47599474 2.18466279 0.00499446 -0.00220021 -0.00370773
N 0.96335433 19.05680239 11.21830206 -0.00051457 -0.00037199 -0.00109813
N 3.20117499 12.62510349 5.82146755 -0.00417099 0.00130822 0.00461202
N 5.43212918 19.02151465 14.27113706 -0.00006219 0.00663128 -0.01156325
N 0.59790394 12.40146380 14.10664963 0.00747994 0.00574911 0.00241109
N 7.42859104 19.34318509 6.10999602 -0.00072648 0.00292147 -0.00597516
N 5.11108394 25.41890267 10.46126885 -0.00092595 -0.00271154 -0.00054341
N 3.26411985 18.99486353 2.61598771 0.00596081 -0.01084257 0.01143841
N 7.29593105 25.40590926 18.38535078 0.00411998 -0.00177524 0.00258586
N 1.00067330 19.15814290 27.23776955 -0.00089893 0.00094288 -0.00170351
N 3.34936446 12.72207635 22.07347118 -0.00056599 -0.00137356 -0.00614406
N 5.45501290 19.48520922 30.93124305 -0.00223412 0.00144064 -0.00422284
N 1.05284072 12.67019300 30.65323988 -0.00007401 0.00337937 -0.00408107
N 7.83021199 19.17802768 22.18791217 -0.00440243 0.00582003 0.00126290
N 5.20725298 0.14369685 26.71287992 -0.00375188 -0.00324983 0.00343929
N 3.34594528 19.24682464 19.13370421 0.00120248 0.00630794 -0.00799216
N 16.10350167 13.21022853 2.59343288 0.00079986 -0.00062342 0.00545171
N 9.37957859 6.37328878 10.35834302 0.00403283 0.00062288 -0.00077573
N 11.76723801 25.43743333 5.81705332 -0.00104237 0.00467055 -0.00041629
N 13.72035999 6.29185611 14.02392234 0.00510924 -0.00390429 -0.00087929
N 9.52426206 0.10854282 13.90606560 0.00399733 0.00676148 -0.00120781
N 16.27675140 6.57007294 5.64846321 -0.00339611 -0.00108729 -0.00212032
N 13.63858405 12.86234964 10.80645022 -0.00093413 -0.00292309 0.00008877
N 11.89282014 6.55356523 2.15704518 -0.00476235 -0.00237994 0.00107129
N 16.08441044 12.80319750 18.96836506 0.00587467 0.00261069 0.00752719
N 9.52504408 6.31822064 26.73691480 0.00809812 -0.00529202 -0.00617839
N 11.92944585 0.08843891 21.80786432 -0.00146453 -0.00136782 0.00664129
N 14.00875352 6.57563462 30.38246956 -0.00534583 -0.00641296 0.00126783
N 9.52201351 25.41400125 30.13826616 0.00186981 -0.00163174 -0.00004197
N 16.26290224 6.61059117 21.95852984 -0.00084428 0.00425523 0.00302198
N 13.78832847 12.91194373 27.45138214 0.00841433 -0.00000701 -0.00139955
N 11.56922819 6.43129360 18.69217291 -0.00135010 -0.00383254 0.00750871
N 16.15478217 25.51382487 2.30888120 -0.00183285 -0.00087787 -0.00691013
N 9.62971162 19.00888407 10.81687336 -0.00393537 0.00086676 -0.00984699
N 11.60011134 12.83824978 6.39686493 0.00243754 0.00424781 -0.00383542
N 13.81020175 18.95676905 14.18494493 -0.00500405 0.00279739 0.00745958
N 9.38992882 12.82403351 14.49561907 0.00465960 0.00069482 0.00288090
N 15.95849973 19.19731802 6.09572182 -0.00396503 0.00276139 0.00388485
N 13.55213873 0.09220386 10.58947580 0.00450781 -0.00223651 -0.00234484
N 11.61328913 19.09719012 2.53305487 -0.00887668 0.00010936 -0.00189451
N 16.34019111 0.28916077 18.88721100 -0.00200040 -0.00218721 0.00100039
N 9.53172112 19.37139271 27.33501550 0.00593750 0.00250131 -0.00647562
N 11.86918552 12.96483187 22.31288348 -0.00015347 -0.00713618 0.00639108
N 13.65654700 19.42477905 30.58781572 0.00440145 -0.00317941 -0.00488399
N 9.38693946 12.58052717 30.72436389 -0.00270534 -0.00493805 -0.00261065
N 16.41775472 19.59831053 22.30508292 -0.00267036 -0.00739853 0.00480837
N 13.60415348 0.40294568 27.00731941 -0.00228313 0.00139075 -0.00165401
N 11.96880532 19.07921500 18.89807458 0.00551586 -0.01086424 0.00817685
N 24.58803916 12.91469923 2.65430756 0.00971565 -0.00108917 -0.00325088
N 17.86692903 6.37926527 10.12273754 -0.00783436 0.00230987 0.00613246
N 20.26520901 25.45832898 5.82457349 -0.00272113 -0.00030433 0.00202354
N 22.30796357 6.50979187 13.52798901 0.00430230 0.00291027 0.00205126
N 18.13218268 0.09506016 14.09740759 0.00050239 0.00030859 -0.00310027
N 24.89535006 6.58877671 5.34541368 0.00236455 -0.00504132 0.00575670
N 22.30940406 12.96596407 10.70080809 0.00294943 -0.01203993 -0.00058201
N 20.44929090 6.57121676 2.15752369 -0.00096859 -0.00261493 0.00131141
N 24.72110623 12.78180231 19.38460126 0.00207904 0.00450184 0.00034899
N 18.17130102 6.24772534 26.91484807 0.00057114 0.00182244 0.00317291
N 20.48436786 25.44230704 21.98177125 -0.00433855 -0.01555753 -0.00168128
N 22.59536862 6.70397004 30.32375992 0.00736787 -0.00214532 -0.00064189
N 18.15728071 25.56488261 30.30665668 -0.00320034 0.00652200 0.00233300
N 24.53908690 6.18501371 21.70672289 -0.00248222 0.00128559 0.00554348
N 22.47993149 12.85491496 27.16211808 -0.00306002 -0.00144727 0.01200771
N 20.20894608 6.19609837 18.33138096 0.00027971 0.00032062 0.00214694
N 24.62989108 0.02864335 2.14187627 -0.00137312 -0.00130803 -0.00509689
N 17.80518625 18.98340231 11.20323282 -0.00318529 -0.00731271 0.00656361
N 20.32847135 12.87300486 5.99916864 -0.00399386 0.00034384 0.00016608
N 22.56582523 19.23470364 14.61044022 0.00381550 -0.00825057 -0.00086083
N 18.08081819 12.68617360 14.26107943 0.00414518 -0.00168986 -0.00105064
N 24.39200489 19.10755880 6.29420728 0.00371056 -0.00066935 -0.00330247
N 22.09137041 25.48493443 10.36659618 -0.00125134 0.00521374 0.00214408
N 20.41556194 19.18664651 2.56481836 0.00282303 -0.00811812 0.00058731
N 24.52970848 25.39832081 18.44635746 0.00551593 -0.00550494 -0.00569788
N 18.27355269 19.36170598 27.27950241 -0.00265524 0.00130775 -0.00394287
N 20.48919162 12.64370271 22.60408131 0.00277480 -0.00562340 0.00280968
N 22.53501650 19.07701175 30.63978083 -0.00284989 0.00293725 -0.00305958
N 18.10917854 12.83144248 30.73879696 -0.00230883 -0.01024452 0.00172376
N 24.78646951 19.06943772 22.80003847 0.00489395 0.00376362 0.00501990
N 22.22307406 0.09811288 26.99534776 0.00547056 0.00228243 -0.00526434
N 20.80961892 18.80646914 19.28242803 -0.00248019 0.00328690 0.00688072
C 7.60201446 0.39990491 4.57790169 0.00024079 -0.00064819 -0.00020557
C 0.85776852 6.00373921 12.59569997 -0.00422109 0.00241199 -0.00493777
C 3.24120891 12.20415184 3.51350206 -0.00417045 0.00501584 0.00460042
C 5.10381907 6.76278415 11.34981239 0.00162552 0.01721005 -0.00601139
C 1.12948777 12.34239511 11.73636427 0.00025007 0.00665332 -0.00035991
C 7.71611098 6.69252046 3.21980145 -0.00197562 -0.00109668 -0.00710280
C 5.25053755 0.23498886 12.82425189 0.00175960 0.00585722 -0.00406735
C 3.26356503 6.16679874 4.26174269 0.00259936 -0.00290068 -0.00254414
C 7.10123089 0.92090523 5.70304354 -0.00070665 -0.00673069 0.00299681
C 1.12160778 5.30524194 13.73176196 -0.00304328 -0.00324907 -0.00329901
C 2.84179513 11.50561896 2.37602368 -0.00925797 -0.00193114 0.00414257
C 5.44233350 7.46652098 10.21154873 -0.00275896 -0.01044747 0.01066462
C 1.75760570 11.70862499 10.66913080 0.00599379 -0.00642407 -0.00147977
C 7.32720967 7.26935061 2.07719835 -0.00400990 -0.00171666 0.00320945
C 5.69636904 1.00192684 13.87143000 0.00033053 -0.00039281 0.00475609
C 2.86790554 5.51036990 5.41925386 0.00825008 0.00492636 -0.00458615
C 6.10876071 1.88036666 5.57767051 -0.00533491 0.00069425 -0.00346311
C 1.94701728 4.09856277 13.67668910 -0.00174880 -0.00498351 -0.00607051
C 2.06004601 10.35380970 2.49523843 0.00190407 -0.01129500 -0.00742444
C 6.40822851 8.51971100 10.31817713 -0.00407451 0.00278409 0.00019595
C 2.48762903 10.54368493 10.78083500 0.00291711 0.01106163 0.00512734
C 6.36977361 8.34017556 2.05891292 0.00684050 -0.00082227 -0.00715941
C 6.28094232 2.28808368 13.70239844 -0.00801317 -0.00576924 0.00193282
C 2.14448919 4.32632313 5.29077108 0.00432846 0.00500960 -0.00141429
C 5.91018609 2.42840751 4.29102939 0.00039565 -0.00098675 0.00395155
C 2.27146158 3.69025729 12.35972176 0.01047096 0.00195320 0.00024519
C 1.65571253 9.96940394 3.77909009 0.00087006 -0.00484790 -0.00789761
C 6.79918467 8.96628616 11.60651243 0.00084519 0.00437361 -0.00580327
C 2.49302441 9.94478725 12.05796420 0.00224454 0.00380636 -0.00099101
C 6.18623016 9.07284894 3.26253175 -0.00261021 -0.00508075 -0.00416934
C 6.44405839 2.77532475 12.39914709 -0.00394715 -0.00059827 -0.00664136
C 1.91603986 3.74320432 4.04688869 -0.00685570 -0.00389944 0.00187379
C 6.35767533 1.86715308 3.14258671 -0.00370338 0.00272803 -0.00051908
C 1.93634712 4.22674570 11.18000792 -0.00585331 -0.00229572 -0.00001030
C 1.98102186 10.64316418 4.93133164 -0.01074266 -0.00008630 0.00127479
C 6.42410721 8.30177149 12.75728673 -0.00561051 -0.00274177 0.00181960
C 1.86873127 10.44643919 13.12594249 -0.00031097 0.00467259 -0.00105509
C 6.61348588 8.43495445 4.43874790 -0.00791883 0.00016353 0.00278911
C 6.06824819 1.95569723 11.32126945 -0.00843994 -0.00463047 -0.01021374
C 2.33776907 4.37523976 2.89214230 -0.00326383 -0.00354342 -0.00427452
C 7.12850411 0.67562135 3.28577418 0.00140770 -0.00304738 -0.00480695
C 1.17484241 5.52684482 11.36733478 -0.00292129 -0.00377929 0.00893301
C 2.80175620 11.80899388 4.76790459 0.00857324 -0.00024772 0.00632657
C 5.57544035 7.17669675 12.62461060 0.00317934 -0.00306226 -0.00117250
C 1.13446885 11.73238874 13.01286589 -0.00074539 0.00436008 -0.00316277
C 7.25750303 7.13704677 4.43714457 0.00573719 0.00394337 0.00215760
C 5.50203672 0.68221344 11.53404623 -0.01079071 -0.00523265 0.00191752
C 3.04186418 5.57471246 2.97307728 -0.00181601 -0.00245638 0.00750647
C 7.14455857 0.16314654 0.89993617 -0.00342550 0.01023019 -0.00083438
C 1.51515975 6.23780207 9.02827542 0.00125270 -0.00141760 -0.00117961
C 2.75780439 12.44561319 7.08589524 -0.00512231 -0.00418386 -0.00890908
C 5.48606774 6.76648703 15.00531092 -0.00690642 -0.00382841 -0.00659631
C 1.00467135 12.10845014 15.38219450 0.00070521 0.00815485 0.00878616
C 6.91702696 6.57963652 6.81683552 -0.00413929 -0.00628898 0.00014979
C 5.48651387 25.51343537 9.19297890 -0.00274049 -0.00253155 0.00574635
C 3.10023507 5.96389486 0.63489759 0.00422743 -0.00061417 0.00376895
C 7.23073340 11.63894820 16.84519094 0.00941565 0.00067945 0.00605358
C 1.59276397 7.56859382 8.28716351 0.00176335 0.00001598 0.00188273
C 2.39450643 0.80399609 7.76519866 -0.00685266 0.00055610 -0.00285092
C 5.87775200 5.40154274 32.33744748 0.00476567 0.00383190 0.00006550
C 1.65726412 0.97921466 32.57717713 0.00017084 0.00005331 0.00357071
C 7.07267040 5.44448696 7.79400899 0.00415802 -0.00308122 0.00201276
C 5.51652279 11.91671471 8.72640656 0.00794538 0.00077893 -0.00213539
C 2.43841083 7.61964254 16.34507090 0.00578801 0.00510156 0.00056704
C 7.45429861 0.21260722 20.68644651 0.00189077 0.00847181 0.00406357
C 0.94002539 6.02764208 29.08011768 0.00300563 -0.00410583 0.00110681
C 3.34866948 12.06249340 19.76702791 -0.00100334 -0.00640885 0.00385739
C 5.31130177 6.78032512 27.74662005 0.00235377 0.00048708 0.00822274
C 1.05376605 12.36556933 28.29825779 -0.00805612 0.00508246 0.00090745
C 7.51994738 6.92463590 19.58157042 -0.00250196 -0.00501286 0.00271372
C 5.19531463 0.50819364 29.15091870 -0.00257602 -0.00059466 0.00130752
C 3.26194331 6.08537743 20.76100137 0.00064113 -0.00532265 -0.00792449
C 7.34479896 0.88853805 21.82715851 0.00434276 0.00329842 -0.00239527
C 1.46148761 5.30394090 30.11962561 0.00206148 0.00301336 0.00511792
C 2.79043025 11.31030188 18.77660586 0.00416599 -0.00137209 -0.00518581
C 5.87951917 7.40404824 26.64252662 -0.00181964 -0.00089057 0.00455008
C 1.53320948 11.74200979 27.17181513 0.00031938 0.00604938 0.00141868
C 7.10118116 7.59737015 18.49506506 -0.00075325 -0.00188809 0.00453280
C 5.75533802 1.08209118 30.24996199 -0.00718310 -0.00050233 0.00659584
C 2.84158841 5.46994704 21.91128350 -0.00159211 0.00385700 -0.00072561
C 6.51358806 2.10226720 21.81460576 0.00190826 0.00054413 -0.00248123
C 2.21336547 4.11533513 29.92724689 -0.00647394 -0.00061470 -0.00396331
C 1.84017780 10.31902219 19.11735420 0.00084289 -0.00202398 0.00386189
C 6.75919490 8.50034516 26.80661971 0.00257139 0.00001897 0.00287015
C 2.30317775 10.59769819 27.15956873 -0.00052810 -0.00427391 0.00581891
C 6.11512601 8.56748021 18.58981305 -0.00913569 -0.00540567 0.00296587
C 6.63016192 2.18324402 30.08327807 0.00017023 -0.00459068 0.00683816
C 2.12437233 4.27632172 21.83259725 0.00495830 0.00611788 0.01067213
C 6.02565112 2.55986296 20.54743482 0.00148950 0.00886517 -0.00136026
C 2.37895844 3.70007924 28.61355454 -0.00486956 0.00623554 0.00329051
C 1.77716802 9.91330028 20.47391430 0.00120244 0.00854099 -0.00151344
C 6.90886479 9.08135457 28.06421995 -0.00132264 -0.00150338 -0.00408937
C 2.60911322 10.02630529 28.43299400 -0.00204208 -0.00008229 0.00344022
C 5.92407536 9.14116092 19.85682572 -0.00709954 0.00600565 -0.00278599
C 6.77444366 2.78245596 28.81022747 -0.00190017 0.00617341 -0.00148798
C 1.88466560 3.71957558 20.61915225 0.00208437 -0.00132421 0.00675921
C 6.40023644 1.89040088 19.38510398 0.00061092 -0.00804939 -0.00078125
C 1.86731365 4.37770663 27.55401593 0.00381659 0.00122585 0.00179702
C 2.31797128 10.66192380 21.48251781 -0.00677037 -0.00273735 0.00439388
C 6.45658667 8.42921078 29.21433939 0.00385858 -0.00031568 0.00002830
C 2.22575259 10.70133713 29.58466109 0.00270094 -0.00002492 0.00423805
C 6.42059305 8.58192181 21.03844084 -0.00467243 0.00232372 0.01567682
C 6.31789314 2.19255069 27.64584007 0.00007534 0.00004865 -0.00070221
C 2.24999883 4.30615158 19.40103312 0.00433158 0.00754302 0.00405826
C 7.09556298 0.69699613 19.44199702 0.00314932 0.00058787 -0.00391883
C 1.20736624 5.60311216 27.75032860 -0.00251756 -0.00236362 -0.00704959
C 3.06788304 11.81760990 21.12609746 0.00058319 -0.00666686 -0.00437358
C 5.70081534 7.24892936 29.08208532 0.01113929 -0.00531617 0.00615367
C 1.42043500 11.90443462 29.55320742 0.00303450 -0.00540106 0.00005582
C 7.14504673 7.33695035 20.89541001 0.00058079 0.00312884 0.00227258
C 5.54087407 0.91943836 27.83741588 -0.00227570 0.00270032 -0.00217060
C 2.90028476 5.62365184 19.47765276 -0.00096451 0.00318730 -0.00300349
C 7.05026811 0.11062665 17.07007160 -0.00086491 0.00378631 -0.00455837
C 1.65935831 6.35868768 25.48318058 -0.00051594 -0.00202921 -0.00008378
C 2.90183005 12.65357294 23.38002683 -0.00141501 -0.00142687 0.00187515
C 5.98743595 6.55148485 31.40518953 -0.00384523 0.00050190 -0.01134923
C 1.66814747 12.53300577 31.88096944 0.00293745 -0.00031928 0.00258216
C 7.04968313 6.64443904 23.19203492 -0.00275834 0.00115419 0.00222437
C 5.78346296 0.29988882 25.51370607 0.00947181 0.00121334 0.00057159
C 2.56097349 6.34205231 17.21698676 0.00299473 -0.00640898 0.00003819
C 7.24911505 11.67694960 0.65153226 0.01062211 -0.00632277 -0.00844712
C 1.57740644 7.50451176 24.49165679 0.00467222 -0.00329677 -0.00197925
C 2.85612819 0.91265429 24.44945339 -0.00273769 -0.00575530 -0.00375479
C 5.24160257 5.62824206 15.87330079 0.00051892 -0.00537297 0.00101900
C 1.54582795 0.94314710 16.18161665 0.00354725 -0.00834616 -0.00424103
C 7.43435751 5.42868480 24.05861319 -0.00357194 0.00082912 -0.00131402
C 5.45026108 11.89827234 24.90229480 -0.00422321 0.00326906 -0.00570922