1920
Time=88000.00000005 pbc="T T T" Lattice="25.52976913 0.00000000 0.00000000 0.00000000 25.89864109 0.00000000 0.00000000 0.00000000 32.85328131" energy=-12251.82668257 virial="-44.21977424 32.08298730 -2.85923488 32.08298730 -19.20155445 -54.37160197 -2.85923488 -54.37160197 25.92346491" stress="-0.00000700 0.00142941 -0.00005089 0.00142941 0.00126034 -0.00245129 -0.00005089 -0.00245129 0.00330205" Properties=species:S:1:pos:R:3:vel:R:3
O 5.83084022 2.51279934 6.96911588 -0.00464649 -0.00312520 0.00169632
O 2.61984468 3.14861713 15.04067793 -0.00145348 0.00201445 -0.00700893
O 1.94266549 10.11459035 1.53291593 0.00401229 -0.00301776 -0.00172705
O 7.19370446 9.34183347 9.44973122 -0.00449573 0.00085725 0.00367098
O 2.85171179 10.06167294 9.61202480 0.00065409 -0.00095171 0.00239380
O 5.90902932 9.16018790 1.48209489 -0.00159789 0.00484560 -0.00307146
O 6.88664359 2.79844356 14.85427393 0.00468628 0.00154094 0.00830227
O 1.44111686 3.54432101 6.97273864 0.00389630 -0.00472079 0.00295232
O 6.69640276 1.16439350 16.90014971 -0.00125803 0.00244482 0.00141614
O 2.23547798 5.10886889 9.10459496 -0.00021493 0.00027840 -0.00463761
O 2.83959099 11.97441018 7.67646085 0.00131735 -0.00163624 -0.00307943
O 6.45156620 7.59853389 32.35916057 0.00061986 -0.00713066 0.00003418
O 2.28601665 11.54184427 32.23384996 0.00136702 -0.00413057 -0.00286755
O 6.87215488 7.49792677 7.47296603 0.00277120 0.00082208 -0.00108592
O 6.06933387 0.88790495 8.87731946 0.00369246 0.00042397 0.00661324
O 2.57455796 4.94516630 17.43703556 0.00523058 -0.00310401 0.00377132
O 6.24034057 2.91669068 23.08434742 0.00294444 0.00034990 -0.00126425
O 2.68947851 3.86422371 31.75410743 0.00404627 0.00443573 -0.00164526
O 1.83237106 10.10332211 17.81678066 -0.00581346 -0.00510082 0.01057841
O 7.12809503 9.31462821 26.28239579 0.00111189 -0.00182305 -0.00574313
O 2.05520536 10.26059604 26.00968967 -0.00696740 0.00601869 0.00092955
O 5.66671061 9.18327690 18.01525524 -0.00238818 -0.00116714 -0.00913528
O 6.90083070 2.64365075 31.67527923 0.00024102 -0.00126200 -0.00207085
O 1.29351374 3.66209233 23.58539802 -0.00259767 -0.00472837 0.00039161
O 5.91171919 1.51075919 0.85545477 0.00018879 -0.00125006 0.00973152
O 1.85309282 5.28499796 25.63536864 0.00359355 -0.00463846 -0.00151823
O 1.95951804 11.90134634 23.87533915 -0.00102458 0.00624632 -0.00306395
O 6.53002866 7.76040450 15.84846235 0.00053769 -0.00225772 0.00391269
O 2.05422347 11.38841681 15.66804637 0.00611257 0.00328872 0.00135470
O 6.73444430 7.88988559 24.18783196 -0.00078669 0.00055034 0.00086858
O 6.45828274 1.33009236 25.41536452 -0.00398232 -0.00331845 -0.00670594
O 1.91001080 5.31103541 0.94099988 -0.00669563 0.00015919 0.00303135
O 5.74776059 16.06382194 7.07583107 -0.00285790 0.00446992 0.00338542
O 3.00350593 16.70066133 15.24063126 0.00087306 -0.00437852 -0.00298589
O 1.39967073 23.35499779 1.30431197 -0.00236364 -0.00378591 -0.00109667
O 7.11288353 21.87299576 9.73618354 0.00068688 -0.00221491 -0.00384550
O 2.85413215 23.14881711 9.77269435 0.00219772 0.00193626 -0.00451525
O 5.59401261 22.48012982 1.47956128 -0.00296907 -0.01285877 0.00495997
O 7.18307028 15.67634407 15.45264044 -0.00285377 -0.00247473 0.00815376
O 1.44625965 16.98762015 6.88764401 -0.00105917 -0.00718408 -0.00327692
O 6.76506977 14.17835778 17.39231461 0.00212860 -0.00404978 -0.00141026
O 1.99281121 18.23693357 9.20031840 -0.00449541 -0.00697433 -0.00223303
O 2.34349886 24.49134270 7.58756191 0.00605009 0.00606871 -0.00217773
O 6.08829467 21.01519093 32.21233561 -0.00257842 0.00452420 0.00451471
O 1.72964377 24.59694297 31.88322678 -0.00268063 0.00239679 0.00061013
O 6.34630535 20.77913968 7.57505975 -0.00396436 -0.00720164 -0.00318875
O 6.08742270 14.35535631 9.17656793 -0.00669912 0.00739387 -0.00006665
O 2.01017414 18.01799313 17.28910510 -0.00114581 -0.00535312 0.00088528
O 5.71941747 15.92649387 23.34602765 0.00656522 0.00875856 -0.00240279
O 2.36415232 16.54407523 31.55118011 0.00454768 -0.00125291 -0.00278174
O 1.31232385 23.26090475 17.49925899 -0.00508422 0.00251486 0.00422101
O 7.11926753 22.13656106 26.05072692 0.00064366 -0.00118763 0.00568605
O 2.32575372 23.38409470 25.63081422 -0.00070410 0.00112016 0.00085848
O 6.26008446 22.12827803 17.70585846 0.00509414 -0.00179953 -0.00464424
O 6.77312287 15.74140723 31.66889012 0.00354057 -0.00182762 -0.00281578
O 1.14169354 16.63820355 23.20334324 -0.00100185 -0.00000865 -0.00481946
O 6.40658931 14.25872912 1.00369411 -0.00588350 -0.00368687 0.00782660
O 1.79605910 18.05720719 25.36061342 0.00147744 0.00681835 -0.00406044
O 1.63849112 25.01853860 23.49454655 -0.00023222 0.00230699 0.00315657
O 6.53562686 20.49665579 15.85345796 -0.00818854 -0.00069457 -0.00299868
O 2.19166857 24.64303599 15.69887116 -0.00186253 -0.00359123 0.00320972
O 6.56505081 20.81359520 23.96178207 -0.00025974 -0.00093980 -0.00402900
O 5.98973390 14.14784611 25.46554863 -0.00476857 -0.00102710 -0.00173996
O 2.23206606 18.23587963 0.67957901 0.00882394 0.00050958 0.00022521
O 14.69626072 3.33003989 6.68850542 -0.00100499 -0.00138434 -0.00188346
O 11.07051429 3.83054407 15.08129694 -0.00294217 0.00019443 0.00354749
O 10.01282235 10.27068991 1.40684153 0.00535693 0.00041997 -0.00079394
O 15.72832492 9.44474716 9.32069064 0.00189336 0.00391694 0.00619823
O 10.85225395 9.93783897 9.61153820 0.00208642 -0.00651618 -0.00108672
O 14.62126609 9.42022726 1.12063917 0.00029010 -0.00123079 -0.00309324
O 15.85802474 3.01781609 14.87111354 0.00119766 -0.00071449 0.00572572
O 10.44004328 3.81146755 7.01993259 0.00570268 -0.00363321 -0.00481845
O 14.76226694 1.65553964 17.02523013 0.00171444 0.00172360 0.00198017
O 11.01430886 5.34713976 9.10566525 0.00777717 -0.00796006 0.00392148
O 10.51049510 11.62878885 7.43640811 0.00115946 0.00088106 -0.00157433
O 15.01711302 7.80877465 32.08464701 0.00215729 0.00401734 -0.00406869
O 10.30061004 11.24248591 32.02803331 -0.00041184 -0.00178775 -0.00208865
O 14.88552567 8.06772056 7.39268125 0.00095468 0.00398277 -0.00111807
O 14.92117457 1.44695468 8.63267875 0.00302875 0.00577039 0.00276980
O 10.37558007 5.42020243 16.94748914 0.00514894 0.00034197 -0.00174425
O 14.50285504 2.43944720 23.37590675 -0.00208093 -0.00005971 -0.00167465
O 11.33251947 3.83768778 31.62729137 -0.00475776 0.00712939 0.00423151
O 9.95038004 9.89617897 17.68381467 -0.00641559 0.00316726 0.00567168
O 15.44199661 8.92609445 25.86385689 -0.00364541 -0.00257482 -0.00071912
O 10.80423247 10.10027154 25.83611662 -0.00209248 0.00140383 0.00536912
O 14.33593738 9.27976917 17.46929080 -0.00581182 0.00311470 -0.00029646
O 15.37258340 2.85247523 31.30595925 0.00124655 0.00018684 -0.00267515
O 10.41474352 3.61759966 23.12301627 -0.00556043 0.00379680 -0.00758308
O 14.83157304 1.42546061 0.58755843 0.00045200 0.00107456 -0.00348781
O 10.53969701 4.97474285 25.46415521 0.00331641 -0.00291066 0.00831024
O 10.44291327 11.49241167 23.72927465 -0.00466909 0.00316060 -0.00246095
O 14.95907964 7.72463653 15.45422498 -0.00365341 0.00070126 -0.00248765
O 10.29277369 11.70742016 15.66706218 0.00064114 -0.00771276 0.00113458
O 14.72768614 7.62649987 23.66074751 0.00141696 0.00090108 0.01198089
O 14.90201017 0.90603907 25.40905809 -0.00124079 -0.00329852 0.00059468
O 11.02872817 5.14068198 0.80494537 -0.00388174 0.00331986 -0.00280489
O 13.95337696 15.42006442 7.00044210 0.00127665 -0.01073889 -0.00151700
O 11.17875089 16.68612890 15.21754067 -0.00892647 -0.00853153 -0.00172227
O 10.00254555 23.18038647 1.04189421 -0.00098107 0.00773320 0.00120051
O 15.59556925 22.07486540 9.51028725 0.00036742 0.00080553 0.00499815
O 11.28588029 22.98407082 9.27800922 0.00626842 -0.00315235 -0.00247450
O 14.65822007 22.34482073 1.24134691 -0.00126817 -0.00228971 -0.00022651
O 15.32706797 15.72211749 15.07687964 0.00302144 0.00068421 0.00263132
O 10.37736115 16.52900556 7.16775642 -0.00040060 -0.00477793 0.00118979
O 14.94925741 14.16633317 17.22402927 0.00101819 -0.00456241 -0.00678259
O 10.44149377 18.26615798 9.10775274 0.00298354 -0.00852443 0.00108186
O 10.67725924 24.58728433 7.31500218 0.00014491 -0.00303569 -0.00681306
O 14.74460100 20.89761805 31.92174401 0.00036406 0.00204042 0.00036080
O 10.55266042 24.61773700 31.98870584 -0.00359935 0.00364144 -0.00052115
O 15.44038001 20.53064911 7.41079758 0.00269630 -0.00355259 -0.00387399
O 14.63184512 13.95442403 9.08114302 -0.00698962 -0.00201969 -0.00409405
O 10.84646270 18.30389950 17.19078695 -0.00315665 -0.00541430 -0.00053401
O 13.99521907 15.49816724 23.24148731 0.00103230 0.00434252 -0.00004671
O 10.86859969 16.70389797 31.73926071 -0.00288655 0.00550187 0.00028254
O 10.13298674 23.22512844 17.59981235 -0.00111981 0.00153485 -0.00155533
O 15.18840023 21.95691036 25.67348305 0.00158670 0.00252839 0.00321859
O 11.18059939 22.93786916 25.82083174 0.00066585 -0.00210876 -0.00014926
O 14.90384899 22.54184602 17.61696273 0.00258487 -0.00427174 -0.00076334
O 15.77548873 15.69276001 31.60106805 -0.00429724 0.00638240 -0.00003133
O 9.64990892 16.73762417 23.20067056 -0.00247620 0.00158888 -0.00251279
O 15.28550732 14.62135124 1.01964829 -0.00350982 0.00661960 0.00258773
O 10.39624577 18.07588489 25.25151940 0.00190448 0.00072604 -0.00511305
O 10.73948038 24.57381339 23.72807858 -0.00434050 -0.00057570 -0.00061927
O 14.77002209 20.84937731 15.67456324 0.00239740 -0.00477653 -0.00110560
O 10.62673958 24.57430975 15.45451778 0.00057531 -0.00208834 -0.00169345
O 14.91927935 20.33339904 23.59171733 -0.00183989 0.00045503 -0.00045645
O 14.69795962 14.17353818 25.49047716 -0.00011973 0.00342040 0.00132131
O 10.43909215 18.10127424 1.09195116 -0.00160533 -0.00552066 -0.00131297
O 23.07067191 2.93890078 6.80692092 0.00193261 -0.00012642 0.00372764
O 20.05210341 3.93997253 14.71427487 -0.00131705 -0.00627038 -0.00144632
O 18.83050272 10.07003247 1.27036903 -0.00357968 -0.00039476 0.01019572
O 24.48664333 9.33743542 9.57810125 0.00330971 0.00003144 -0.00298651
O 19.52768963 10.39401517 9.64479994 0.00390984 0.00694375 0.00207648
O 23.23796293 9.18505312 1.50905144 0.00005116 -0.00332410 -0.00333573
O 24.03083737 2.58864334 15.06190587 0.00004946 0.00088894 0.00203468
O 18.93958380 3.63721899 6.74006496 -0.00659357 -0.00133668 0.00412238
O 23.44539161 1.23068058 17.13722077 -0.00352052 0.00097165 0.00209969
O 19.17424342 5.37747360 8.54749046 -0.00764991 -0.00235225 0.00052824
O 18.82955244 11.51898688 7.61741331 0.00062853 -0.00154108 -0.00114532
O 23.27444581 7.74331653 32.22351075 -0.00410547 -0.00544877 -0.00220571
O 19.28367910 11.88576651 32.40543881 0.00404984 0.00501230 0.00001533
O 23.76877022 7.78836989 7.70143483 0.00284216 -0.00092604 -0.00358636
O 23.47578945 1.24284860 8.87101726 0.00134658 0.00378742 0.00265915
O 19.72043209 5.19819215 17.01406705 0.00439147 0.00202139 -0.00209708
O 23.00482012 2.87075137 23.21449661 -0.00077778 0.00241970 0.00260264
O 19.80653747 3.64337330 31.38129650 -0.00233357 -0.00323261 0.00270256
O 18.82774290 10.21040170 17.79967840 0.00161369 0.00622701 -0.00051017
O 23.66292825 9.36717313 25.99489569 0.00130500 0.00065147 0.00480445
O 19.10197169 10.04301868 26.06934149 0.00035299 0.00468939 -0.00720318
O 22.79798069 9.22341482 17.93067603 0.00143060 0.00579036 0.00157936
O 24.00851077 2.96694890 31.42138601 -0.00229400 0.00066808 -0.00892098
O 18.15667054 3.69951199 23.33978119 0.00437376 0.00681144 0.00576524
O 23.56504223 1.32535598 0.68036256 -0.00120765 0.00078173 -0.00328712
O 18.92452106 5.22285020 25.28283629 -0.00190772 0.00477001 0.00018183
O 18.87815662 11.49141868 23.92528496 0.00045996 -0.00087462 0.00194711
O 23.48245743 7.86499428 15.67644379 -0.00446615 -0.00507907 -0.00081778
O 18.83834859 11.69176363 15.67765278 -0.00304312 0.00080453 -0.00710090
O 23.02898417 7.57494727 24.11502526 0.00166642 -0.00171841 -0.00147308
O 23.26023776 1.32025360 25.32841402 0.00162954 0.00343461 -0.00108109
O 19.81564015 5.06793629 0.62952404 0.00022374 -0.00439866 0.00096626
O 22.88559380 15.68581046 7.01668650 -0.00183246 -0.00108023 -0.00415197
O 19.80751901 16.82918574 14.84328884 0.00241132 -0.00321494 0.00019946
O 18.32297119 23.26253064 0.99335307 0.00241144 0.00273563 0.00154679
O 23.79444946 22.43549485 9.68577260 0.00089343 -0.00175806 0.00724428
O 19.61604793 23.08330817 9.16487891 0.00267618 0.00114053 0.01098281
O 22.91652217 22.51959204 1.42955260 -0.00036748 -0.00042001 -0.00411880
O 23.80200124 15.77616173 15.25148197 0.00456427 -0.00059603 0.00326466
O 18.65858212 16.38988835 6.51036826 0.00578180 -0.00708670 -0.00020815
O 23.43751034 14.27057153 17.39349267 0.00681039 -0.00317691 0.00456009
O 18.82166181 18.15549243 8.57797024 -0.00117728 0.00020991 0.00467194
O 19.31774911 24.70282927 7.06871946 0.00087367 0.00306200 0.00681161
O 23.05064497 20.92818062 32.16451714 -0.00816520 -0.00098572 0.00429883
O 18.69731412 24.92048734 31.80624055 0.00084891 -0.00360427 -0.00022511
O 23.53354026 20.99506925 7.67161139 -0.00284314 0.00381977 0.00226786
O 23.50249831 14.12253092 9.04501478 -0.00103020 -0.00046185 -0.00375647
O 19.29867180 18.05461768 16.98743294 -0.00132122 -0.00150979 0.00397236
O 22.68399209 15.53605297 23.77531238 0.00239599 -0.00229036 0.00581152
O 19.78026785 16.73317049 31.46387689 0.00241822 0.00258637 0.00403143
O 18.54440503 23.23735062 17.51722719 -0.00111341 -0.00026417 -0.00916042
O 23.79488753 22.11993846 25.85015582 -0.00417417 0.00000203 -0.00140445
O 19.32884314 22.77946821 25.92114393 0.00174364 -0.00787942 -0.00086384
O 22.77114233 22.44647463 17.74125707 0.00180590 -0.00274487 -0.00132104
O 23.67854450 15.90671215 31.69515885 -0.00221516 0.00350739 -0.00122639
O 18.43798708 16.31963963 23.03013300 0.00587611 -0.00013703 0.00838484
O 23.87765388 14.19391211 0.91717770 -0.00035375 0.00483736 -0.00786554
O 18.70333396 17.83477248 25.26207216 -0.00039118 0.00289744 -0.00307270
O 19.47466018 24.39094856 23.78401081 -0.00581512 -0.00585406 -0.00196800
O 22.87110794 20.56790521 15.82690987 0.00367534 -0.00287664 -0.00591916
O 19.17916727 24.67372769 15.41109283 0.00063959 -0.00054246 0.00317279
O 23.24941780 20.65701395 23.80499458 0.00319083 -0.00059428 0.00307207
O 23.40749589 13.99310262 25.66552446 -0.00212807 0.00026766 0.00242449
O 19.20593368 18.30949935 0.47369219 0.00267658 0.00266754 0.00419428
N 7.63683204 13.35337556 2.70620835 0.00799155 0.00207864 0.00010397
N 1.54264543 6.39672748 10.81380462 0.00140695 -0.00638787 0.00308944
N 3.19055085 25.74444076 5.86118270 -0.00556358 -0.00062088 -0.00537512
N 5.20657639 6.95740348 14.07494569 -0.00016140 0.00657762 0.00471612
N 0.96037010 25.80643372 14.18009294 0.00117313 0.00171903 0.00186555
N 7.66419965 6.13671194 5.80499483 -0.00696904 0.00191000 0.00123925
N 5.15206753 13.07998105 10.91848541 0.00715048 0.00550900 0.00261482
N 3.43539156 5.93194443 2.48905289 -0.00234668 0.00385098 0.00231424
N 7.78660169 13.05943404 19.13396918 -0.00382967 -0.00335929 0.00340966
N 1.22034173 6.78385574 27.27676788 0.00300984 0.00453267 0.00430540
N 3.26768680 25.62541733 22.06785820 -0.00127163 -0.00368414 0.00028242
N 5.33403221 6.41800436 30.69412143 -0.00327205 0.00023390 -0.00093619
N 1.06660888 0.19844938 30.33943065 0.00657583 0.00292760 0.00223155
N 7.29616431 6.43053850 22.47606133 0.00526525 -0.00011353 0.00182527
N 5.29233535 12.81150266 27.19531355 -0.00467141 0.00542587 -0.00086785
N 3.11395593 6.36592116 19.15967724 0.00029930 0.00389397 -0.00014313
N 7.32544785 0.26358712 2.17772879 -0.00007032 0.00171546 0.00118074
N 0.85054136 19.28113001 10.91272295 -0.00499867 0.00394020 0.00162740
N 3.76408271 13.03496843 5.88245885 -0.00431741 -0.00002150 0.00069212
N 5.11419604 19.52507313 14.28963507 0.00136594 -0.00765368 0.00110895
N 0.94584750 12.70603120 14.12004122 0.00099366 -0.00121209 0.00731770
N 7.52707538 19.66193626 5.83950171 0.00604230 -0.00739710 0.00145319
N 5.33201339 25.45416888 10.61740868 -0.00457996 0.00768662 -0.00177579
N 3.25346705 19.41791639 2.37780918 0.00483115 0.00064521 -0.00432351
N 7.37673565 25.77639591 18.69156904 -0.00097269 -0.00331394 -0.00503379
N 1.01148073 19.30479362 27.03865359 0.00128635 0.00418721 0.00009442
N 3.39027600 12.86624624 22.42152876 -0.00627565 -0.00217900 -0.00484490
N 4.87112657 19.96825852 30.59442013 0.00170874 -0.00293847 0.00441523
N 1.24922107 12.97039291 30.74979624 -0.00049910 0.00077167 0.00169434
N 7.51569346 19.52044787 22.36436372 0.00099758 0.00818537 -0.00449472
N 5.36900904 0.13498732 26.96822044 0.00016731 -0.00688514 -0.00059009
N 3.33767090 18.99197820 18.83520280 0.00437737 0.00000008 0.00079854
N 15.95524687 13.08279995 2.51587781 0.00408916 -0.00217486 -0.00438962
N 9.56051149 6.49907905 10.49039595 0.00126853 0.01161686 -0.00191531
N 11.86509520 25.52123234 5.64801571 0.00103359 -0.00221868 -0.00226725
N 13.83487168 6.71340105 13.75370274 0.00840086 -0.00256314 0.00082992
N 9.94115479 0.04227487 13.71456891 0.00250670 0.00376006 -0.00206315
N 16.18918141 6.97062095 5.87813750 0.00167309 -0.00173535 0.00005341
N 13.88754813 12.56113232 10.77609290 -0.00220079 0.00421153 -0.00197873
N 11.99457131 6.46929019 2.39662062 -0.00143376 0.00125043 -0.00001803
N 16.12963869 13.00579894 18.70501044 -0.00709436 0.00164355 -0.00367482
N 9.59870864 6.36815085 27.06511518 0.00387196 0.00451902 0.00244212
N 11.56364289 0.04372091 22.17133037 -0.00405009 0.00579998 -0.00180334
N 13.64721250 6.65438881 30.62832797 -0.00180116 0.00017021 0.00442153
N 9.29696020 25.59853023 30.32673064 -0.00337173 0.00111003 0.00370850
N 16.06110310 6.65318055 22.03105101 0.01084330 0.00568716 -0.00162457
N 13.58590000 13.20325191 27.20926228 -0.00103217 -0.00351537 0.00011908
N 11.42817181 6.58953871 18.56653924 0.00227635 -0.00247894 -0.01282307
N 15.72095595 0.18603399 2.28468423 0.00094340 -0.00061441 0.00350085
N 9.59440752 19.59181635 10.69685171 0.00124502 0.00780873 0.00161178
N 11.61350137 13.00593080 5.96563989 0.00364439 -0.00064947 0.00095868
N 13.91576975 19.49270214 14.05046696 -0.00297257 -0.00576953 -0.00391861
N 9.29485923 12.92035096 14.05190246 -0.00187086 0.00564028 -0.00124546
N 16.33872741 19.46179648 5.65878388 -0.00013349 0.00436163 -0.00176410
N 14.06488615 0.23617828 10.38895766 0.00597244 -0.00234260 0.00175149
N 11.73109980 19.25212776 2.57540644 0.00310164 0.00040860 0.00323911
N 15.73216149 0.26186908 18.45051899 0.00208556 -0.00444528 0.00276694
N 9.54343891 19.41317194 26.88285913 -0.00291229 0.00719137 0.00032294
N 11.74098515 12.53897568 22.30186211 -0.00592779 0.00022221 0.00745108
N 13.76883815 19.48803152 30.41165927 -0.00163605 -0.00453381 0.00656791
N 9.29854175 12.60150295 30.59748922 -0.00089181 0.00629882 -0.00458187
N 16.08485651 19.33880754 21.97862924 -0.00411956 -0.00196353 0.00454148
N 13.52792067 25.75185289 26.87590670 0.00002255 0.00080033 0.00365447
N 11.78135953 19.43987363 18.97377909 -0.00652974 -0.00091254 -0.00516747
N 24.62392376 12.92998361 2.59248087 0.00273293 0.00369949 0.00305312
N 18.32407477 6.63233016 10.28625454 -0.00493349 -0.00232133 0.00081741
N 20.45957160 25.83561546 5.42021728 0.00147261 0.00173130 0.00013657
N 22.33409202 6.77301967 13.95177742 0.00012039 -0.00010333 0.00395026
N 18.07134075 25.80873022 13.80190320 0.00370138 -0.00388961 0.00747987
N 24.56034945 6.40351790 6.03895868 -0.00505416 0.00292794 -0.00310717
N 22.30247479 13.01742898 10.68704483 -0.00028582 -0.00050359 0.00079745
N 20.49070254 6.46983095 2.21170771 -0.00417211 0.00907099 0.00259378
N 24.31237391 13.01032102 19.07793417 0.00365692 0.00397047 -0.00084910
N 17.75836915 6.35338069 26.94295648 0.00208858 -0.00211880 -0.00139265
N 20.13534454 25.83077029 22.10697810 0.00176674 0.00271697 0.00156946
N 22.43825636 6.50958026 30.52874467 -0.00286214 -0.00668312 -0.00218105
N 17.92530954 0.21648974 30.04111133 -0.00096321 0.00531019 0.00128719
N 24.23099538 6.38674191 22.49768389 0.00530172 0.00612395 0.00407093
N 22.07204756 13.08705061 27.36396025 -0.00180669 0.00089582 -0.00273086
N 20.38330784 6.31283347 18.86125225 0.00317414 0.00297759 -0.00184413
N 24.25634126 25.75546194 2.36589548 -0.00384637 0.00172367 0.00538551
N 17.90170717 19.33075295 10.30634730 0.00469325 0.00026010 0.00756060
N 20.23668659 12.49409209 6.11532579 -0.00036417 -0.00256365 0.00156467
N 22.38434965 19.22509004 14.03890633 0.00492953 -0.00446909 -0.00582411
N 18.03085057 13.11719981 14.14146803 -0.00051254 -0.00380195 0.00526493
N 24.43797330 19.64362824 6.02620466 -0.00611162 -0.00135078 0.00330960
N 22.26950548 0.23944303 10.49445322 -0.00415163 -0.00367082 0.00467817
N 20.26595233 19.33841987 2.19437492 0.00672466 0.00453931 0.00565171
N 24.34908534 25.74160190 18.70378743 0.00151674 -0.00004582 0.00086823
N 18.01302487 19.26807635 26.95179019 -0.00039592 -0.00474966 0.00466319
N 20.03388308 12.78819936 22.52637971 -0.00280252 0.00002951 -0.00212771
N 22.22310983 19.67210517 30.45701162 -0.00247766 -0.00397612 -0.00238238
N 18.22155244 12.95643203 30.62606539 -0.00227519 -0.00270874 -0.00247828
N 24.23433125 19.35143818 22.09457436 -0.00256857 -0.00085457 0.00276463
N 22.37382871 25.87159956 27.00884603 0.00696552 0.00144971 0.00418956
N 20.08748836 19.35648864 18.67188445 0.00389192 0.00194473 0.00054823
C 7.66072409 0.41059006 4.49403084 0.00473310 0.00700637 0.00454688
C 1.14157450 5.78094346 13.04563794 -0.00445910 -0.00692071 -0.00325741
C 3.54145421 12.71065378 3.44020701 -0.00638660 -0.00198960 -0.00462594
C 5.40908185 7.00750329 11.67001368 -0.00395898 -0.00183461 -0.00558944
C 1.02699406 12.42901458 11.68802570 0.00397132 0.00082577 -0.00273211
C 7.73236045 6.71454562 3.42182604 -0.00381453 0.00191031 -0.00180063
C 5.18479332 0.18226122 12.99191430 0.00099099 -0.00377130 0.00489089
C 3.40969981 5.72345840 4.87985599 0.00217118 -0.00461701 -0.00052395
C 7.33976554 1.03018290 5.67620156 -0.00227073 0.00110891 0.00049822
C 1.42910939 5.02030724 14.12441686 0.00337576 -0.00617334 -0.00154734
C 3.18779502 11.88403746 2.39609615 0.00271845 0.00069751 0.00534053
C 5.88947348 7.68395351 10.56479940 0.00066244 -0.00214977 -0.01081510
C 1.49622025 11.73590563 10.63989253 0.00098545 -0.00010260 0.00382460
C 7.35242687 7.50526413 2.35997723 0.00170647 0.00291506 -0.00424980
C 5.61382120 0.99513075 14.01694880 0.00518046 -0.00757974 0.00606414
C 3.08622362 4.98108053 6.04431965 -0.00150320 0.00691023 -0.00047492
C 6.40147367 2.12183266 5.79781186 -0.00070702 0.00222400 -0.00599693
C 2.19572753 3.84978077 13.94971395 -0.00339279 0.00022487 -0.00094719
C 2.41096804 10.72501132 2.58703117 0.00577322 0.00323049 -0.00686163
C 6.70436146 8.77451099 10.60420614 -0.00218543 0.00416484 0.00126683
C 2.39109598 10.66092058 10.74339972 0.00010910 -0.00170810 -0.00016176
C 6.47206036 8.63788876 2.59017704 -0.00189515 0.00163304 0.00163917
C 6.41051377 2.09463167 13.79364824 0.00609201 -0.00361921 0.00177096
C 2.13118501 4.00299885 5.89181147 0.00012285 -0.00497392 0.00220949
C 6.08480401 2.71962977 4.56907154 0.00002350 0.00500765 -0.00364650
C 2.53535182 3.47385919 12.68353444 -0.00225271 -0.00247167 -0.00502478
C 2.19927649 10.28473746 3.90526721 0.00034284 -0.00450637 -0.00052962
C 7.07015720 9.22778009 11.88092576 0.00283876 -0.00436060 -0.00100346
C 2.57217924 10.15305368 12.00326454 0.00745318 -0.00335765 -0.00378620
C 6.21270666 8.98336559 3.86414645 -0.00438476 0.00171256 -0.00772921
C 6.65672235 2.44286780 12.44494623 -0.00212506 -0.00267229 -0.00393349
C 1.86557094 3.39776384 4.60231600 0.00189233 -0.00201775 -0.00048642
C 6.48217968 2.21166166 3.38849811 0.00502007 -0.00101431 0.00480128
C 2.28977693 4.27402871 11.55738680 0.00355711 0.00026510 0.00159620
C 2.64821664 11.05695468 4.98652369 0.00263035 0.00012217 0.00069901
C 6.42547024 8.71638083 12.98641815 -0.00261859 -0.00213502 -0.00328245
C 2.04785567 10.77989672 13.12687153 -0.00027717 -0.00195221 0.00103144
C 6.70292506 8.26457934 4.96091228 -0.00242962 -0.00205988 -0.00675382
C 6.27385603 1.68202164 11.42927630 0.00842299 -0.00434865 -0.00102586
C 2.25543173 4.07233214 3.45835010 0.00151473 -0.00262219 -0.00176066
C 7.19714849 1.01677747 3.34844960 -0.00474619 0.00359666 0.00258262
C 1.61417268 5.46736596 11.76725528 0.00039910 0.00659296 -0.00541377
C 3.25753494 12.25891416 4.80560393 -0.00119440 0.00112356 0.00261693
C 5.70595272 7.53180120 12.96660992 -0.00075437 -0.00233286 -0.00154966
C 1.27625973 11.93405165 12.98002079 0.00390186 0.00250943 0.00444345
C 7.42352702 7.07614929 4.76942327 -0.00056617 0.00600694 0.00282806
C 5.59145401 0.47524730 11.65116037 -0.00104933 0.00498029 0.00009820
C 3.01301551 5.25835918 3.62094311 0.00292514 -0.00299433 -0.00382060
C 6.57417179 0.44774819 1.02723416 -0.00292142 0.00566400 -0.00796773
C 1.79606333 6.19214830 9.49053967 -0.00105787 0.00185059 0.00527899
C 3.13810545 12.98208191 7.06289642 0.00080188 0.00007478 -0.00220643
C 5.93696943 6.83277922 15.29172274 0.00670409 0.00029935 0.01185521
C 1.48670066 12.43456978 15.32550764 -0.00842323 -0.00277103 0.00866353
C 7.23004446 6.39485380 7.04037085 0.00463616 -0.00124185 -0.00148712
C 5.72702896 25.69846351 9.31635209 -0.00032386 0.00292706 -0.00413923
C 2.78757174 6.08996117 1.34318764 -0.00719981 -0.00142741 -0.00048309
C 7.26153247 11.82246701 17.09741704 -0.00247048 0.00078972 0.00653143
C 1.61876735 7.44877611 8.68513944 -0.00244322 -0.00164020 0.00191119
C 2.80151934 0.87792184 8.02942083 0.00344558 -0.00477554 -0.00413080
C 5.79643234 5.31911454 32.78457156 0.00560556 -0.00124981 0.00415540
C 1.67452257 1.04932814 32.51378288 0.00093759 -0.00111092 -0.01006841
C 7.36534001 5.28421677 7.98993757 0.00593286 0.00167979 -0.00442492
C 5.70524694 11.97433713 8.78783206 0.00084479 0.00004815 0.00217386
C 2.64520420 7.19650497 16.92203137 -0.00063178 0.00218159 0.00189573
C 7.57700635 0.32823655 21.03174789 0.00168470 0.00036370 -0.00334223
C 1.15830911 6.41043543 29.60665820 -0.00203556 -0.00135955 0.00129323
C 3.38484871 12.58993037 19.97969530 -0.00461716 -0.00099917 -0.00144503
C 5.21027946 6.95729680 28.33318963 0.00894453 0.00138492 -0.00134540
C 0.85994960 12.70064733 28.38138402 0.00031716 0.00060830 -0.00137744
C 7.28685847 6.69318096 20.12178553 -0.00563833 -0.00686086 -0.00118182
C 5.14327641 0.40155307 29.34704694 0.00456055 0.00223259 -0.00368593
C 3.38504854 5.89295097 21.55949570 -0.00793794 0.00379686 0.00217482
C 7.37101701 1.13581639 22.10244896 -0.00107869 0.00682001 -0.00399988
C 1.48206186 5.70276489 30.69141192 -0.00478697 0.00172379 -0.00236260
C 2.88915920 11.98842417 18.85549568 0.00509845 -0.00792756 -0.00435667
C 5.56229342 7.64984515 27.22772638 -0.00418691 0.00406945 -0.00315938
C 1.02453396 12.02502031 27.19540023 -0.00329598 -0.00446855 -0.00955072
C 6.97744892 7.38306174 18.99879489 0.00404169 -0.00165289 0.00960838
C 5.49759882 1.09310373 30.52315299 0.00258055 0.00089998 0.00321366
C 3.03586972 5.10734725 22.62973693 0.00303708 0.00189576 0.00098154
C 6.55848409 2.23816170 21.96823528 0.00688729 -0.00021943 0.00501422
C 2.25658225 4.51709943 30.65775636 0.00038132 -0.00537211 0.00319884
C 2.19081687 10.76752971 18.95288795 0.00201735 -0.00140392 0.00882311
C 6.52052685 8.69577157 27.31968023 -0.00263851 0.00875579 -0.00149015
C 1.81357850 10.85186138 27.17014089 -0.00042070 -0.00108912 0.00006751
C 6.23521156 8.60304353 19.07274343 0.00090448 -0.00152352 -0.00746611
C 6.36479103 2.17121750 30.56488287 0.01209950 -0.00314317 -0.00486091
C 2.05769784 4.06832608 22.53971779 -0.00176735 -0.00433178 -0.00157419
C 6.09274005 2.62314449 20.74439586 -0.00103617 -0.00042256 -0.00469692
C 2.53263484 4.02241739 29.38811017 -0.00420151 -0.00257347 0.00100547
C 1.91332360 10.25839013 20.18488042 0.00626339 -0.00681965 0.00372085
C 6.84079048 9.18323291 28.57541391 -0.00733382 0.00140229 -0.00113748
C 2.40150761 10.39700787 28.33469096 -0.00206228 -0.00145150 -0.00132630
C 6.10369032 9.21239309 20.29110244 0.00423958 0.00479119 -0.00342316
C 6.80691600 2.64327808 29.25353244 -0.00205422 0.00566250 0.00074671
C 1.83554632 3.63978582 21.21664907 0.00595974 -0.00303500 -0.00672886
C 6.32130330 1.89621452 19.57169152 0.00242981 0.00817978 -0.00140192
C 2.22633191 4.68945073 28.19588495 0.00258039 -0.00065651 0.00202430
C 2.21459662 10.95606533 21.35386965 -0.00170256 -0.00290768 -0.00454315
C 6.41007403 8.59314874 29.71212155 -0.00765771 0.00631942 -0.00266123
C 2.13212967 11.00018122 29.58945118 -0.00364284 0.00016328 0.00175327
C 6.62204671 8.64308447 21.43153712 0.00580931 0.00237306 0.00105646
C 6.44666901 2.04476787 28.08035457 0.00604787 -0.00392744 0.00433264
C 2.26570512 4.31333205 20.11629266 -0.00214072 0.00026769 -0.00059172
C 7.07116064 0.69614306 19.75330276 0.00396924 -0.00414992 -0.00372992
C 1.49810642 5.91107309 28.31160355 -0.00388548 -0.00083498 -0.00015079
C 2.96916555 12.13471973 21.25006604 -0.01309716 0.00535628 -0.00016208
C 5.63573964 7.36917630 29.64350631 -0.00470152 -0.00029498 -0.00145409
C 1.43263698 12.20315564 29.59990274 -0.00188800 0.00782475 0.00050950
C 7.03645777 7.27041687 21.41186240 0.00613963 -0.00438490 0.00967554
C 5.67129293 0.85359562 28.13523397 -0.00383249 0.00126597 -0.00304024
C 2.98300417 5.49800590 20.22827863 -0.00020736 -0.00150587 0.00925356
C 7.06269189 0.12834779 17.38283423 -0.00118144 0.00520529 0.00015880
C 1.47032363 6.43035943 26.02415965 -0.00551381 0.00212265 0.00586224
C 2.77780139 12.75847539 23.63988812 -0.00030403 0.00819921 0.00101391
C 5.85415435 6.58184966 31.98358576 0.00155911 0.00290180 -0.00257060
C 1.75806682 12.64234571 31.94426810 -0.00099232 -0.00343778 0.00527360
C 7.10392922 6.76677128 23.75402304 0.00078027 0.00704235 -0.00285181
C 5.93584808 0.27471387 25.73106865 -0.00614210 0.00071424 0.00126577
C 2.79351582 6.08789068 17.84822797 0.00262928 -0.01167672 0.00440736
C 7.15094414 11.96388202 0.71952997 -0.00223176 0.00163952 -0.00240585
C 1.18227445 7.43172619 24.97526569 0.00562526 -0.00281807 -0.00292749
C 2.94083388 0.99974857 24.06721995 -0.00633848 0.00684122 0.00133314
C 5.84410707 5.51025825 16.01110483 0.00501665 0.00769307 0.00232465
C 1.43119934 0.91107482 16.36364460 0.00079688 0.01182296 0.01008097
C 7.19835142 5.51529915 24.62400247 0.00185970 0.00692042 0.00121172
C 5.76411121 11.79146249 25.07180692 -0.00548744 -0.00362002 0.00262169