1920
Time=29000.00000000 pbc="T T T" Lattice="25.53064205 0.00000000 0.00000000 0.00000000 25.48795595 0.00000000 0.00000000 0.00000000 32.96520782" energy=-12253.13216674 virial="-37.66675391 11.07605749 -25.44497517 11.07605749 -2.55261156 -19.72806059 -25.44497517 -19.72806059 -22.41738317" stress="0.00033716 0.00051514 -0.00117662 0.00051514 0.00207476 -0.00100113 -0.00117662 -0.00100113 0.00121480" Properties=species:S:1:pos:R:3:vel:R:3
O 6.06056805 2.54473588 6.97220411 0.00401967 0.00027176 0.00183055
O 2.39981833 3.95522687 14.70640022 0.00100272 -0.00289478 0.00441887
O 1.77498651 10.38563818 1.08240861 0.00134464 -0.00540667 0.00286061
O 7.40751063 9.16014561 9.21309545 -0.00090745 0.00393852 0.00024978
O 2.03241459 9.62192331 9.37324458 0.00025740 -0.00137789 0.00041532
O 5.48848643 9.07387245 1.31378313 -0.00808760 0.00372824 -0.00157548
O 7.13586925 3.05856220 14.67288213 0.00399754 -0.00199887 -0.00217580
O 1.97891209 3.22284625 6.31723966 0.00710721 -0.00214004 -0.00243145
O 6.54664915 1.66103685 17.08415911 0.00057049 -0.00649779 0.00279219
O 1.39117130 4.86914484 8.32754559 -0.00389487 0.00306859 -0.00390158
O 1.94630464 11.40037404 7.50734931 -0.00308938 0.00948267 -0.00182190
O 5.82916137 7.69850794 32.04686425 -0.00632623 -0.00053704 -0.00543013
O 2.33516720 11.89051729 31.90323739 -0.00802242 0.00102549 -0.00177565
O 6.29568477 7.59544632 7.46435275 -0.00288769 0.00134541 -0.00709157
O 6.64376582 0.80339125 8.93731264 -0.00061646 -0.00026858 0.00089672
O 1.62701035 5.42034985 16.68686942 0.00792584 0.00727141 -0.00530764
O 5.51290999 2.71931354 23.20888820 0.00467018 -0.00279575 0.00489899
O 2.34389100 3.67483123 30.86431052 0.00300327 0.01258151 0.00835679
O 1.74108250 9.69576295 17.66729118 0.00468888 -0.00281887 0.00358209
O 6.66897609 8.97132046 25.89790110 -0.00279981 0.00136166 -0.00191091
O 2.43794961 9.38235693 26.01845049 0.00130387 0.00155002 0.00161811
O 5.55889747 8.98236758 17.47608907 0.00476686 -0.00519625 0.00847127
O 6.99559387 2.54040461 31.81948221 0.00327268 -0.00270025 0.00535078
O 1.88195323 3.44483524 22.60164302 0.00008401 0.00139666 0.00065835
O 5.96516862 1.15883853 0.75091923 0.00903789 0.00079659 0.00018731
O 2.17719472 4.98977838 24.69689397 0.00129861 -0.00399400 -0.00070290
O 2.59423638 10.99108289 23.85891371 -0.00145465 -0.00220141 0.00036981
O 6.30980138 7.62302062 15.33803045 0.00366343 0.00052513 0.00182736
O 2.22519032 11.52668766 15.57347452 0.00181998 -0.00237434 0.00255258
O 6.40338228 7.98369653 23.63183667 0.00257230 -0.00131939 -0.00194128
O 6.15327232 1.49838153 25.50277283 -0.00189154 0.00340519 -0.00556001
O 2.42876828 5.10316707 0.13397731 0.00008007 -0.00141168 -0.00203887
O 6.21293626 15.80829962 7.03299844 0.00081455 -0.00198700 -0.00088874
O 2.80125822 16.74892022 15.62838059 -0.00248366 -0.00268160 -0.00530357
O 1.82051646 22.69915782 0.91623459 -0.00025681 -0.00179345 -0.00114837
O 6.74619561 22.13731222 10.02170149 0.00023798 -0.00651616 0.00380315
O 2.69825000 22.65535404 9.51157735 -0.00536569 -0.00287594 0.00403339
O 5.92614168 22.00895199 1.57179324 -0.00606280 0.00217253 -0.00270274
O 6.77676330 15.38554035 15.53713084 -0.00324697 -0.00688826 0.00600437
O 1.77351405 16.51916788 7.23274948 -0.00584675 0.00008484 0.00101519
O 6.15455658 13.72382045 17.58162357 -0.00087876 -0.00345404 -0.00117874
O 2.28533915 17.78690162 9.43399174 -0.00556686 0.00186849 -0.00078822
O 2.12289048 23.97511373 7.20839924 -0.00403810 0.00591540 -0.00762159
O 6.81278562 20.23014590 32.31482951 -0.00448846 0.00043329 -0.00278121
O 2.07477599 24.48826565 32.02761745 0.00615507 0.00354319 0.00021930
O 6.64577849 20.67083289 7.93610547 0.00086052 -0.00866278 0.01227988
O 6.05488072 14.06746273 9.16907852 -0.00120197 -0.00671924 0.00342304
O 2.20868104 17.99041214 17.69676642 -0.00620893 -0.00721837 -0.00102865
O 6.20116377 15.31853471 23.81877977 -0.00620150 -0.00096908 -0.00223883
O 2.38205110 16.43028397 31.98783904 -0.00379235 0.00192868 -0.00081150
O 1.80289204 22.77107128 17.68095051 -0.00242827 -0.00002512 -0.00008584
O 6.62526075 22.33911835 26.32940402 0.00247591 -0.00834555 0.00504978
O 2.44598063 22.83775210 25.96304504 0.00024458 -0.00334484 -0.00177522
O 5.44355215 21.79409565 18.37638487 -0.00319168 0.00478103 -0.00296433
O 6.89661963 15.20316389 32.06261351 -0.00477585 -0.00490410 0.00817038
O 2.14609606 16.27998048 23.73268044 0.00020235 0.00016921 -0.00418030
O 6.29347276 13.76773703 1.02612643 0.00190626 -0.00567447 0.00334554
O 2.25615414 17.67052062 25.64891145 0.00278505 -0.00097521 0.00244866
O 2.45622355 24.22659826 23.82991654 0.00057358 0.00671022 0.00573118
O 6.26097803 20.51471347 16.12812263 0.00047747 -0.00033307 0.00148864
O 2.18710734 24.39157876 15.65823546 -0.00050238 -0.00197422 -0.00259704
O 6.74013196 20.54011740 24.52308879 -0.00270548 -0.00399490 -0.00509265
O 6.41933289 13.97630978 25.91242702 -0.00179839 -0.00144947 -0.00330380
O 1.90140500 18.07367060 1.04324565 -0.00174864 0.01282430 -0.00228572
O 14.05039030 2.51728660 6.61277478 0.00232603 0.00408214 -0.00377445
O 11.26070962 3.69445650 15.00524509 -0.00205305 0.00094402 0.00078897
O 9.94126259 9.71820173 1.64929157 -0.00505724 -0.00674453 -0.00165950
O 15.56438997 8.62025720 9.20600733 -0.00510895 0.00177692 0.00270290
O 11.29986221 9.71579281 9.59589192 0.00154509 0.00036984 -0.00628104
O 13.99039301 8.94350446 1.50390516 -0.00047691 -0.00145774 -0.00047514
O 15.07785680 2.51119456 15.14234683 -0.00215942 -0.00182851 0.00268457
O 10.17830805 3.61365909 6.81841746 0.00686062 -0.00605252 -0.01089677
O 14.70932506 1.10479438 17.32932750 -0.00471508 -0.00420639 -0.00126235
O 10.78940366 5.00642124 8.80526989 0.00366412 -0.01352315 0.00742671
O 10.87827574 11.41831134 7.56238967 -0.00253312 -0.00098928 -0.00076791
O 14.70264872 7.61957885 32.31589175 -0.00099235 0.00140914 0.00120340
O 10.35480927 11.31434319 32.56392724 0.00222700 -0.00380071 0.00195131
O 15.00481585 7.13341649 7.28268797 -0.00206890 0.00744860 -0.00211703
O 14.54558458 1.26014062 8.92264280 0.00365776 0.00388647 0.00017621
O 11.31329633 5.10350753 17.18890551 -0.00482628 -0.00269618 0.00328882
O 14.18722270 2.67221681 23.44484574 0.00522214 -0.00478938 -0.00209047
O 10.83546000 3.78414729 31.80486433 -0.00283878 -0.00031135 -0.00138463
O 10.39814099 9.88902393 17.95607884 0.00267104 -0.00081181 -0.00053837
O 15.81096449 8.88751427 26.16233364 -0.00147412 -0.00059035 0.00395525
O 11.04692146 9.85960259 26.22136537 -0.00229207 -0.00200624 0.00366210
O 14.69644344 9.23876854 17.53846248 0.00155297 0.00422222 -0.00540803
O 15.21953313 3.14083639 31.49602109 -0.00744332 -0.00394001 -0.00294081
O 9.71695956 3.82604176 23.13982488 -0.00059962 -0.01094694 0.00310122
O 15.21360619 1.45140799 0.45214786 -0.00094881 0.00120145 -0.00534936
O 10.38345550 4.88887641 25.42917060 0.00403989 0.00134855 -0.00044438
O 10.97694300 11.50881639 24.08633646 0.00373003 0.00448564 0.00009169
O 14.85030918 7.61289438 15.49982327 -0.00805548 0.00218059 0.00231573
O 10.43262800 11.30952259 15.64370659 -0.00740574 -0.00085156 0.00782037
O 15.13494394 7.73918050 23.82164936 -0.00471586 -0.00259665 -0.00722079
O 15.19407267 1.16245964 25.41335294 0.00027854 0.00368166 -0.00041691
O 9.97320434 5.28476098 0.66372195 -0.00075780 -0.00434683 -0.00740047
O 14.38395865 15.55324614 7.15449555 0.01090688 0.00137737 -0.00594859
O 10.67420868 16.57701909 15.80024069 -0.00723758 -0.00011104 -0.00197371
O 9.90351730 22.95913651 1.20360850 -0.00125683 -0.00357527 -0.00469404
O 15.20390759 21.89984099 9.92006572 -0.00013585 -0.00112098 -0.00561889
O 11.16961760 22.80264956 9.01505200 0.00770101 0.00379534 0.00064151
O 14.33891025 22.10656194 1.52622082 -0.00079960 0.00055235 0.00126273
O 15.02494716 15.64343626 15.29802471 0.00592182 0.00283536 -0.00293047
O 9.96689050 16.75616447 7.71245869 0.00013159 0.00331776 -0.00377168
O 15.34048858 14.42969103 17.48652971 -0.00103043 -0.00092127 0.00429421
O 10.80012490 18.13874408 9.73373084 0.00351091 0.00107551 0.00187138
O 10.30335026 24.48679087 7.12204155 -0.00074724 0.00023305 0.00016935
O 14.70845167 20.41339475 32.61539437 -0.00378293 0.00862622 0.00302090
O 10.70453298 24.34005902 32.14785568 -0.00272868 -0.00409521 -0.00365182
O 15.36001438 20.42915736 7.72389824 0.00072411 0.00748304 -0.00197835
O 14.95154123 13.89700071 9.11674926 0.00227755 0.00160866 0.00622047
O 10.11633456 18.10745450 17.82264999 0.01124224 0.00502176 -0.00324285
O 14.28174448 15.25767446 23.75936796 0.00350564 -0.00051322 0.00481215
O 10.89366673 16.50820368 32.15613269 -0.00547397 -0.00146059 -0.00067186
O 9.82118986 22.88544311 17.60762912 -0.00238179 -0.00337590 0.00498011
O 15.22388940 22.14928594 26.53005489 0.00051587 0.00094963 -0.00221087
O 11.48647688 23.21394738 26.10564490 -0.00204805 -0.00201997 -0.00464192
O 14.75285232 21.85684386 18.30222529 -0.00373836 -0.00536355 -0.00033701
O 15.02829732 15.69135295 31.80286483 0.00026447 0.00151229 0.00210764
O 9.81123324 16.48955320 23.82469412 0.00111507 0.00514798 0.00094743
O 15.37344216 13.92896503 0.80826450 0.00454925 -0.00103162 0.00483778
O 10.42270009 17.90537826 25.79430845 0.00524289 0.00450431 -0.00828117
O 10.40679776 24.20516212 23.85683559 0.00178305 0.00170105 -0.00042491
O 14.59182138 20.29009646 16.13514205 0.00017928 -0.00458974 -0.00084715
O 10.68667565 24.04908282 15.44807394 0.00630407 -0.00249880 0.00032500
O 15.33600476 20.25884620 24.64336815 0.00316359 0.00226807 -0.00250034
O 15.29490160 13.72969657 25.56422842 -0.00712228 -0.00028750 0.00062842
O 10.40936585 17.93388999 1.43136323 0.00070303 0.00379798 0.00196798
O 22.73338959 2.30345091 6.83104323 -0.00310527 0.00082071 0.00010185
O 19.41807920 3.56405976 14.80019577 0.00123675 -0.00212319 0.00417689
O 18.81959099 10.20535991 1.30069180 0.00399323 -0.00528427 0.00227914
O 23.58782910 8.71871438 8.99355574 -0.00544005 0.00052858 -0.00135597
O 19.70963126 9.68923416 9.55207851 0.00141797 -0.00699236 0.00649110
O 22.70106378 9.03430566 0.83174446 -0.00015403 -0.00778145 0.00386262
O 24.00516466 2.45746589 15.03327266 -0.00175288 0.00308386 0.00220000
O 18.66243346 3.57681564 6.48458613 0.00340342 0.00575199 -0.00152432
O 22.94779164 0.80374345 17.06994655 -0.00071482 -0.00034843 -0.00414557
O 19.20523805 5.04218477 8.60660548 0.00246582 -0.00177993 0.00230829
O 19.31196013 11.35155514 7.57234963 -0.00424600 0.00124140 0.00096947
O 23.37945362 7.68543500 31.73477413 -0.00226678 -0.00170996 -0.00386339
O 19.30217203 11.80460487 32.25071337 0.00601961 0.00090661 -0.00396099
O 22.90898768 7.28210837 6.90542537 -0.00340998 0.00009779 0.00302134
O 23.28585437 1.06412372 8.86365050 0.00321708 -0.00501730 -0.00316422
O 18.94801867 5.07130164 17.04352164 0.00072130 0.00230401 0.00307067
O 22.83854769 2.47159352 23.29512230 -0.00499816 0.00410062 0.00106593
O 19.43848594 3.56396078 31.26749090 0.00132207 0.00223128 -0.00548678
O 18.87850686 10.15381672 17.89127684 0.00112082 -0.00173659 0.00070324
O 24.13784274 8.81073897 25.35965807 -0.00122931 -0.00139135 0.00058559
O 19.86277036 9.78142619 26.14374592 -0.00258829 -0.00040291 0.00000709
O 22.64084867 9.21266458 17.16867252 -0.00384242 0.00383853 0.00008079
O 23.72034086 2.79123995 31.37192118 -0.00176571 0.00363011 -0.00096462
O 18.63302359 3.57357748 23.12380603 -0.00285057 0.00103606 0.00554844
O 23.44683567 1.26374020 0.40315678 -0.00245560 0.00047052 0.00161965
O 19.41122465 5.18489414 25.24906402 0.00429714 -0.00333882 -0.00009990
O 19.63775831 11.37176602 24.13355830 -0.00499170 -0.00452200 -0.00221215
O 22.70163991 7.45894158 15.28126691 0.00252059 0.00279918 -0.00291899
O 19.50645955 11.57620800 15.72890420 -0.00067633 0.00350067 0.00901786
O 23.20211902 7.43487107 23.26378721 -0.00078114 0.00348890 0.00777947
O 23.48370745 1.16529841 25.51727895 -0.00481349 0.00235438 -0.00229702
O 19.08554552 5.14696821 0.21937764 -0.00503023 -0.00060674 -0.00477962
O 22.54645773 15.39490389 7.14759778 0.00304293 -0.00073890 -0.00552474
O 19.71953020 17.03990644 15.62516311 -0.00265197 -0.00348546 -0.00132190
O 18.72416803 22.93977181 1.30528944 0.00557005 0.00302306 0.00141148
O 23.68019141 21.46174616 9.82608074 0.00709662 0.00245688 -0.00348324
O 19.78512005 22.80620713 9.47665846 0.00176687 0.00850673 0.00228406
O 23.35081848 21.88039993 1.51021020 0.00072667 0.00270394 -0.00112628
O 24.10030032 16.04008006 15.43108414 -0.00071479 0.00026959 0.00059345
O 18.53224262 16.43479596 7.17048607 -0.00043167 -0.00374232 -0.00123466
O 24.27772271 14.30273308 17.49653593 -0.00380678 0.00261490 -0.00036748
O 19.35173046 17.74700177 9.33719750 0.00189536 -0.00086930 0.00007342
O 19.13883555 24.16000557 7.50193934 -0.00440739 -0.00510528 -0.00364525
O 23.38056100 20.67927632 32.25742376 -0.00529724 0.00194363 0.00737599
O 19.04615587 24.37755309 32.12732160 -0.00999848 0.00044221 -0.00463928
O 23.53538663 20.12056661 7.65125977 -0.00398599 0.00131254 -0.00268649
O 23.22864503 14.13251548 9.31208008 0.00332345 -0.00095261 -0.00176226
O 18.81560684 17.96454130 17.79166527 -0.00264134 -0.00674592 0.00188574
O 22.76592406 15.36839202 23.71956217 -0.00549517 0.00607006 -0.00382862
O 19.80159073 16.50650081 31.93884857 -0.00016817 -0.00055996 0.00901219
O 18.30352408 22.89712679 17.69343122 0.00401690 0.00133324 0.00271549
O 23.80076691 21.84661690 26.13588071 -0.00127003 -0.00058390 -0.00135767
O 19.76303691 23.01994655 25.92065485 -0.00547224 0.00124628 -0.00678424
O 23.00254285 22.08696089 18.10489398 0.00278095 0.00130116 -0.00451405
O 24.14105524 15.47957495 31.81638461 -0.00061798 0.00474338 0.00618880
O 18.95366499 16.13208098 23.80208497 -0.00013709 -0.00355883 -0.00638747
O 23.56090243 14.13938610 1.15221558 -0.01575416 -0.00470921 -0.00414486
O 19.20632385 17.86718242 25.74751745 0.00294716 -0.00461420 0.00233820
O 18.81061283 24.14570427 23.88375689 -0.00083437 0.00064071 0.00211615
O 23.24447482 20.64897504 16.13246241 0.00362898 0.00104498 -0.00333484
O 18.81601137 24.32183423 15.64087617 -0.00119561 0.00509647 0.00186623
O 23.38720341 20.29726334 24.20771537 0.00535206 -0.00526075 0.00554072
O 23.69929941 13.90183629 25.69905797 0.00513994 -0.00202052 -0.00396641
O 19.33705327 18.05186700 1.03696316 0.00091872 0.00231090 0.00435598
N 7.46592698 12.66566224 2.70950954 0.00213514 -0.00105818 -0.00273385
N 0.96458774 6.41266023 9.96760334 0.00287833 -0.00103519 -0.00547498
N 3.21903034 25.24203327 5.71807711 0.00058111 0.00044080 0.00490606
N 5.20726630 6.49746326 13.58259713 0.00037850 -0.00098273 -0.00634956
N 1.07994452 25.43058377 14.01679603 -0.00527941 -0.00195888 0.01235394
N 7.12418007 6.35798209 5.79643945 -0.00087352 -0.00366493 -0.00164180
N 5.32940960 12.76335686 10.84063948 0.00194935 -0.00003601 0.00133844
N 2.81416889 6.41787607 1.96959317 0.00001000 -0.00641729 -0.00451049
N 7.75049011 12.95910137 19.07192725 0.00449082 0.00197507 -0.00539662
N 1.08460743 6.30335960 26.27185236 -0.00565617 -0.00321892 0.00224420
N 3.23150116 0.02439949 22.17488322 0.00663006 -0.00446415 0.00180602
N 4.93412296 6.29398190 30.36823714 -0.00290795 0.00470070 -0.00453475
N 1.24648486 0.33518374 30.38620955 0.00033531 -0.00398551 0.00262837
N 7.43021445 6.65479665 22.08758038 -0.00210151 -0.00347149 -0.00576413
N 5.33287866 12.71483370 27.39823644 0.00186815 0.00708171 0.00288343
N 3.22549238 6.32192146 18.06801526 -0.00013713 -0.00855049 -0.00352506
N 7.19982802 25.43421526 2.17461022 0.00092027 0.00041297 0.00399091
N 0.98217363 18.98225222 10.90297456 0.00146899 -0.00070709 0.00440571
N 3.37588839 12.33169460 6.07879566 0.00260982 -0.00147787 0.00095165
N 5.24925005 19.30435216 14.47709402 -0.00113599 0.00194412 0.00384569
N 1.03585378 12.67006251 13.96462642 -0.00218494 -0.00395113 0.00045515
N 7.51766424 19.35190445 6.21995604 0.00085132 -0.00159193 0.00939657
N 5.23331669 25.38457902 10.53737630 -0.00367539 -0.00430605 -0.00084347
N 3.41851407 19.02591456 2.59549538 0.00088047 0.00217674 0.01374978
N 7.46558221 0.37349162 18.70226289 0.00699653 0.00096619 0.00410363
N 1.19214614 18.93371875 27.17568274 -0.00044097 0.00183820 -0.00343886
N 3.41228813 12.38449930 22.29007649 -0.00506478 0.00037969 -0.00245386
N 5.43752084 19.23535256 30.69573319 0.00347886 0.00659373 -0.00071685
N 1.08877252 12.87962579 30.22325795 -0.00162155 0.00196244 -0.00042937
N 7.32679151 19.11008061 22.77441193 0.00199028 -0.00008809 -0.00219762
N 5.07172815 0.22980463 27.09553655 0.00812766 -0.00709404 0.00548558
N 3.07990337 19.37629111 19.24251330 0.00208895 -0.00216858 0.00913813
N 15.98344556 12.70412260 2.72454879 -0.00798937 -0.00047999 0.00196955
N 9.45319112 6.08202849 10.32782292 -0.00353647 -0.00484632 0.00156694
N 11.65835452 0.05582598 5.66669667 0.00354645 -0.00229908 -0.00108086
N 13.75439528 6.41218126 13.87833784 -0.00118949 -0.00083551 0.00675425
N 9.57997625 25.30299850 13.81866234 -0.00116077 0.00016330 -0.00516639
N 16.22231869 6.14293077 5.58144927 -0.00177690 -0.00047537 -0.00309387
N 14.02078950 12.61791859 10.85120315 0.00685934 0.00145162 -0.00300205
N 11.40710453 6.21858302 2.23152718 -0.00212143 -0.00370683 -0.00674400
N 16.32040730 13.01978527 19.04058273 0.00357700 0.00000062 -0.00059186
N 9.39484441 6.23147769 27.06596634 0.00240222 -0.00139672 -0.00528143
N 11.42558691 25.33354250 22.20488272 -0.00404982 0.00556962 -0.00506266
N 13.51461794 6.51532504 30.72365264 -0.00422356 0.00561604 0.00303737
N 9.50906441 0.06379538 30.73612807 -0.00182319 -0.00045183 -0.00024392
N 15.78894082 6.43819130 22.06414559 0.00493503 -0.00703422 -0.00016056
N 13.95723604 12.79530255 27.20486485 -0.00415473 0.00019188 0.00213609
N 11.96876624 6.44616142 18.86752536 -0.00029084 0.01005363 -0.00008662
N 16.17831596 0.14829406 2.12011571 0.00074052 0.00034675 -0.00425353
N 9.33111223 19.20994804 11.13790655 0.00301391 0.00542999 0.00041835
N 11.92509346 12.57534344 5.91209578 -0.00766032 0.00074428 -0.00310487
N 13.55748090 19.20278367 14.44296133 0.00523066 0.00116655 -0.00192188
N 9.48930753 12.60195494 14.10605673 0.00397071 0.00184607 -0.01065297
N 16.33788009 19.44425583 5.92548128 -0.00465452 -0.00104378 -0.00218919
N 13.83661948 25.16681291 10.49184668 0.00264742 0.00060991 0.00549499
N 11.77444767 18.96651761 2.94975091 0.01083702 0.00455117 -0.00481776
N 15.84941605 25.35141444 18.92112177 -0.00334285 -0.00191498 -0.01026375
N 9.71989062 19.29162358 27.48806520 -0.00115058 -0.00615764 -0.00122479
N 11.82840510 12.82492454 22.42447763 -0.00187833 0.00024618 -0.00045359
N 13.86538047 18.99158389 30.94344602 0.00501198 -0.00370734 0.00043350
N 9.83737310 12.72119552 30.82189237 0.00121175 0.00128787 0.00164004
N 16.04330571 18.91880390 22.89574245 0.00151993 0.00500170 -0.00025330
N 13.89963337 0.10879648 26.97265683 -0.00083215 0.00087501 0.00049807
N 11.85114809 18.84482182 19.23877394 0.00571826 -0.00410677 -0.00075614
N 24.62790407 12.90073255 2.72894391 -0.00312386 0.00185891 0.00449304
N 18.25283723 6.33795104 10.23125661 0.00097361 -0.00200081 0.00145228
N 20.27666923 25.28870240 5.95083946 -0.00248665 0.00224291 -0.00297854
N 22.09940449 6.12225746 13.64423787 -0.00160097 0.00147806 -0.00074997
N 18.07295357 0.09722554 13.88137253 -0.00346196 -0.00813682 0.01103920
N 24.47163633 6.44368277 5.36094330 0.00259030 -0.00031141 -0.00371181
N 22.12787876 13.03214996 11.06190262 0.00096044 0.00041016 -0.00684262
N 20.44818677 6.16949949 1.75964603 0.00374237 -0.00137185 0.00454080
N 24.69432018 12.78757823 19.18683519 -0.00023498 0.00534388 0.00197635
N 18.18344816 6.40962589 26.76055984 0.00226084 -0.00486349 -0.00597639
N 20.09644385 25.26783953 22.27556664 0.00046461 0.00261593 0.00354800
N 22.40601936 6.54236268 30.00697542 0.00094119 0.00680014 -0.00340795
N 17.91225406 25.38858062 30.44271667 -0.00657904 0.00366957 0.00014052
N 24.59436117 6.52131323 21.62481610 0.00098896 0.00124701 -0.00839052
N 22.29862079 12.95803949 27.29072095 0.00582920 0.00843046 0.00531293
N 19.96130331 6.36262065 18.64896604 -0.00531918 -0.00587521 -0.00093691
N 24.33446901 25.47244348 2.07685712 -0.00299287 0.00200986 0.00294720
N 18.13865396 18.98522307 10.78136300 -0.00293312 -0.00508541 -0.00332959
N 20.12468246 12.79902095 6.02975904 0.00095819 -0.00001528 0.00427460
N 22.26181355 19.18483873 14.66498293 -0.00244937 0.00499515 -0.00285740
N 18.23860025 12.39288311 14.08911373 -0.00277653 0.00321929 -0.00026054
N 24.62341211 18.87232147 6.05147057 0.00882052 0.00161875 -0.00469276
N 22.31480333 25.31863915 10.51900982 -0.00352042 -0.00859346 0.01031515
N 20.41421543 19.17388567 2.69889973 0.00849178 -0.00609921 -0.00120132
N 24.29230596 25.36229900 18.63854311 0.00294982 -0.00704407 -0.00174587
N 17.80564268 18.85668532 27.20111153 0.00640761 -0.01371849 0.00444499
N 20.24371755 12.93777792 22.58465656 0.00345110 0.00510601 -0.00392356
N 22.31672437 19.24684689 30.76352128 0.00312133 0.00175448 -0.00121899
N 18.13506280 12.67965220 30.52350347 0.01100746 0.00524642 -0.00495470
N 24.66291314 19.35577265 22.62434438 -0.00082996 -0.00041766 -0.00408241
N 22.22049700 25.40228334 26.96898255 -0.00098182 0.00056683 0.00328047
N 20.23186373 18.99065021 19.24485595 -0.00019508 0.00410587 0.00463954
C 7.46222356 0.19441215 4.54702276 -0.00125322 0.00120967 -0.00619729
C 0.75280735 6.12063768 12.28951082 -0.00408256 0.00052430 0.00087797
C 3.33286726 12.50020350 3.61460951 -0.01340503 0.00541134 0.00452926
C 5.11548678 7.05316207 11.19753387 -0.00565822 -0.00028766 -0.00301219
C 0.94522694 12.26152024 11.59533613 -0.00083683 -0.00822058 0.00049418
C 7.28564302 6.70830171 3.40322747 0.00200201 0.00560011 -0.00313903
C 5.13546997 0.55708619 12.83948513 0.00070098 0.00484164 -0.00663167
C 3.19058972 5.85898338 4.28542465 0.00078716 -0.00620484 0.00631787
C 7.17249201 0.80628352 5.69971045 -0.00160437 0.01132909 -0.01072973
C 0.98251597 5.43646972 13.48393608 0.00529349 0.00011791 0.00014819
C 2.99546595 11.99644371 2.36989601 -0.00060952 -0.00254515 -0.00277552
C 5.68266758 7.79986765 10.18207861 -0.00308606 0.00564044 0.00283285
C 1.22250067 11.56138637 10.42031927 -0.00375162 -0.00067420 0.00142279
C 6.98102475 7.50155614 2.28993575 0.00517589 -0.00254611 0.00835233
C 5.65321605 1.31702107 13.85658756 0.00369200 0.00641695 0.00360800
C 3.03020667 5.02109988 5.35004780 -0.00392728 0.00676504 0.00109942
C 6.43495255 1.97381379 5.81036764 0.00951351 -0.00488961 -0.00404253
C 1.94698928 4.44461907 13.48069939 -0.00741989 0.00025082 -0.00317966
C 2.22459217 10.78662287 2.28943688 -0.00895223 0.00576978 0.00102166
C 6.75447867 8.66641608 10.29032809 0.00600459 -0.00386579 0.00071426
C 1.84194534 10.33721728 10.46306536 0.00271878 -0.00306171 0.00788768
C 6.12858713 8.60176626 2.41208477 0.00058364 -0.00097097 -0.01225320
C 6.49024458 2.44570449 13.61264613 0.00375261 -0.00266624 -0.00052866
C 2.19205191 3.86887308 5.20368724 0.00183183 -0.00543653 0.01197376
C 6.10259035 2.56074563 4.57916781 -0.00009177 -0.00134993 -0.00242347
C 2.41183173 3.91912120 12.30777065 0.00211011 0.00009783 0.00451596
C 2.02746592 10.04655017 3.45745209 0.00907053 -0.00434689 -0.00609911
C 7.06836905 8.99551531 11.60569873 -0.00237376 0.00218902 0.00475597
C 2.21436282 9.87864363 11.74148078 -0.00499735 0.00722662 -0.00194683
C 5.86678899 9.05395067 3.70853104 0.00381956 0.00410573 0.00759850
C 6.71730059 2.84499077 12.29718535 -0.00167382 0.00819675 0.00298070
C 1.94202235 3.43150967 3.86831872 0.00262464 -0.00823594 -0.00962781
C 6.48564195 1.95476356 3.38768028 0.00005186 0.00863161 -0.00198561
C 1.86402406 4.38379273 11.08409685 0.00288408 -0.00997753 0.00261057
C 2.48660915 10.57786948 4.67528518 -0.00249811 0.00106036 0.00328975
C 6.48564032 8.39303298 12.63278569 -0.00221023 0.00338337 -0.00083173
C 2.00871883 10.62842259 12.87341702 0.00315852 -0.00640499 0.00786991
C 6.39389912 8.43629379 4.85058321 -0.00358788 -0.00074834 0.00157463
C 6.39776752 1.91891011 11.28657948 -0.00072518 0.00468996 -0.00276946
C 2.13743313 4.27449133 2.83115517 -0.00140390 0.00056628 0.00893462
C 6.98215594 0.68080287 3.31659618 -0.00096644 0.00171625 -0.00532744
C 1.16207168 5.60836224 11.07574525 0.00255976 -0.00450294 -0.00559793
C 3.11862064 11.79092220 4.82934305 -0.00222026 -0.00115375 0.00201669
C 5.62540829 7.23158728 12.48274014 0.01248869 -0.00417408 -0.01015172
C 1.27235520 11.85887381 12.86891251 0.00432121 0.00332158 -0.00085530
C 6.98659916 7.13589421 4.69276825 -0.00213738 -0.00485971 0.00512919
C 5.63456833 0.78971297 11.55399224 -0.00007108 -0.00198427 -0.00268042
C 2.74794061 5.53587612 2.99635477 0.00024136 0.00052292 -0.00213282
C 6.64256795 0.14196906 0.95646480 0.00496981 0.00244456 0.00705886
C 1.12704262 6.03212513 8.71865981 -0.00014053 0.00490958 0.00722678
C 2.63558760 12.38042090 7.15883532 0.00280072 -0.00507698 -0.00067033
C 5.74457858 6.60668707 14.86684680 0.00726759 -0.00114080 0.00143948
C 1.76001057 12.57599982 15.13186665 0.00134061 0.00583590 -0.00476382
C 6.72706282 6.52312362 7.08265316 0.00058898 0.00392946 0.00356698
C 5.88411951 25.38724332 9.33075291 0.00194569 0.00623651 -0.00007115
C 2.61057734 6.19106236 0.59795086 -0.00709333 -0.00315804 -0.00094928
C 7.16506902 11.55784774 17.06664317 0.00072708 0.00170357 0.00365510
C 1.01735350 7.24676799 7.82040055 0.00110803 0.00039391 0.01046846
C 2.46198883 0.73248200 7.72177795 -0.00262968 -0.00291416 0.00095728
C 5.67699962 5.37492664 32.56535441 -0.00770750 0.00413393 -0.00079007
C 1.33863293 1.17882608 32.52231889 0.00662446 0.00378185 0.00897846
C 6.93566740 5.31427287 7.96758040 -0.00157469 0.00866158 0.00498471
C 5.51923988 11.87038064 8.56042670 0.00768653 -0.00745818 0.00160241
C 2.69812800 7.34148118 15.95846290 -0.00506410 0.00352619 -0.00496107
C 7.52541073 0.71687832 21.02345834 -0.00102986 -0.00254279 0.00638578
C 1.02818911 6.19143506 28.63320809 -0.00174201 0.01168300 0.00423208
C 3.40468871 12.12671150 19.89133089 -0.00076646 0.00158644 -0.00230558
C 5.12788809 6.47981320 27.99244697 -0.00366338 -0.00062150 0.00374153
C 0.90556137 12.22398851 27.85083196 0.00131432 -0.00423659 0.00562534
C 7.53278549 6.85991835 19.64561087 0.00095810 0.00105118 0.00153891
C 4.97579966 0.51006746 29.48201410 0.00942430 -0.00413928 0.00706447
C 3.33918348 5.92078422 20.47674311 -0.00616298 -0.00183214 0.00320685
C 7.10634925 1.32244454 22.19807743 -0.00271782 -0.00290987 0.00159328
C 1.33149283 5.52954459 29.76415640 -0.00001539 -0.00611111 0.00069280
C 2.96450167 11.50269644 18.73210842 0.00196784 -0.00459353 0.00164397
C 5.43278668 7.27556594 26.93536149 0.00791296 0.00201253 -0.00334280
C 1.34717066 11.36582706 26.80417796 -0.00860822 -0.00686809 -0.00910076
C 7.10264308 7.52760275 18.54139958 -0.00089542 -0.00113509 0.00356962
C 5.32478334 1.27788783 30.61093264 0.00557285 0.00012517 0.00608299
C 3.14242417 5.16462187 21.58652515 0.00203791 0.00834678 0.00168760
C 6.18025541 2.36652924 22.07369776 0.00132414 0.00305803 0.00077451
C 1.99707953 4.27493525 29.73019267 0.00036594 -0.00466579 0.00149885
C 2.22971949 10.24277336 18.80281555 0.00289572 -0.00213592 -0.00035824
C 6.23060622 8.37445924 26.98642823 -0.00082437 -0.00666468 -0.00697010
C 2.12709658 10.23895800 27.08612967 0.00366298 -0.00154145 0.00516440
C 6.24417585 8.63460100 18.57631055 0.00397441 -0.00426760 0.00248400
C 6.38470034 2.16069730 30.64320539 -0.00264417 0.00083037 0.00331309
C 2.30512251 4.02694016 21.47520493 -0.00289757 -0.00457316 -0.00205862
C 5.82633606 2.93414589 20.82719295 0.00501025 0.00689525 0.00312910
C 2.35511270 3.71582710 28.47783586 -0.00603387 -0.00240768 0.00048222
C 2.04280051 9.76136449 20.07333590 0.00318544 -0.00567355 -0.00219375
C 6.62695412 8.82062213 28.27217907 0.00899040 0.00339313 -0.00504901
C 2.33280599 9.92236063 28.36937287 -0.00053152 0.00679298 -0.00118373
C 6.16374018 9.27548163 19.83306205 -0.00170519 -0.00198067 -0.00321089
C 6.81183525 2.66506278 29.37441497 0.00163285 0.00305498 0.00668109
C 1.85400840 3.61873117 20.24556646 -0.00457528 -0.00140841 -0.00103206
C 6.33635608 2.36171681 19.64558667 0.00108568 0.00611481 0.00653487
C 2.03486908 4.31575937 27.30422324 0.00569712 -0.00142649 0.00264610
C 2.35975286 10.46678981 21.20607964 0.00389806 0.00071309 0.00093465
C 6.07817729 8.20395849 29.37700723 -0.00482962 0.00132735 0.00000345
C 1.99913879 10.75503343 29.42080969 -0.00740451 0.00175213 -0.00160810
C 6.58790461 8.62935692 20.96211673 -0.01048466 0.00427096 0.00334401
C 6.29518271 2.06794101 28.23929558 0.00669179 -0.00385411 -0.00438467
C 2.19596728 4.35647563 19.18602200 -0.00232769 -0.00195399 -0.00910441
C 7.11320508 1.16438400 19.73696131 -0.00175815 -0.00197465 -0.00730185
C 1.40351253 5.60048997 27.40763233 -0.00177985 0.00232366 0.00154771
C 3.04617537 11.68849098 21.13824107 -0.00350426 0.00097695 -0.00236601
C 5.42600974 6.97427830 29.31326622 -0.00123383 0.00300668 -0.00002090
C 1.35728953 11.94182506 29.15680039 -0.00157563 0.00285781 0.00576795
C 7.18884883 7.35595644 20.93767613 -0.00023725 0.00314796 0.00619253
C 5.43118811 0.94399469 28.24654386 0.00236054 -0.00494834 -0.00287555
C 2.94708518 5.53350840 19.22226498 -0.00228314 0.00633303 -0.00306024
C 6.93192173 0.56532769 17.45973901 -0.00101067 0.00338192 -0.00676607
C 1.67672107 6.06265526 25.03640287 -0.00311091 0.00033767 -0.00451685
C 2.86449047 12.13189238 23.51276550 0.00582652 -0.00502020 0.00952171
C 5.48068678 6.57251413 31.64998673 0.00096216 0.00925655 0.00615977
C 1.58362154 12.73407418 31.48044894 0.00107123 -0.00357965 -0.00180083
C 6.61297322 6.87818430 23.16284749 -0.00570679 0.00098609 0.00292727
C 5.64216814 0.40379003 25.87437987 -0.00146737 0.00085425 0.00218784
C 2.47304445 6.27709661 16.94814512 -0.00357701 -0.00429403 0.00312406
C 7.11558271 11.60090645 0.54127425 0.00156818 0.00278109 0.00014800
C 1.68027926 7.21490251 24.09054896 0.00007910 -0.00621892 0.00437252
C 2.90565175 1.01232490 24.40913235 0.00104052 0.00239403 -0.00351459
C 5.69408472 5.29286584 15.66984874 -0.00279692 0.00493061 0.00038322
C 1.89574009 1.29981139 15.89776824 -0.00702801 0.00269778 -0.00246122
C 6.17994273 5.60302013 23.70658960 0.00151458 -0.00114411 -0.00045006
C 5.59435602 11.80198917 25.10321744 0.00884548 0.00100822 -0.01450183