1920
Time=72000.00000007 pbc="T T T" Lattice="25.58501182 0.00000000 0.00000000 0.00000000 25.75538258 0.00000000 0.00000000 0.00000000 32.90295211" energy=-12250.63452351 virial="-22.46050842 7.01479435 -9.98972455 7.01479435 -39.45844220 33.96183650 -9.98972455 33.96183650 -64.32785695" stress="0.00112532 0.00027409 -0.00046592 0.00027409 0.00031805 0.00154374 -0.00046592 0.00154374 -0.00088039" Properties=species:S:1:pos:R:3:vel:R:3
O 6.03968259 2.75628146 7.11491744 -0.00214643 -0.00381231 -0.00082313
O 2.59378874 3.78266158 15.56748519 -0.00414475 0.00352904 0.00303215
O 1.54127514 10.43244436 0.62253940 0.00443363 0.00416741 0.00742395
O 6.66090625 9.47096327 9.50449603 0.00617430 0.00148774 -0.00005394
O 2.46597429 10.05541413 9.15614091 0.00466576 0.00114987 0.00330428
O 5.73880305 9.52096885 1.62021238 0.00601157 0.00038764 0.00279615
O 7.31909402 2.41885986 15.58676014 -0.00327518 -0.00319720 -0.00359977
O 1.81958603 3.49216603 7.11691831 -0.00295786 -0.00285166 -0.00124382
O 6.26136063 1.13233946 17.48353881 0.00223927 0.00036753 0.00215428
O 1.76921098 4.95405869 9.14681072 0.00260447 0.00120329 0.00073192
O 1.90511675 11.61871354 7.13423943 0.00273428 0.00357924 0.00154838
O 5.86585665 8.05286393 32.39522535 -0.00204142 -0.00596324 -0.00358761
O 2.00967806 11.79353372 31.34944997 0.00897613 -0.00053944 0.00365856
O 6.49493874 7.75196587 7.67764208 -0.00324422 -0.00081480 -0.00208764
O 6.08576139 1.18876365 9.23827823 -0.00352574 0.00343508 -0.00164976
O 2.04572528 5.26532586 17.62480299 0.00652173 -0.00226332 0.00176745
O 5.57062385 2.80941383 23.70400283 -0.00107903 -0.00186240 0.00030010
O 2.27541208 3.82303021 32.13815769 -0.00405148 0.00078951 0.00387585
O 1.77736056 10.34109475 17.14403128 0.00015519 -0.00040517 0.00424746
O 6.66616266 9.53769929 26.14404897 -0.00259398 0.00111787 0.00037179
O 3.07420584 10.40216869 25.29837401 -0.00367230 0.00122229 0.00171623
O 6.02402216 8.91532892 17.59658055 0.00166969 0.00196699 -0.00168864
O 6.70499427 2.83136022 32.05582353 -0.00344988 0.00044398 -0.00486018
O 1.39941039 3.66465463 23.88533247 -0.00310761 -0.00729467 0.00135845
O 6.41784212 1.27079688 1.03227770 0.00489845 -0.00268547 0.00872416
O 1.97020672 5.06460603 25.99192159 -0.00133791 0.00120069 -0.00167322
O 2.24101605 11.82540753 23.30762652 0.00097245 -0.00263010 0.00202685
O 6.52700025 7.44212050 15.60167970 -0.00157702 -0.00035854 0.00792191
O 2.67995453 11.87572691 15.19867354 0.00058195 0.00206427 0.00026006
O 6.58470155 7.84848260 24.05737105 -0.00159440 -0.01352582 0.00461565
O 5.92004770 1.29884918 26.02738142 0.00190929 -0.00293102 -0.00367417
O 2.28600608 5.44640421 1.17964095 0.00994938 0.00417309 -0.00286528
O 5.62596483 15.90553133 6.42234864 -0.00726574 -0.00368867 -0.00399939
O 3.15285232 16.83555643 15.13482055 0.00260348 -0.00366197 -0.00110972
O 1.20241349 23.08556682 1.30283954 0.00182963 0.00041019 -0.00189336
O 7.55779337 21.83678836 9.52159683 -0.00440093 0.00464298 -0.00434940
O 2.72898523 23.09387082 9.43724212 -0.00179025 -0.00098798 0.00082994
O 5.89368349 22.18845559 1.28722627 0.00297490 0.00342768 0.00453274
O 7.09550444 15.78167029 14.60223188 0.00275467 0.00094010 -0.00097188
O 1.63354486 16.71205052 7.07348083 0.00458031 0.00798055 0.00543123
O 6.66494882 14.01840448 16.51477659 0.00452817 0.00524746 -0.00310483
O 2.50249396 18.14398277 9.20062217 -0.00140230 -0.00176982 -0.00214553
O 2.20552348 24.38778369 7.20488355 0.00430457 0.01153529 0.00238327
O 5.98825440 20.50646901 32.17052537 0.00028959 -0.00211182 0.00249522
O 1.92350095 24.42426630 32.20927337 -0.00271843 0.00087752 -0.00152464
O 6.73412046 20.43033254 7.41090823 0.00043257 -0.00105387 0.00863953
O 6.01621312 14.30979631 8.31194825 -0.00074242 -0.00569977 0.00220276
O 2.19459374 18.28676086 17.12494174 0.00810564 0.00184398 0.00294110
O 5.80574541 15.81110222 22.61309870 -0.00477175 -0.00203085 0.00095886
O 2.66601391 16.89153375 31.37732569 -0.00207801 -0.00104653 -0.00150854
O 1.51901087 23.10829899 17.97336483 -0.00404644 0.00145994 0.00542382
O 6.93068888 22.13099736 26.02175807 0.00149124 -0.00249607 0.00208539
O 2.67181108 23.09724252 26.20043970 -0.00161781 0.00318740 -0.00642998
O 5.69306121 21.69151914 17.80670174 0.00336304 -0.00492549 -0.00091900
O 6.84446312 15.90807934 30.90131618 -0.00367067 -0.00025732 -0.00386512
O 2.02230507 16.49234724 23.21767139 -0.00261947 -0.00115651 0.00524419
O 6.28628572 14.05963223 0.32972394 -0.00840015 -0.00447024 0.00355159
O 2.08766395 18.24439793 25.17417776 -0.00054198 0.00408228 0.00092987
O 2.06712858 24.61710345 24.13132599 -0.00204401 0.00571723 0.00120509
O 6.71838276 20.55335510 15.72562143 -0.00169470 0.00383386 -0.00332298
O 1.88975471 24.32214703 15.70415605 0.00103869 0.00181719 -0.00355156
O 6.65484667 20.51052139 23.95082047 0.00414644 0.00565975 -0.00094803
O 6.23230058 14.28181349 24.71547270 -0.00293358 0.00528260 0.00337456
O 1.92727930 17.95748738 0.65486695 -0.00382530 0.00243538 0.00921241
O 14.82693447 2.54712911 7.25826918 0.00361325 0.00185082 0.00217651
O 11.43338344 3.83377740 15.38971483 -0.00411721 0.00354811 0.00644364
O 10.14104432 10.08798961 0.95724918 0.00099826 -0.00084170 -0.00000121
O 14.86954552 9.32806579 9.51539730 0.00295847 -0.00273712 -0.00111471
O 11.04598419 10.30635379 8.95979392 0.00246797 -0.00273235 0.00458272
O 13.84269366 8.99293637 1.47799839 0.00587854 -0.00388992 -0.00112586
O 15.74977709 2.96196106 15.38208663 0.00628051 0.00125678 0.00148498
O 10.06973497 3.82908595 7.41606301 -0.00579765 0.00226636 -0.00202830
O 15.06191926 1.16363181 17.36787202 -0.00909713 0.00295323 -0.00162367
O 10.99954967 5.36329073 9.27039857 0.00064953 0.00371165 -0.00789595
O 10.33584457 11.91084418 7.15602585 0.00660905 0.00491098 -0.00274480
O 14.32637698 7.49750492 32.17217760 0.00020730 -0.00271320 0.00165560
O 10.39217085 11.63173321 31.70268212 0.00401965 0.00538962 -0.00452204
O 15.09836496 7.83483250 7.43915066 0.00159053 -0.00437646 0.00308644
O 15.66977783 1.03610888 9.42742579 0.00414271 -0.00011846 0.00270966
O 10.98615996 5.33779920 17.44702091 -0.00147643 0.00440747 0.00202593
O 14.26579491 2.88386245 23.58208490 -0.00198213 -0.00340688 0.00243168
O 10.80428105 3.74506789 31.95156204 0.00377704 0.00220605 -0.00427441
O 10.20402679 10.21243939 17.23657622 -0.00038204 0.00134148 -0.00374021
O 15.34990412 9.36411681 26.09860581 0.00210387 -0.00146868 0.00360124
O 10.74918951 10.12600062 25.33646405 -0.00659620 -0.00711514 -0.00414121
O 14.74723353 9.84792624 18.05469835 -0.00601998 0.00340634 0.00288280
O 15.58000180 2.65924676 31.82258776 -0.00145193 0.00065194 0.00826494
O 9.56137609 3.44184398 23.30408304 0.00156911 0.00170461 0.00154418
O 15.03499106 1.32892503 1.01003621 -0.00154310 -0.00600350 -0.00143099
O 9.86704872 4.87853612 25.48764960 -0.00328583 0.00372123 0.00291492
O 10.41604283 11.66878413 23.43154499 -0.00007764 0.00584550 0.00562967
O 15.10647914 8.28963013 15.91691242 0.00060352 -0.00055120 -0.00095422
O 11.05406131 11.48995037 15.17357298 0.00176003 -0.00164860 0.01214356
O 14.83100955 7.86904824 23.90504225 -0.00189504 0.00201483 0.00112872
O 14.58490910 1.40036313 25.74380395 -0.00166495 0.00924146 -0.00381965
O 10.09709407 5.21131057 1.19562230 -0.00047602 -0.00301516 0.00273854
O 14.36867827 15.79626722 6.56275118 0.00239677 0.00004007 -0.00264907
O 11.41958994 16.92684608 15.04187605 0.00160587 -0.00116449 -0.00089294
O 9.76630150 23.35003822 1.67820725 0.01038028 -0.00654819 0.00292506
O 15.84120642 21.87222994 9.66708337 0.00023998 -0.00030587 -0.00017566
O 11.63733169 22.77673837 9.80991168 -0.00390960 -0.00407123 -0.00106690
O 14.50176683 22.20703483 1.45696187 -0.00234812 0.00256677 0.00089054
O 15.30996635 15.79422593 14.80872993 -0.00080170 0.00074698 0.00021295
O 9.95263320 16.70533375 6.62825001 0.00193481 0.00210682 -0.00548951
O 15.54352788 14.15328318 16.79437338 -0.00190362 0.00279682 0.00048830
O 10.77756141 17.91737036 8.73862740 0.00949749 -0.00066448 -0.00063831
O 11.35786880 24.58045388 7.59469839 0.00064323 -0.00369448 -0.00203060
O 15.03003585 20.52041953 32.32278937 -0.00074640 -0.00109252 0.00042430
O 10.28915863 24.21059572 32.24262616 0.00371054 0.00171532 -0.00442897
O 14.95549437 20.50324270 7.72028651 -0.00193174 -0.00855309 -0.00397555
O 14.74262065 14.14163331 8.56026220 -0.00050756 -0.00510374 0.00575437
O 10.69315781 18.02549451 17.18374188 -0.00010952 0.00925294 0.00213376
O 14.72108151 15.86921320 22.95012301 0.00632699 -0.00669120 0.00040834
O 11.13103473 16.73238605 31.73349110 0.00090136 -0.00269174 -0.00044363
O 10.00242935 22.64292060 18.10870242 0.00391706 0.00217442 0.00624240
O 15.39015956 22.10021098 26.13784060 0.00091053 0.00232041 -0.00388013
O 10.95504772 22.67899897 26.13048821 0.00369839 -0.00646685 -0.00075874
O 14.92442209 21.79138240 17.78598206 0.01231483 -0.00302327 0.00694703
O 14.95899159 15.54785188 31.47008901 -0.00117567 0.00804119 -0.00463706
O 10.04595024 16.71219961 23.34868067 -0.00038696 0.00093884 0.00721360
O 14.65462130 13.67732805 0.56530356 0.00160933 0.00466934 -0.00010601
O 10.65533590 18.02474494 25.44184671 0.00133976 0.01231019 0.00642367
O 10.75168880 24.39449518 24.31558902 -0.00268115 0.00750694 -0.00493078
O 15.17527568 20.10361770 15.64793405 -0.00354730 0.00592782 0.00357459
O 10.43507948 24.23192394 16.05890159 0.00214004 -0.00748189 0.00025413
O 14.90561837 20.52443873 24.19324991 0.00051320 -0.00381767 0.00498174
O 15.25920108 14.01811908 25.26855232 -0.00300963 -0.00638634 -0.00085008
O 10.69517375 18.51589758 0.75878992 0.00107709 0.00538200 0.00511330
O 23.06143242 2.64015904 7.18071730 0.00523400 -0.00041588 0.00084938
O 19.58852508 3.80518717 15.50770186 0.00063445 -0.00066821 0.00113152
O 18.08382014 10.51440012 1.01660561 0.00867493 0.00366341 -0.00448710
O 24.32654343 9.16388012 9.82179601 -0.00515936 -0.00311024 0.00300535
O 19.91810617 9.97151411 8.98997129 0.00665227 0.00389395 -0.00243279
O 23.03573435 9.13955363 1.44175243 -0.00088226 0.00171247 -0.00173768
O 24.11980538 2.79001173 15.51792190 -0.00441948 0.00399500 0.00599586
O 18.63686185 3.80549407 7.25747208 -0.00368273 -0.00054763 0.00356553
O 23.57263049 1.46615984 17.50235073 -0.00326691 -0.01002524 -0.00875002
O 19.06365620 5.27753931 9.37062767 -0.00426583 -0.00209228 0.00195374
O 19.57306534 11.39602195 7.01376241 -0.00211683 -0.00021054 0.00500851
O 22.91407656 7.59455862 32.31727803 -0.00586327 0.00536923 0.00197470
O 18.85828030 11.44981387 31.72997675 0.00478518 -0.00294814 -0.00465306
O 23.82066035 7.85479320 7.74405420 0.00677490 -0.00190012 -0.00632566
O 23.13061679 1.12771823 9.39486647 -0.00176386 0.00294785 -0.00377633
O 18.90740347 5.28216035 17.56172781 0.00375452 -0.00112402 -0.00472450
O 22.65813506 2.70239373 23.74255340 0.00505923 -0.00374607 0.00221547
O 19.61108231 3.99008872 31.59741642 0.00288066 0.00205969 0.00016949
O 18.89907615 10.43521161 17.25371964 -0.00570344 0.00147349 0.00180306
O 24.07068920 9.37218762 26.27026621 0.00919957 0.00279603 0.00513538
O 19.71965580 10.18816695 25.44560432 0.00074797 0.00589033 0.00428643
O 23.28265764 9.39912313 17.93295890 0.00074657 0.00276803 0.00198992
O 23.86593232 2.84886412 32.03834329 -0.00305595 -0.00286856 -0.00610378
O 18.38976602 3.47812720 23.49453844 -0.00577654 -0.00198879 0.00681506
O 23.26304015 1.15354213 1.12046704 0.00033306 -0.00097428 -0.00170618
O 18.59474812 5.26942769 25.59100955 -0.00154584 -0.00696716 0.00651307
O 19.34700470 11.85913733 23.45479756 -0.00133696 0.00207649 0.00020808
O 23.06019692 7.74629491 15.83098253 -0.00403131 0.00334065 0.00016138
O 19.20254395 11.61195633 15.01109369 0.00273079 -0.00025664 0.00354911
O 23.96664049 7.76753375 24.15256104 0.00743666 0.00596485 -0.00343215
O 23.26825601 1.21641138 25.93774054 0.00172947 0.00018264 -0.00503016
O 19.24494597 5.19009552 0.92619568 -0.00129339 0.00083521 0.00233682
O 23.14938549 15.62833794 6.62091788 0.00247273 0.00552994 0.00068039
O 20.00598103 16.56787976 15.45606759 -0.00074382 -0.00035318 -0.00066834
O 18.87558166 23.02876125 1.60125681 0.00102115 -0.00557728 0.00056469
O 24.15459768 21.95825783 9.40103984 0.00362292 -0.00587982 -0.00213565
O 19.99051768 22.66834498 9.71768598 -0.00600414 -0.00169515 -0.00143459
O 23.04478155 21.88441783 1.24893533 -0.00020111 0.00293670 -0.00056118
O 24.64649311 15.33763967 14.70929416 -0.00008853 -0.00599787 -0.00384137
O 18.93239767 16.55259512 6.90187744 0.00296743 -0.00691227 -0.00545966
O 23.82674590 14.02268428 16.73591988 0.00251920 -0.00736163 -0.00198944
O 19.12892765 17.85509714 9.13166084 -0.00527777 0.00057340 -0.00366494
O 19.66197746 24.44478605 7.85879411 0.00167847 -0.00259107 0.00442879
O 22.66148901 20.37638218 32.18703824 -0.00147726 -0.00039731 0.00081556
O 19.49364364 24.67590283 32.51368759 0.00429597 0.00208413 -0.00475294
O 23.88238693 20.45583438 7.46296365 -0.00117422 0.00065991 0.00254412
O 23.48522396 13.91009863 8.56826341 0.00002055 -0.00857547 0.00366121
O 19.26238374 18.14219060 17.33700084 -0.00318096 0.00130571 0.00203531
O 23.12477609 15.91383279 22.74605393 -0.00183030 -0.00283273 -0.00257316
O 19.21843887 16.26305009 31.72467492 -0.00053660 -0.00040577 0.00270167
O 18.58332097 22.64830190 17.96129058 0.00393707 -0.00556924 0.00205597
O 24.16427401 21.96250947 26.22176301 -0.00065128 -0.00070387 0.00050777
O 19.54527867 23.00171083 26.19074969 -0.00323315 0.00539431 0.00364761
O 22.71364861 21.99273661 17.87958725 -0.00589439 -0.00671768 -0.00638335
O 23.84501509 15.53310933 31.27189669 0.00134467 -0.00615266 -0.00195241
O 18.69258904 16.68321977 23.45128469 0.00086423 0.00685542 0.00373100
O 23.24044359 14.30855878 0.56466436 0.00704740 0.00127529 -0.00542561
O 19.25087589 18.04209440 25.65017807 0.00265243 0.00029720 0.00340488
O 19.38699327 24.57616250 23.95883879 -0.00011281 -0.00100450 -0.00624270
O 23.53915003 20.59247415 15.66372558 -0.00130684 -0.00571765 -0.00119644
O 19.13548406 24.28770419 15.90740766 -0.00519896 -0.00374083 -0.00094517
O 23.44356634 20.79049049 23.99987335 0.00447924 0.00044807 -0.00377472
O 23.21908732 14.36336187 24.94253666 0.00336001 -0.00097804 0.00093085
O 19.20065389 18.11411453 0.65108453 0.00177519 -0.00208482 -0.00135111
N 7.51566792 13.03982496 2.01223204 -0.00333184 -0.00767632 -0.00432214
N 1.10005009 6.35227621 10.90544127 -0.00193165 0.00198053 0.00326530
N 3.60835942 25.29432610 5.62838057 0.00150344 0.00274436 -0.00196072
N 5.47017286 6.34428909 13.95882401 -0.00196021 -0.00390678 -0.00053118
N 0.45732500 25.25666258 14.01436779 -0.00383013 0.00594251 0.00057906
N 7.78825229 6.88623360 6.00149029 0.00363253 -0.00068838 0.00089232
N 5.34834232 13.07088341 10.10089051 -0.00010181 0.00058005 -0.00176962
N 3.27448133 6.60944225 2.82685189 -0.00310901 -0.00382637 0.00079047
N 7.76634037 13.03067410 18.27371906 -0.00204736 -0.00116525 -0.00019903
N 1.00473892 6.45245936 27.53783762 -0.00375251 -0.00677613 0.00083164
N 3.32057734 25.64771656 22.48479337 -0.00172078 -0.00535225 -0.00329299
N 5.02427822 6.81963470 30.65167682 0.00404892 -0.00250317 -0.00964276
N 0.62112584 25.52018218 30.71058443 0.00513172 -0.00466532 0.00235531
N 7.32580146 6.41657292 22.47238812 0.00003001 -0.00695257 0.00184681
N 5.36428114 12.92348855 26.39235023 -0.00200279 -0.00310415 -0.00099345
N 3.47496623 5.96482524 19.26137901 0.00606810 -0.00220539 -0.00363774
N 7.63243722 25.73404613 2.46091046 0.00688670 -0.00051440 0.00078448
N 1.06847677 19.13680996 10.67595961 0.00464042 -0.00219862 -0.00038126
N 3.25161532 12.59277157 5.44911300 0.00490712 -0.00085456 0.00671219
N 5.46325969 19.52808957 14.06856286 -0.00357259 0.00671541 0.00733751
N 1.40360445 13.05324314 13.70525373 -0.00031115 0.00266633 -0.00068829
N 7.86303007 19.25542630 5.77086479 0.00003003 0.00025040 -0.00589878
N 5.75590336 25.63538828 10.94007280 0.00127867 -0.00173404 -0.00624304
N 3.29387389 18.98612465 2.15579167 -0.00985300 -0.00462879 -0.00468217
N 7.55676544 0.16075149 19.14620355 0.00046206 0.00136414 0.00764217
N 0.99055281 19.36469674 26.83659106 0.00143734 -0.00376961 0.00380752
N 3.40852015 13.00594330 21.71188418 -0.00632465 -0.00064409 -0.00575855
N 5.28019939 19.12335983 30.45448733 -0.00332937 0.00023085 -0.00106196
N 0.83402511 12.85923161 29.67348253 0.00502778 -0.00273552 -0.00006170
N 7.49841416 19.11793118 22.26277446 0.00045387 0.00736954 0.00446757
N 4.71162134 0.22787460 27.62426979 0.00106508 -0.00003163 -0.00728590
N 3.14867364 19.58756987 18.79546467 0.00800386 -0.00060921 0.00025219
N 15.79764350 12.61349992 2.26072086 -0.00242590 -0.00501789 -0.00881270
N 9.64917481 6.29383287 10.84207321 -0.00043062 0.00233028 0.00285446
N 12.10449650 0.05827104 5.85163125 0.00064805 -0.00347415 -0.00577693
N 14.00930728 6.89354296 14.48134624 0.00670736 -0.00038322 0.00235645
N 9.78912734 25.50251211 14.27563867 -0.00655015 -0.00156718 0.00524494
N 15.98182462 6.52281276 5.86327712 -0.00689311 0.00195748 -0.00213052
N 13.78406865 13.01958398 10.28516283 0.00174254 0.00579816 -0.00518722
N 11.78410972 5.92067016 2.50507844 -0.00290021 -0.00852637 0.00030624
N 15.91822540 12.70050382 18.53995973 0.00341533 0.00167690 -0.00422117
N 9.12719508 6.12153546 27.20581965 0.00589697 -0.00130641 -0.00096688
N 11.57988837 25.64138979 22.47896587 0.00420209 -0.00592909 -0.00363110
N 13.30733545 6.45034351 30.40601202 0.00156336 0.00369208 -0.00155226
N 9.27807264 25.46845590 30.62751895 -0.00410577 -0.00014211 -0.00266466
N 15.78981626 6.63530408 22.34759834 0.00179510 0.00038696 0.00144048
N 13.77456660 13.07534585 26.63534385 -0.00040574 0.00295495 -0.00507883
N 12.00681275 6.34866216 19.21156202 -0.00779180 0.00086367 -0.00620641
N 16.00930597 25.67264497 2.52843439 -0.00487544 0.00578453 -0.00096842
N 9.88703124 19.31975682 10.41264459 0.00013463 -0.00289142 -0.00001799
N 11.68678527 12.86960839 5.62343131 -0.00152462 -0.00411836 0.00398677
N 13.91596923 19.00739900 14.10965466 -0.00653028 0.00063261 -0.00250885
N 9.92917082 12.75159702 13.72277150 -0.00101515 0.00399180 0.00176485
N 16.06490948 19.38189415 5.99733236 0.00444136 0.00569493 0.00031544
N 14.16482785 0.06273178 10.87221370 0.00603370 -0.00541343 -0.00476753
N 11.93822332 19.34408221 2.50193489 0.00709808 0.00123177 -0.00067823
N 15.85484942 0.09214739 19.18862783 -0.00513921 0.00412762 -0.00597264
N 9.50990634 19.12562018 26.95089601 0.00045965 0.00185717 -0.00018023
N 11.77276365 12.56463918 21.95433143 0.00197305 -0.00086208 -0.00297337
N 13.83062666 19.38657548 30.72866773 0.00070394 0.00041355 0.00238084
N 9.44407172 12.81457999 29.90608070 -0.00742255 -0.00057058 0.00155954
N 15.95282323 19.21616013 22.48922564 0.00201201 0.00465551 -0.00014543
N 13.55557053 0.14235268 27.38970466 -0.00187469 -0.00251362 -0.00436136
N 12.05885103 18.90918571 18.77642623 -0.00519345 0.00538336 -0.00537717
N 24.55494601 13.01481292 1.90734517 0.00188883 -0.00738268 -0.00490546
N 17.64010385 6.27986833 10.95574994 -0.00001965 -0.00090354 0.00173056
N 20.48488942 25.69984306 6.05905398 0.00592715 -0.00176371 -0.00228974
N 21.98683863 6.65227104 14.19554643 -0.00379803 0.00508557 0.00380476
N 18.15003967 25.40040632 14.23057364 -0.00358581 -0.00267902 0.00473785
N 24.81115874 6.65579449 6.06795295 0.00144556 0.00274419 0.00218352
N 22.29837439 13.07804091 10.36232272 0.00330233 0.00351099 0.00446843
N 20.48820981 6.19127941 2.65891321 -0.00114215 -0.00131719 0.00345550
N 24.81336507 12.95830085 18.45514879 0.00089530 0.00860826 -0.00141355
N 17.78164878 6.55298282 27.19580214 0.00416448 -0.00247927 0.00432676
N 20.16506190 0.06392642 22.23385517 -0.00093124 0.00426540 -0.00635459
N 22.00608099 6.47872507 30.54281966 -0.00030009 0.00412098 0.00116152
N 18.20530175 25.66487265 30.84939113 -0.00148758 0.00166155 -0.00114948
N 24.04277251 6.21991695 22.49960718 -0.00163533 0.00125897 -0.00025337
N 22.36724519 12.99250129 26.62541059 -0.00094784 0.00151991 -0.00128896
N 20.21317520 6.30598504 19.10201288 -0.00260896 0.00173893 -0.00342222
N 24.58716832 0.03394986 2.58304205 -0.00347364 0.01005052 0.00683483
N 18.19735917 18.95646580 10.86069985 -0.00970750 0.00406216 -0.00183106
N 20.57217509 12.56861825 5.32152200 -0.00017383 0.00058260 -0.00047513
N 22.42295239 19.38175344 14.06646957 0.00236174 0.00726237 -0.00162840
N 18.02359330 12.71061443 13.35375380 0.00269831 0.00276181 0.00350686
N 24.74619775 19.14520252 5.83380781 -0.00138673 -0.00372264 -0.00028331
N 22.35766018 0.04975086 11.16636287 0.00018325 -0.00272298 -0.00373519
N 20.21111040 19.37779646 2.33022559 0.00207304 -0.00626373 0.00186833
N 24.46824854 0.17699503 19.15738880 -0.00151483 0.00071246 -0.00258161
N 17.93370583 19.12228920 27.11804996 -0.00069308 0.00194270 -0.00305397
N 20.33047263 13.18404153 21.83483961 0.00046379 -0.00051073 0.00032331
N 21.95649493 19.08324241 30.40184996 -0.00223053 -0.00303660 0.00099467
N 17.74278745 12.61399409 30.07434507 -0.00237446 0.00444372 -0.00447789
N 24.66575514 19.59593729 22.51907764 0.00035039 0.00010578 -0.00195094
N 22.20207683 0.13914782 27.54605851 0.00625719 0.00193643 -0.00263202
N 20.34457560 19.44356225 18.89552705 -0.00159648 -0.00230085 -0.00660298
C 7.76240205 0.34918528 4.91537570 -0.00564414 -0.00367814 -0.00208821
C 0.76896254 5.99742713 13.30867167 0.00255939 0.01156347 0.00179876
C 3.28034473 12.48146469 3.11937523 0.00349924 -0.00667743 0.00774824
C 5.29411014 6.85035488 11.64231510 -0.00294766 -0.00041995 0.00614984
C 1.02821860 12.57438643 11.38482094 0.00509971 -0.00702516 0.00167096
C 7.62150733 7.20516817 3.62170440 -0.00165477 0.00020374 -0.00416810
C 5.30849484 0.38816362 13.23765475 -0.00017528 0.00166656 -0.00312627
C 3.50942831 6.10342108 5.19501974 0.00112498 0.00725601 -0.00526143
C 7.25034677 0.93064042 6.04804507 0.00101754 -0.00006223 0.00219316
C 1.22317978 5.35164782 14.41114698 0.00023712 -0.00359376 -0.00152564
C 2.84405614 11.95527556 1.89511810 -0.00189261 0.00272248 -0.00103588
C 5.59643685 7.60205547 10.53486984 0.00389137 -0.00307980 -0.00075415
C 1.32704345 11.88505729 10.26177055 0.00270131 -0.00257993 0.00488714
C 7.18275008 7.94997796 2.51744298 -0.00369197 0.00194063 0.00060753
C 5.75751431 0.90377478 14.42778295 0.00538303 0.00163966 0.00341509
C 3.19554719 5.30732852 6.24221990 -0.00385636 -0.00209532 0.00554642
C 6.39635935 2.06393517 6.00104891 -0.00282799 -0.00799401 -0.00384591
C 1.99645714 4.19978190 14.40148536 -0.00089038 -0.00146059 0.00550990
C 1.99228898 10.78690938 1.81947398 0.00300080 -0.00073932 -0.00009680
C 6.34403809 8.79387956 10.60337376 -0.00570363 -0.00332418 -0.00988248
C 2.08775524 10.70465543 10.35704651 -0.00290758 0.00842574 -0.00014913
C 6.33291476 8.96955627 2.71930079 0.00174085 -0.01076793 -0.00033495
C 6.63438532 2.05085947 14.45956505 -0.00462053 0.00270174 -0.00103797
C 2.39938753 4.15948621 6.10473172 0.00939480 0.00262282 0.00554775
C 6.17274353 2.56783812 4.70503767 -0.00516364 0.00689298 -0.00109481
C 2.30491608 3.62003871 13.14492190 -0.00328558 0.00322223 -0.00155591
C 1.67344211 10.11339180 3.06285698 -0.00068586 0.00405837 0.00225328
C 6.74079196 9.22262445 11.91688803 0.00002532 0.01012588 0.00010289
C 2.54145971 10.26636146 11.62170381 0.00668892 -0.00178582 0.00263059
C 6.08924527 9.47292383 4.03401537 -0.00186724 -0.00296693 0.00630101
C 6.92945513 2.55478259 13.19322594 0.00145423 -0.00108041 -0.00390269
C 2.14795625 3.69267355 4.79413556 -0.01011719 -0.00760790 0.00155639
C 6.64968730 2.00506357 3.56280507 -0.00637960 -0.00449119 0.00093817
C 1.96406516 4.32543921 12.02851808 0.00527422 -0.00264953 -0.00048694
C 2.04139217 10.71382720 4.26195482 -0.00505148 0.00664531 0.00332842
C 6.48035700 8.43343681 13.04599989 -0.00495667 -0.00210270 -0.00349235
C 2.41125593 11.08360353 12.67233457 -0.00171249 -0.00029043 0.00554554
C 6.65599893 8.84718441 5.13672564 0.00272285 0.00603470 -0.00056441
C 6.51260102 2.01380763 11.94822192 -0.00791958 0.00088542 -0.00464233
C 2.34752743 4.56651259 3.74681262 -0.00044765 -0.00533772 0.00371648
C 7.33946419 0.75928119 3.60802358 0.00458660 0.00267994 0.01070767
C 1.27725394 5.58202313 12.06395329 -0.00256369 -0.00448247 -0.00018135
C 2.90685941 11.87404014 4.30669027 0.00109246 0.00162017 0.00542997
C 5.76620608 7.20036495 12.94970297 -0.00087982 0.00025372 -0.00155598
C 1.61763029 12.25330332 12.64305715 0.00705564 0.00206403 0.00783153
C 7.30437725 7.64107073 4.90490173 0.00920732 -0.00046676 0.00735420
C 5.92289690 0.72681410 12.00325849 0.00222115 0.00595641 -0.01285188
C 3.00825715 5.75259698 3.88533961 -0.00619746 0.00014426 -0.00486589
C 6.96683405 0.18830788 1.28316648 0.00558309 -0.00524017 0.00138866
C 1.48743128 6.08094557 9.65076481 0.00622609 -0.00013816 0.00127939
C 2.56927144 12.58609957 6.67791333 0.00103254 0.00824599 0.00157169
C 5.97353339 6.39722288 15.22666440 -0.00211594 0.00027312 -0.00030564
C 2.00672342 12.86799615 14.92847528 0.00067343 0.00540536 0.01502568
C 7.11429610 6.78453648 7.17838955 -0.00390774 -0.00091426 -0.00419125
C 5.99627737 0.05757441 9.66918882 -0.00047909 -0.00318280 0.00142706
C 2.73348870 6.52324402 1.61898825 -0.00124291 -0.00250375 0.00216292
C 7.13921494 11.68404023 16.29895254 -0.00393315 0.00065599 0.00064652
C 1.46928548 7.27134090 8.70885286 -0.00035209 -0.00699688 -0.00414929
C 3.35378203 0.68861847 7.70412152 0.00515817 -0.00445116 0.00085712
C 5.41733997 5.80300716 32.79796200 -0.00349543 0.00186499 0.00217954
C 1.20761894 0.91940488 32.90186779 -0.00202741 -0.00024300 -0.00282070
C 7.20982490 5.52183703 7.87590598 0.00659669 0.00641417 0.00006656
C 6.04094411 11.93630207 8.03084882 0.00390953 -0.00314638 -0.00042661
C 2.81418789 7.50514245 17.48563252 0.00533140 0.00000909 0.00392384
C 7.45441547 0.44644027 21.55052500 -0.00585729 0.00893710 -0.00192240
C 0.76659310 6.25360011 29.90979791 -0.00126503 0.00311613 0.00275453
C 3.63867952 12.60000027 19.31626316 -0.00064418 -0.00482684 0.00187789
C 5.16776371 7.04759500 28.22916408 -0.00131683 0.00119567 0.00118609
C 0.86103747 12.45793541 27.27911092 0.00119682 -0.00285647 0.00393149
C 7.51868322 6.68850234 20.02573531 0.00060524 0.00384156 -0.00012751
C 5.07176150 0.46502820 29.97577342 -0.00178289 -0.00549407 -0.00129465
C 3.22140477 5.85371777 21.63806163 0.00569476 -0.00357581 0.00783744
C 7.02206621 1.20480189 22.62827233 0.00011077 -0.00108316 0.00331578
C 1.13035139 5.61180501 31.06262164 0.00901039 -0.00598933 -0.00147401
C 3.30967542 11.90205069 18.18542710 -0.00529146 -0.00316787 0.00964442
C 5.61554184 7.65970062 27.10339477 -0.00410129 0.00016764 0.00683220
C 1.32172049 11.75562831 26.20859672 0.00148397 -0.00594111 -0.00129380
C 7.15582932 7.17284946 18.81543913 -0.00733308 0.00464739 -0.00185771
C 5.41771994 1.16985572 31.09627542 -0.00927090 -0.00662210 -0.00150080
C 2.71093597 5.33114438 22.82045235 0.00499951 -0.00285045 0.00169310
C 6.10928027 2.24816196 22.52162975 0.00238970 0.00423091 0.00240524
C 1.90736030 4.39784287 31.03714025 0.00438293 -0.00415916 0.00376364
C 2.44510517 10.83709686 18.27666035 -0.00775241 0.00149235 0.00785262
C 6.28197090 8.80992437 27.25151011 -0.00722816 -0.00084087 -0.00253574
C 2.30594430 10.77780319 26.36539520 -0.00450112 0.00336414 -0.00316846
C 6.38613164 8.37470150 18.74554000 -0.00292858 0.00020008 0.00302668
C 6.19032721 2.31655211 30.97840233 0.00130801 0.00056897 -0.00076661
C 1.88784008 4.16215093 22.73515826 -0.00075387 -0.00410480 -0.00550472
C 5.95528830 2.74428664 21.23672722 -0.00257220 -0.00157026 0.00088525
C 2.12764634 3.79267539 29.77484900 0.00178249 -0.00339136 -0.00501420
C 2.21413819 10.27801826 19.56044570 0.00131778 -0.00305744 -0.00543098
C 6.51970997 9.41021620 28.54054251 -0.00139700 0.00267684 -0.00028183
C 2.41974428 10.21824259 27.64879774 -0.00817961 0.00141533 -0.00268480
C 6.07809528 9.00282148 19.98260198 -0.00138371 -0.00270777 -0.00451027
C 6.34716260 2.82492897 29.70533629 0.00163359 -0.00316509 0.00632090
C 1.53004573 3.66861158 21.51333404 -0.00835601 -0.00297205 -0.00434943
C 6.51560455 2.12463334 20.09033326 -0.00249487 -0.00939260 -0.00038564
C 1.76354766 4.38977825 28.65288317 -0.00765414 -0.00176165 0.00515007
C 2.64505431 10.95456478 20.65486622 0.00702299 -0.00487443 -0.00288316
C 5.98136587 8.85253270 29.66310821 0.00612265 -0.00147072 -0.00581369
C 1.81351472 10.75658574 28.76293038 0.00324080 -0.00073786 0.00608355
C 6.39744479 8.37839888 21.17106864 -0.00554348 -0.00192918 -0.00066311
C 5.88946015 2.18138132 28.57233666 -0.00842340 0.00775198 -0.00956940
C 2.06300070 4.17705264 20.32157374 -0.00664611 -0.00298888 0.00463648
C 7.15455038 0.94199761 20.27396461 -0.00361319 0.00240462 0.00052093
C 1.10571469 5.68168600 28.67533575 0.00508766 0.00351061 0.00403522
C 3.21961024 12.25685304 20.59424225 0.00086256 -0.00907486 -0.00003772
C 5.39925999 7.61002850 29.58283218 -0.00172710 0.00857537 0.00471400
C 1.12594755 12.01726598 28.55542524 -0.00785530 -0.00122492 0.00098364
C 7.13271138 7.18101475 21.26109892 0.00739067 -0.00351671 -0.00020767
C 5.21249831 0.97784317 28.71475710 -0.00395919 -0.00071032 0.00122052
C 2.85700317 5.34736100 20.36970977 0.00272189 -0.00029210 0.00208969
C 6.90014166 0.15869758 17.95565411 0.00453675 0.00579818 -0.00671197
C 1.52483520 6.16407590 26.29193723 0.00463188 -0.00050715 -0.00220500
C 2.96044532 12.80693646 22.97383361 0.00038268 0.00463315 0.00083847
C 5.43495691 7.02763772 31.92302295 -0.00331646 0.00119731 0.00438455
C 1.47377062 12.82660971 30.88109520 0.00226107 -0.00568435 -0.00032810
C 6.80308478 6.72232611 23.68584137 -0.00838234 -0.00309403 -0.00224880
C 5.33214033 0.27925746 26.43700423 -0.00575227 0.00493809 -0.00136471
C 2.74915807 6.16076876 18.07263966 0.00599693 0.00457015 -0.00195323
C 7.12883048 12.01662169 32.72337062 -0.00189879 0.00128312 0.00499700
C 1.43843673 7.31424611 25.31895946 0.00178127 0.00043297 -0.00792852
C 2.75909004 1.15333311 24.51276850 -0.00196197 -0.00316874 0.00227854
C 5.79525367 5.11110257 16.06510913 0.00396222 0.00450127 -0.00561077
C 1.45007989 0.93457936 15.76418131 0.00284216 0.00291077 -0.00232185
C 6.56090772 5.48321687 24.53827442 0.00184752 0.00357829 -0.00370459
C 6.12905352 11.99632791 24.27093125 -0.00108567 -0.00259577 0.00038448