1920
Time=46000.00000003 pbc="T T T" Lattice="25.48072441 0.00000000 0.00000000 0.00000000 25.83429801 0.00000000 0.00000000 0.00000000 32.85156849" energy=-12251.61713398 virial="-49.74764204 -21.69507009 13.10054430 -21.69507009 -82.11933197 24.18305790 13.10054430 24.18305790 -90.69738596" stress="-0.00009553 -0.00103582 0.00062338 -0.00103582 -0.00171012 0.00104986 0.00062338 0.00104986 -0.00211411" Properties=species:S:1:pos:R:3:vel:R:3
O 5.97881208 2.97924596 6.84657349 0.00804622 -0.00237235 0.00186114
O 2.71499978 3.70730946 14.99182358 0.00107280 0.00047526 -0.00767250
O 1.26349576 10.57989144 1.22208826 0.00879561 -0.00040516 -0.00208569
O 6.88284637 9.37686760 9.42222236 0.00156539 0.00123507 -0.00546883
O 2.90823009 10.18825387 9.15805594 -0.00152849 -0.00479622 0.00484137
O 6.00867663 9.08273337 0.87348687 -0.00302924 -0.00730477 -0.00126269
O 7.20961704 2.98975629 15.25262588 -0.00354722 0.00023420 -0.00524022
O 1.34896763 3.95771404 6.92225119 0.00085150 -0.00096470 -0.00221002
O 7.06814546 1.35129051 17.35678816 -0.00135522 -0.00081958 0.00258875
O 1.90102112 5.20571533 9.10386074 0.00482886 0.00279374 -0.00218702
O 2.30622984 11.82195316 7.37065346 0.00100625 -0.00082925 -0.00022545
O 6.99917528 7.31933227 31.97532139 0.00246843 0.00576790 -0.00049714
O 2.08736214 11.54593121 31.85719631 0.00301635 0.00135075 -0.00272329
O 6.22535053 7.82690146 7.14595954 -0.00017176 -0.00853838 0.00164914
O 6.23204357 1.42242993 9.04221137 0.00358661 0.00447216 -0.00731798
O 2.46689693 5.15004973 17.16705570 0.00087714 -0.00043373 0.00825324
O 5.37349017 2.62638590 23.29425763 0.00190000 -0.00356095 -0.00626461
O 2.48084298 3.85096824 31.78601847 -0.00075053 -0.00359953 0.00182108
O 1.80283591 10.12164815 17.57867475 -0.00542743 -0.00137495 -0.00438626
O 6.92587600 9.20363500 25.89694101 0.00199622 -0.00456706 0.00583601
O 2.64771357 10.03885763 25.84246589 0.00249364 0.00214962 -0.00154802
O 6.12577669 9.34610337 17.65629157 -0.00374877 -0.00018096 -0.00010884
O 7.11035891 2.65995877 31.49800335 0.00284361 -0.00398347 0.00262719
O 1.39414653 3.61291152 23.41534034 -0.00004050 -0.00647685 0.00149555
O 6.34828637 1.12622971 0.70664619 0.00036430 -0.00283720 -0.00255394
O 2.19124335 5.07231154 25.47778386 -0.00382841 -0.00583327 0.00352240
O 2.06393749 11.60263766 23.77953969 0.00282617 -0.00191747 -0.00802540
O 6.03711978 7.62151268 15.69709966 -0.00812987 0.00440073 0.00059363
O 2.30190899 11.36096337 15.41999881 0.00938176 -0.00308366 0.00284205
O 6.48829019 7.60884454 23.85503551 0.00432985 0.00646080 -0.00189424
O 6.14876745 1.45002790 25.31331967 0.00000914 -0.00008124 0.00151259
O 1.67766313 5.38451896 0.86821924 -0.00064261 0.00439694 0.00194546
O 5.59735902 15.76114090 6.68753169 -0.00134092 0.00613727 -0.00506475
O 2.18289878 16.53695576 15.49369961 -0.00165644 0.00417969 -0.00348999
O 1.50937556 22.96956740 1.40953751 0.00210960 0.00029184 -0.00044663
O 7.20729195 22.28367898 9.63028208 0.00234794 -0.00461722 -0.00524825
O 2.96669311 23.28848414 9.46274290 0.00229972 0.00498862 -0.00412936
O 6.01231894 22.17383293 1.17205437 -0.00289832 -0.00548590 0.00434110
O 7.09336737 16.29549122 14.64180470 -0.00051147 -0.00866129 0.00078692
O 1.46081153 16.80916181 7.13615628 0.00559984 0.00031673 -0.00568293
O 6.82020768 14.31046256 17.21276870 0.00189212 0.00267526 -0.00444648
O 2.23974589 18.05858015 9.35752539 -0.00279090 -0.00330940 -0.00478703
O 2.90692106 24.79311611 7.49755449 -0.00276976 -0.00454165 0.00194115
O 6.64027444 20.70856388 32.01731191 0.00085513 -0.00244627 0.00110263
O 1.90121925 24.20732762 31.98324897 -0.00112855 0.00181201 -0.00213929
O 6.95476192 20.84898260 7.57542522 0.00033840 -0.00095209 -0.00503691
O 6.06081084 14.32303287 8.78597689 0.00129144 -0.00485086 -0.00298523
O 2.23738993 18.20109559 17.46483229 -0.00090029 -0.00233835 0.00741900
O 5.76408009 15.76300040 23.28720112 0.00070779 -0.00116861 0.00283220
O 2.83033422 16.74474090 31.79792496 0.00294007 -0.00378877 0.00307475
O 1.63794724 23.21565815 17.63319688 -0.00321082 -0.00140701 -0.00208243
O 6.79818170 22.03550522 25.59873977 0.00203217 0.00660722 0.00530958
O 2.37442580 22.89675812 25.77725324 -0.00200087 0.00160825 0.00495286
O 5.92771715 21.93263857 17.61435197 -0.00317694 -0.00633797 -0.00328825
O 6.68429669 15.65843349 31.53633885 0.00060410 0.00209162 -0.00151448
O 1.69185608 16.53909626 23.51575655 0.00189408 0.00764054 0.00342156
O 6.49906884 14.03283699 0.61718364 -0.00066078 0.00030620 -0.00033418
O 2.10692017 18.00481549 25.70592906 -0.00468725 0.00088473 -0.00368727
O 2.12999227 24.40625214 23.76655904 -0.00120875 0.00385340 -0.00304921
O 6.57692220 20.39747608 15.68282086 0.00387121 0.00298356 0.00292544
O 2.07754979 24.56192153 15.59886674 0.00282288 -0.00192474 -0.00633022
O 6.34625791 20.42438916 23.69187024 -0.00120195 0.00415623 -0.00254219
O 6.00553547 14.02055811 25.14148504 -0.00505699 -0.00098703 -0.00235916
O 2.47181365 18.09213312 1.09667894 -0.00349241 0.00104190 0.00207347
O 14.34045233 2.83762591 6.79677143 0.00427740 0.00242265 -0.00008893
O 11.25723265 3.64494334 15.16846714 0.00324352 0.00335141 -0.00065895
O 10.08897761 10.52094386 1.28312757 0.00184748 -0.00520446 -0.00313389
O 14.97896124 9.14319968 10.00864065 0.00275234 -0.00086135 0.00089639
O 10.83367415 10.28262688 9.24682990 0.00191226 0.00008024 -0.00374500
O 14.42415286 8.93915159 1.32964428 -0.00006442 -0.00421241 -0.00796930
O 15.59846857 2.74010638 15.12039372 0.00066003 0.00288034 0.00428128
O 9.86067647 3.90912241 6.93316518 -0.00070665 -0.00299435 -0.00345786
O 15.33346885 1.17206703 17.13992449 0.00202948 -0.00009138 0.00223578
O 10.43772010 5.29409482 8.98832918 0.00487386 -0.00160904 0.00868301
O 10.25616618 11.87735930 7.38464750 0.00426183 -0.00248375 0.00002021
O 15.34459494 7.43945274 32.25839974 0.00803410 -0.00766415 -0.00044800
O 10.90440450 11.57128887 31.86167513 0.00066347 -0.00827833 0.00072775
O 14.84094163 7.80573871 7.76070846 0.00464896 0.00447703 -0.00145804
O 14.39446051 1.40980921 9.02780232 0.00137130 -0.00179288 -0.00078079
O 10.62338556 5.16079597 17.17802772 0.00018220 0.00174416 0.00003025
O 14.05648184 3.02417230 23.01325340 0.01075427 -0.00536297 -0.00128713
O 11.27829440 3.73529495 31.50711519 0.00200438 -0.00477014 0.00314817
O 9.95785220 10.13810746 17.69028898 -0.00491268 -0.00060677 -0.00048226
O 15.45678256 9.32088837 26.11469568 -0.00066527 -0.00513686 -0.00098106
O 11.10442338 10.24463492 25.58868638 0.00195524 0.00170085 -0.00445384
O 14.42770325 9.43205625 17.93260964 -0.00092426 0.00345799 -0.00184549
O 15.42261024 2.51423149 31.56349837 -0.00103495 -0.00328658 0.00041935
O 10.00619289 3.53235041 23.24446301 0.00337046 -0.00010252 -0.00612561
O 14.94872593 0.93625387 0.75030047 0.00594287 0.00041878 0.00722300
O 10.17098704 5.20741436 25.48264552 -0.00014044 0.00112325 -0.00473237
O 10.44287366 11.93063476 23.62438367 0.00778823 0.00261222 -0.00265009
O 14.72394083 7.48074836 16.03120515 -0.00457810 0.00323428 -0.00138632
O 10.71428066 11.60323668 15.52960546 0.01015657 -0.00005971 0.00397317
O 14.94881260 7.79495970 23.96002550 0.00086411 -0.00004904 0.00353728
O 14.42960068 1.49359289 25.22715959 0.00389593 0.00249460 0.00158082
O 10.74687788 5.46159140 0.81852172 0.00327053 0.00110204 0.00054561
O 14.35398561 15.46564114 6.91298114 -0.00209795 0.00441943 0.00580286
O 11.18328858 16.41546229 14.81280915 0.00357950 -0.00078565 -0.00220309
O 10.10896478 23.06445706 1.10431552 0.00565539 0.00406900 -0.00313961
O 15.44379711 22.38172161 9.42522762 -0.00076078 0.00014384 -0.00089390
O 11.22577497 23.73027464 9.43694353 0.00708507 -0.00743078 -0.00127392
O 14.20278110 21.90106928 1.26298691 -0.00538714 -0.00155480 0.00302911
O 15.11789358 15.80130151 15.28905962 -0.00160327 -0.00362876 -0.00216147
O 10.36092697 16.89686784 6.73504036 0.00146866 0.00419937 0.00175741
O 14.78405787 14.21663904 17.21487931 0.00038483 0.00010960 -0.00054359
O 11.01529068 18.30119242 8.94127732 -0.00474744 -0.00269315 0.00322510
O 10.38399610 24.86603062 7.36584926 0.00022793 -0.00983275 -0.00604004
O 14.68574318 20.66022666 31.96563678 0.00196914 -0.00749034 0.00419466
O 10.63974533 24.47559553 31.87155858 -0.00402777 -0.00161449 0.00509649
O 15.15326090 20.78821441 7.53091266 -0.00436689 -0.00292594 -0.00202602
O 14.81155744 14.07382455 9.01981938 -0.00234964 0.00216845 0.00221909
O 10.83768428 17.73079297 16.92942397 0.00413460 0.00051215 -0.00482317
O 14.74716269 15.55703567 23.39900124 -0.00164489 -0.00185830 -0.00087242
O 10.90647564 16.72966803 31.28276479 -0.00384862 0.00747106 0.00336743
O 10.80056567 22.61469899 17.55237729 -0.00209938 -0.00036345 -0.00137012
O 14.92788533 22.56299126 25.77312983 0.00151955 -0.00371234 -0.00274420
O 10.97052799 22.87884519 25.69626469 -0.00310923 -0.00120855 0.00443507
O 14.07242732 21.84390267 17.52219315 0.00050568 0.00021755 0.00393658
O 15.65437984 15.42788599 31.46378865 -0.00996734 -0.00164226 -0.00332408
O 10.18936102 16.59913606 23.03176286 -0.00240449 0.00172295 0.00836096
O 14.95405233 14.22780902 0.78263028 -0.00518047 -0.00091517 -0.00047693
O 10.63512335 18.24473617 24.99162816 0.00404159 0.00051585 0.01032193
O 11.02177633 24.39236782 23.64781762 0.00004789 0.00586027 -0.00451690
O 15.19753364 20.68713027 15.49612211 0.00241392 -0.00681698 0.00025911
O 11.02496051 24.38854862 15.71142365 -0.00107047 0.00430001 0.00696422
O 14.58817048 20.83877402 23.64534046 0.00815180 0.00185504 -0.00081114
O 15.03090771 14.10251218 25.39724029 -0.00362343 -0.00076919 0.00271395
O 10.66808956 18.36686539 0.43640876 -0.00213822 -0.00023685 -0.00072632
O 22.79399528 3.13668805 7.17366847 0.00409549 0.00697630 0.00419187
O 19.86676907 3.89695998 15.29514985 0.00393286 0.00199070 0.00431754
O 18.54968086 10.26752236 1.34906644 0.00022667 -0.00096784 -0.00550497
O 23.74463107 9.54945734 9.54281732 0.00458984 -0.00259574 -0.00006144
O 19.73661721 10.48130661 9.47273592 0.00051048 0.00348785 0.00466974
O 22.73219542 9.17628228 1.35914543 0.00478925 0.00307415 0.00230555
O 23.88379051 2.83931874 15.07448452 0.00296339 -0.00385736 0.00098721
O 18.51462403 3.81687983 7.06607499 -0.00150047 0.00067433 0.00018781
O 23.58277306 1.39919126 17.13393635 0.00216096 0.00197310 0.00254685
O 18.93264832 5.36715357 9.14359630 -0.00311694 0.00146361 0.00162893
O 19.06070018 11.67369363 7.37304904 0.00561822 0.00148888 -0.00562763
O 23.15558588 7.57062787 32.35708909 0.00603856 0.00110888 0.00671000
O 19.14860763 11.60679701 32.04479814 0.00422262 0.00066927 0.00174989
O 23.09677059 7.94568747 7.47517736 0.00121768 -0.00042695 -0.00403322
O 22.40441558 1.48523090 9.05118919 -0.00166966 -0.00038532 -0.00123147
O 19.16014708 4.94813983 17.39995898 -0.00058984 -0.00069014 0.00723999
O 22.60257436 2.68331031 23.27930485 0.00813902 -0.00157936 -0.00304288
O 19.58298806 3.28686552 31.72837056 -0.00019349 0.00184157 -0.00189456
O 18.42229465 10.42806157 17.53813290 0.00100597 0.00327947 0.00216831
O 23.57615157 9.19495408 26.05118997 0.00057200 0.00064816 -0.00018220
O 19.66468818 10.24998557 25.79857297 0.00095896 0.00187779 -0.00127724
O 22.52840764 8.98340059 17.72913187 -0.00138406 0.00038614 -0.00343695
O 23.70428708 2.41373841 32.02900585 -0.00131946 -0.00070745 -0.00762068
O 18.22555925 3.68628571 23.65218722 0.00165864 -0.00327816 0.00356457
O 23.16750638 1.09123001 1.22887982 -0.00164674 -0.00557150 -0.00038309
O 18.73237420 5.21779055 25.70383201 -0.00139378 0.00217377 -0.00826730
O 19.27930205 11.77807159 23.77197914 -0.00288609 -0.00160730 -0.00537154
O 23.13430701 7.72590646 15.53034504 0.00310444 0.00168575 -0.00112075
O 19.13687066 11.71791630 15.45663898 -0.00068262 -0.00001668 0.00019999
O 23.44526128 7.57544532 23.77689925 -0.00370821 0.00202173 0.00136877
O 22.80743176 1.45409767 25.63435729 -0.00693993 0.00502965 0.00161020
O 19.78656771 5.24942754 0.83463192 0.00769752 0.00202085 -0.00813998
O 23.07584251 15.68683244 6.80126238 -0.00047618 0.00139580 0.00100211
O 19.85410220 16.72828943 14.88795419 -0.00513532 -0.00115820 0.00354838
O 18.77051289 22.57892513 1.27283531 -0.00353087 -0.01104615 0.01037845
O 23.77316694 22.55316774 9.50786447 -0.00290724 0.00079263 0.00123216
O 20.02060419 23.29511472 9.64623525 -0.00426371 0.00335751 0.00665461
O 22.98482822 21.71693210 1.31791428 0.00137376 0.00180482 -0.00205599
O 23.31568933 15.55336994 15.27920709 -0.00349125 0.00006636 0.00041897
O 18.67083378 16.55117326 6.85956654 0.00110617 0.00323134 -0.00529855
O 23.21264711 13.95399534 17.41407092 0.00263714 -0.00328807 -0.00674696
O 19.07861984 18.17049080 8.87450352 -0.00064828 -0.00125735 -0.00441590
O 19.48258536 24.57238834 7.44462587 -0.00537208 -0.00005343 0.00289547
O 23.69304223 20.23337556 32.03235216 -0.00158726 0.00068864 0.00448411
O 19.11156784 23.95471662 32.12502770 0.00406894 -0.00031131 -0.00100077
O 23.36448267 20.72972238 7.57379348 -0.00621381 0.00455429 -0.00188330
O 23.16038786 14.35377787 8.95085200 -0.00489856 -0.00054027 -0.00038010
O 19.30248799 18.04317184 16.98712890 -0.00503545 -0.00378174 0.00620426
O 22.75112924 16.02850056 23.34148157 0.00708269 0.00204397 -0.00175995
O 19.52685808 16.56213851 31.52533076 0.00297856 0.00971480 -0.00234369
O 19.11737472 23.14297702 17.90941796 -0.00695869 0.00142122 -0.00172511
O 23.47447476 22.13649975 26.03399875 0.00483788 -0.00592157 0.00252354
O 19.47222164 23.37690180 25.72998599 0.00207337 -0.00276313 -0.00073686
O 23.49235095 22.25596273 17.78607992 0.01039126 -0.00740661 -0.00506004
O 24.15608032 15.72176333 31.19340271 -0.00317157 0.00168929 0.00386340
O 18.39535009 16.78994867 23.22587291 -0.00052739 -0.00502334 0.00099273
O 23.14046266 14.30727797 0.46748436 0.00396801 0.00506521 0.00310028
O 19.11735588 18.19346563 25.37411200 0.00281024 0.00456544 0.00306576
O 18.58741636 25.06340038 24.00487765 0.00135194 0.00106179 0.00265946
O 23.45276517 20.58203473 15.55686234 0.00562109 -0.00268317 0.00382700
O 19.09706743 24.40851337 15.59833157 0.00433822 -0.00391143 0.00317712
O 22.94163781 20.50118538 23.95564361 -0.00216173 0.00308707 -0.00199138
O 22.73077465 14.32036075 25.27528588 0.00448470 0.00321364 0.00745467
O 19.19313671 18.03425823 0.60174252 -0.00162613 0.00595700 -0.00098829
N 7.62469327 13.07520855 2.32252073 0.00048308 -0.00194247 0.00078737
N 1.02378166 6.56060714 10.72365703 -0.00456855 -0.00132009 -0.00759482
N 3.09707348 0.27064080 5.62964495 -0.00151490 -0.00000363 -0.00472468
N 5.06844055 6.49466375 13.86553325 0.00279816 0.00662021 0.00161948
N 0.91432246 25.75135110 13.96230309 0.00275613 -0.00580754 0.00303052
N 7.53361165 6.61478204 5.67080541 0.00049226 -0.00633961 0.00439864
N 5.31963642 12.91683166 10.48591971 0.00208317 0.00865012 0.00120248
N 3.19655014 6.32559369 2.37808704 -0.00579974 0.00405511 0.00186895
N 7.58445951 12.98605109 18.99580670 0.00633855 0.00584302 -0.00310019
N 0.98180798 6.35732075 27.01222319 0.00465537 0.00255122 0.00241328
N 3.01806552 25.74008517 22.15709424 0.00663167 -0.00187854 -0.00063504
N 5.33624994 6.55975756 30.53163952 0.00582040 0.00403678 -0.00213309
N 0.80161613 25.48519272 30.38751525 0.00065499 -0.00743892 0.00275167
N 7.36479824 6.40971338 22.08884116 -0.01322218 0.00482462 -0.00101954
N 5.29242352 12.77869431 26.97224395 -0.00331623 -0.00334650 -0.00437514
N 3.23312520 6.38593056 18.95559203 -0.00403088 -0.00089332 0.01029061
N 7.53647781 0.07376041 2.38946140 -0.00017846 0.00073482 -0.00071501
N 0.87909827 19.17227878 10.85743006 -0.00421447 -0.01373730 -0.00037343
N 3.07481744 13.15581989 5.63007755 -0.00049537 0.00415479 0.00221239
N 5.16128015 19.51520529 14.01666230 0.00195098 -0.00009726 -0.00276538
N 1.08166322 12.38311858 13.83444190 -0.00243967 0.00066069 0.00151026
N 7.57275039 19.49492366 5.86249490 0.00407327 0.00011823 0.00144117
N 5.37594544 0.07047306 10.72730641 -0.00087734 -0.00215199 0.00421867
N 3.58677190 19.27806808 2.68416972 -0.00492868 0.00350369 -0.00144056
N 7.79327003 25.80648911 19.08843328 0.00031090 -0.00247706 -0.00424006
N 0.93425357 19.13799730 27.31064557 -0.00408538 -0.00036951 0.00372230
N 3.22385139 12.77124127 22.20503672 0.00528166 0.00325209 -0.00637017
N 5.32835795 19.65322393 30.49252690 0.00248877 0.00445561 0.00754950
N 0.97075606 12.74678179 30.30861526 0.00059920 -0.00035094 0.00256849
N 7.65662136 19.30610656 22.21596885 0.00028661 -0.00487702 -0.00381933
N 5.10373271 0.20447828 26.99770903 0.00010002 -0.00764268 0.00166433
N 3.61538999 19.17291813 19.03106068 -0.00315967 0.00111379 -0.00212840
N 16.27283090 13.05842394 2.37296022 0.00634005 0.00925189 0.00108365
N 9.19245808 6.21271752 10.62269205 -0.00072102 0.00018942 -0.00022431
N 11.55026552 0.12721276 5.70495295 -0.00032148 0.00022748 0.00062049
N 13.70417439 6.14978134 14.51901296 -0.00275098 0.00630459 -0.00340249
N 9.62166806 25.55357948 14.33618297 -0.00131517 0.00497841 0.00242096
N 15.79219875 6.50435541 6.09239509 -0.00153494 -0.00741967 -0.00596221
N 13.77943288 12.96954612 10.72886262 0.00484264 0.00240229 -0.00153955
N 11.96579943 6.52928305 2.45957599 -0.00611959 -0.00325826 -0.00153079
N 15.67709078 12.83540488 18.80705808 0.00171615 -0.00088009 0.00749324
N 9.35725759 6.57961873 27.15141416 -0.00434066 -0.00214339 0.00684588
N 11.75892665 25.78135587 22.06617421 0.00145736 -0.00497063 0.00290177
N 13.88746388 6.45542392 30.72416792 -0.00202499 0.00671644 -0.00001426
N 9.69182440 25.72673524 30.26936231 -0.00170012 -0.00293697 -0.00383679
N 15.70435564 6.36995357 22.32275179 -0.00452069 -0.00424965 0.00412341
N 13.81770877 12.91943043 26.94460094 -0.00377295 -0.00640703 -0.00614509
N 11.65443567 6.31435325 18.86608543 0.00618182 0.00070879 0.00898920
N 16.09424878 25.66229482 2.39494119 0.00072065 0.00016626 -0.00079533
N 9.64448403 19.41782571 10.41749176 0.00181826 -0.00276967 0.00577845
N 11.85121198 12.76065961 5.99904605 0.00149619 -0.00346947 -0.00279840
N 13.94706688 19.49158491 13.87337862 -0.00469545 0.00900904 -0.00389181
N 9.75653455 12.87803704 13.92873094 -0.00235540 -0.00039602 0.00237860
N 16.20166596 19.65368220 5.88030606 -0.00304986 0.00062915 -0.00573836
N 13.72454147 0.04349750 10.62414571 0.00227224 -0.00539538 0.00511290
N 11.59028350 19.64506741 2.10309941 0.00585075 0.00332525 -0.00256536
N 16.36508466 0.19330645 18.96230553 -0.00140392 -0.00110052 -0.00021054
N 9.66994782 19.58722721 26.64906513 0.00073435 -0.00030446 -0.00637856
N 12.02709311 12.75872829 22.10295304 -0.00022953 -0.00052039 0.00262855
N 13.73955364 19.50840413 30.28437956 -0.00543932 -0.00301924 0.00528729
N 9.83653311 12.83978432 30.27295696 0.00073949 0.00105949 0.00330217
N 16.16102959 19.80519820 22.28119370 0.00272565 0.00921383 -0.00883628
N 13.98170138 25.78888299 26.88957368 -0.00309056 -0.00315365 -0.00555228
N 11.81417700 19.14156635 18.40921505 -0.00903357 -0.00173426 -0.00593931
N 24.19148179 13.00169801 2.10531590 0.00030106 0.00168807 -0.00043376
N 17.78522206 6.30440380 10.89426511 -0.00363961 0.00533750 -0.00060734
N 20.43095380 25.58984739 5.67308184 0.00440107 0.00437064 -0.00104095
N 21.99131230 6.63890926 13.88898768 0.00291402 -0.00023196 0.00278011
N 18.02783226 25.81097485 14.09865777 0.00606538 -0.00272468 -0.00336841
N 24.39808945 6.74338469 6.06216325 -0.00209060 -0.00022572 0.00049070
N 22.29657258 12.87439311 10.52645318 -0.00044127 0.00910957 0.00047642
N 19.98778564 6.73630147 2.56701543 0.00031293 0.00314689 -0.00069942
N 24.60768981 12.98779258 19.00728471 -0.00007527 0.00139305 -0.00296435
N 18.04928663 6.51399491 27.39992733 -0.00152217 0.00247064 0.00177419
N 20.17677823 0.07883016 22.64020868 -0.00538381 0.00043102 0.01337925
N 22.40895288 6.28386250 30.61372621 -0.00639081 -0.00391223 0.00608732
N 17.92200592 25.32877166 30.67275021 -0.00056583 -0.00072531 0.00459037
N 24.33846017 6.29913042 22.21495223 0.00127018 0.00689959 0.00311343
N 22.03210916 12.93279935 26.92106157 -0.00287816 0.00442333 0.00373808
N 20.28947249 6.01157477 19.05689908 0.00348386 -0.00060667 -0.00592773
N 24.29548800 0.04477205 2.93376370 -0.00157926 -0.01251186 0.00561504
N 17.99309379 19.41629484 10.50674764 -0.00507320 -0.00390094 0.00537139
N 20.33707260 12.80754317 5.94246406 0.00344689 -0.00379312 0.00355017
N 22.26526494 19.62119749 13.94013993 -0.00101981 0.00510872 -0.00038888
N 17.62643843 12.60449349 14.00843883 0.00048211 -0.00065524 0.00597901
N 24.51851121 19.48438842 6.11211311 -0.00007591 -0.00453724 -0.00017954
N 22.45699087 25.70056468 10.65164313 -0.00463335 0.00192367 -0.00673469
N 20.28753317 19.19489973 2.24500023 0.00100259 0.00124516 -0.00186212
N 24.69820564 0.22608031 18.81770674 -0.00481890 -0.00017535 0.00147614
N 17.76876651 19.27198008 27.01581600 -0.00710961 -0.00119051 0.00425220
N 20.27408616 12.90353190 22.02516914 0.00102322 0.00443568 -0.00722809
N 22.26272690 19.24566432 30.55193106 -0.01069972 0.00513778 0.00481092
N 17.93910591 12.79035470 30.52329983 -0.00348043 -0.00319459 0.00663465
N 24.11875982 19.21201259 22.46860517 -0.00159000 0.00520166 -0.00399830
N 21.68669131 0.25439188 27.35500323 -0.00053381 -0.00568642 0.00456611
N 20.29096786 19.26279895 18.67683782 0.00156237 0.00478045 0.00301896
C 7.71197110 0.53988503 4.66478349 0.00415274 0.00447664 0.00319245
C 0.92373629 6.16087320 13.07408838 0.00589126 -0.00353191 0.00100513
C 3.31278623 12.76487151 3.25622240 -0.00383555 -0.00101828 0.00409799
C 5.18395859 6.83295061 11.50089404 0.00482457 0.00786864 0.00172712
C 1.20725808 12.35134160 11.50917577 0.00127475 -0.00285990 -0.00185828
C 7.59978230 6.81039570 3.29310386 -0.00447540 0.00730833 0.00628484
C 5.43373349 0.52240311 13.29659701 -0.00828918 0.00109959 -0.01456060
C 3.33773845 6.01487342 4.75772969 0.00595453 0.00778169 -0.00335419
C 7.28581746 1.19072984 5.83682911 0.00039518 0.00647650 0.00262104
C 1.29235835 5.37447057 14.13636005 -0.00108263 -0.00039652 -0.00318345
C 2.99133076 12.00148370 2.15541439 0.00240929 0.00612601 0.00068055
C 5.60068323 7.54012339 10.37011634 0.00179334 -0.00131967 0.00968502
C 1.56591671 11.80565580 10.32745711 -0.00312689 0.01076310 0.00413877
C 7.21879884 7.42452981 2.11300243 0.00354352 -0.00090273 0.00377565
C 5.82875503 1.28344713 14.33342424 0.00389351 -0.00454434 0.00049517
C 2.95913597 5.38889494 5.95218502 0.00065631 0.00215851 0.00295691
C 6.37377258 2.28811781 5.76489018 0.00281638 0.00534391 0.00305906
C 2.23040687 4.34251233 13.93672203 0.00251488 0.00753338 -0.00567380
C 2.01386495 10.93119187 2.28022639 0.00411161 0.00227497 -0.00040882
C 6.48692070 8.68167024 10.51074952 -0.00130404 -0.00519517 0.00231112
C 2.37092231 10.62465771 10.27934884 0.00165365 -0.00134383 -0.00327558
C 6.39897778 8.60094502 2.08848707 -0.00048325 0.00095716 -0.00513361
C 6.65204765 2.39125545 14.17537681 -0.00126302 0.00162968 0.00189898
C 2.00490699 4.35630986 5.85894325 0.00314270 0.00778262 0.00705852
C 6.11392336 2.77092232 4.48943213 -0.00541300 -0.00596945 0.00429992
C 2.34192112 3.77182874 12.64329823 0.00274993 -0.00439221 0.00004949
C 1.86833728 10.39576994 3.57670002 0.00663280 0.00320636 -0.00046826
C 6.78068025 9.09765037 11.81129094 -0.00304301 0.00315995 0.00110122
C 2.59392647 9.93359536 11.51169756 -0.00629608 0.00077900 -0.00130131
C 6.27177292 9.24029559 3.37858565 -0.00066348 0.00065891 -0.00634017
C 6.76042498 2.81088751 12.83217000 -0.00204353 0.00456475 0.00226000
C 1.66366129 3.79179227 4.59201857 -0.00868270 -0.00105218 0.00200194
C 6.44333699 2.05634567 3.40133557 0.00574722 -0.00884284 -0.00667130
C 1.89041678 4.49576283 11.60066981 -0.00303194 -0.00208170 -0.00834664
C 2.17369375 11.14119215 4.64588754 0.00669374 -0.00167185 0.00973341
C 6.37199307 8.37430478 12.96035491 0.00283042 0.00120758 -0.00106569
C 2.28162825 10.52942137 12.73935142 -0.00160595 -0.01201082 0.00137214
C 6.53242927 8.55447830 4.53650234 -0.00361574 -0.00005472 -0.00899104
C 6.35245486 2.12693021 11.71429066 0.00051804 0.00313665 -0.00978286
C 2.07879686 4.32259902 3.40996155 -0.00018847 -0.00119421 -0.00367349
C 7.17537305 0.89394510 3.43613072 0.00007936 0.00066442 -0.00305070
C 1.28213998 5.76275128 11.73543859 0.00005241 0.00144389 -0.00252858
C 2.84401879 12.35037714 4.60500662 -0.00125866 0.00575530 -0.00066680
C 5.60255238 7.22363018 12.81362388 0.00114884 -0.00152266 -0.00384509
C 1.51066071 11.71502969 12.72470909 -0.00092444 -0.00120155 0.00702436
C 7.17002872 7.31637077 4.49146187 0.00861327 -0.00027003 0.00254492
C 5.68068529 0.89131630 11.86615501 -0.00659202 0.00407106 -0.00212953
C 2.88771169 5.54961672 3.52311078 0.01101523 0.00474332 0.00865591
C 6.92581724 0.16139135 1.17814086 0.00227225 0.00963161 0.00153717
C 1.52762544 6.31111627 9.49605235 -0.00283929 -0.00246140 0.00175698
C 2.72884660 12.93122195 6.89533338 0.00627965 0.00424970 0.00636239
C 5.65806148 6.55128582 15.18144644 0.01059497 0.00597156 -0.00516970
C 1.60885117 12.27828930 15.07069970 0.00290594 -0.00101682 -0.00647241
C 6.92087051 6.80527835 6.85691549 0.00287570 -0.00801282 -0.00334782
C 5.80443699 0.33580017 9.42115417 -0.00634004 0.00182109 -0.00259425
C 2.46692590 6.29767813 1.25375919 -0.00069363 -0.00672174 -0.00039396
C 7.33616887 12.19138419 16.62570083 0.00063375 0.00555862 -0.00096109
C 1.33125421 7.60622538 8.66762945 0.00099658 0.00348822 -0.00538586
C 2.98598467 1.26929235 7.82648603 0.00310618 -0.00208765 0.00359887
C 5.82997652 5.24790283 32.50387709 0.00619359 0.00704958 0.00348782
C 1.33897693 0.72510581 32.48451504 -0.00418693 0.00083552 0.00094758
C 6.99465155 5.66317635 7.86846393 -0.00081857 0.00363862 0.00158521
C 5.58299903 12.06213434 8.23243965 0.00290603 0.00950199 0.00275013
C 3.00460217 7.36108763 16.79073859 0.00234569 0.00529852 0.00074628
C 7.64458511 0.45614821 21.55504456 -0.00080994 0.00439621 -0.00198388
C 0.87979919 6.10177525 29.40069600 -0.00022990 0.00597440 0.00751480
C 3.40296026 12.44562448 19.85883642 0.00510118 0.00313898 0.00499608
C 5.02514201 7.07259898 28.18143048 -0.00551632 -0.00055667 -0.00382087
C 0.79820906 12.23593726 28.01277939 -0.00104985 0.00247959 -0.00767444
C 7.38128402 6.81919440 19.73850484 -0.00219986 0.00550208 0.00955867
C 5.08176028 0.41273301 29.33833978 -0.00439887 -0.01142844 0.00503405
C 3.10734547 6.00292007 21.27958259 0.00756569 -0.00232859 0.00766851
C 7.03926556 1.10586653 22.63523934 -0.00216843 -0.00461121 0.00600526
C 1.13329018 5.48940148 30.60630408 0.00304955 0.00486517 -0.00853538
C 3.00433773 11.88039600 18.70468205 -0.00147585 0.00478061 -0.00149639
C 5.40921639 7.76522474 26.97774388 0.00019467 -0.00620779 0.00107850
C 1.12623826 11.55003972 26.88327975 -0.00020533 -0.00493544 -0.00228721
C 7.20644386 7.55438106 18.61928344 -0.00171349 0.00405359 0.00359331
C 5.51948998 1.13413513 30.50602472 -0.00136687 -0.00383738 0.00180156
C 2.75613442 5.27744046 22.38299753 -0.00054093 -0.00140051 0.00193774
C 6.07802464 2.10150507 22.30271797 0.00899280 -0.00090039 -0.00407769
C 1.94413891 4.34305183 30.62030010 -0.00897557 -0.00058311 0.00341826
C 2.15856687 10.74222762 18.72041621 -0.00532096 0.00758277 -0.00357846
C 6.33803150 8.75872023 27.03855025 -0.00365181 -0.00112003 -0.00346379
C 2.08869186 10.51913686 26.93946998 0.00006834 0.00083238 0.00083725
C 6.47421408 8.73216357 18.74852889 0.00018165 0.00274913 0.00361012
C 6.43165312 2.14560444 30.42866257 -0.00058871 0.00926755 -0.00396485
C 1.88764311 4.18717858 22.25848469 -0.00658905 0.00169486 0.00257725
C 5.93254790 2.56675245 21.00064391 -0.00421889 0.00744161 -0.00698946
C 2.12401221 3.67618970 29.37564288 -0.00352022 -0.00171846 -0.00256055
C 1.79688131 10.15403685 19.95571891 0.00051885 0.00052702 -0.00069067
C 6.68344022 9.25524897 28.36706135 0.00016412 -0.00138031 -0.00372947
C 2.43294203 10.05237647 28.21921242 0.00365088 0.00242666 0.00010325
C 6.11288187 9.16220676 19.99472992 0.00154758 0.00663731 0.00365832
C 6.64617301 2.71365125 29.14857343 0.00411957 -0.00651054 0.00319518
C 1.75890560 3.59693122 20.97739988 -0.00893776 -0.00150692 -0.00559799
C 6.51252459 1.85550054 19.94699941 -0.00582073 0.00448860 -0.00041966
C 1.85820349 4.29749123 28.14369172 -0.00049027 0.00016064 0.00212197
C 2.24598052 10.77528707 21.12039637 0.00011857 -0.00261275 0.00273526
C 6.25950412 8.61832847 29.51589765 -0.00434546 0.00585881 0.00408666
C 2.09442178 10.76365016 29.34785745 0.00502042 -0.00065670 -0.00570402
C 6.45362897 8.53487168 21.16316996 -0.00201286 0.00632465 -0.01256569
C 6.16666234 2.17176072 27.98356277 -0.00136312 -0.00478353 0.00664953
C 2.27175718 4.26075002 19.86521215 -0.00227865 0.00115867 -0.00078739
C 7.30150615 0.73713528 20.19634054 -0.00520029 0.00120984 0.00781149
C 1.25635357 5.59508892 28.15539921 0.00213620 0.00587911 -0.00740220
C 3.01477084 11.95517293 21.09482019 -0.00010471 0.00893979 -0.00092082
C 5.48199067 7.45020927 29.41404907 0.00197102 -0.00247320 0.00172627
C 1.28525768 11.87983851 29.26464029 0.00341781 -0.00304101 -0.00487133
C 7.02548516 7.24149515 21.01595167 -0.00095243 0.00415545 0.00806956
C 5.40766874 0.95698914 28.10813450 0.00111980 0.00074936 0.00280356
C 2.83019900 5.53371853 19.99387063 0.00186055 0.00556574 0.00380267
C 7.42903959 0.20567959 17.79296623 0.00128575 0.00874850 0.00306876
C 1.50055679 6.05307571 25.75480232 -0.00398270 0.00049364 0.00903135
C 2.65996757 12.67749862 23.40071234 0.00176658 -0.00429073 -0.00005356
C 6.09316240 6.55172107 31.60574028 -0.00356081 0.00394128 -0.00364903
C 1.45141716 12.57017500 31.56244077 -0.00107432 -0.00412659 -0.00397626
C 7.04195085 6.61868292 23.42765245 -0.00441127 0.00456201 0.00058076
C 5.65620304 0.36922604 25.78501288 0.00208101 -0.00130215 0.00501873
C 2.93838219 6.18133130 17.62477982 -0.00219293 -0.00076320 -0.00452479
C 7.24159356 11.73246272 0.43258467 -0.00878809 -0.00173320 -0.00443275
C 1.25472322 7.19457052 24.79939124 0.00195410 -0.00002050 -0.00130484
C 2.70496686 0.74631970 24.45684090 0.00045729 -0.00139352 -0.00719789
C 5.69557391 5.22072120 15.89261378 -0.00496705 0.00523506 -0.00408884
C 1.70989914 1.01912676 16.04317607 0.00362712 -0.00241867 0.00554670
C 7.26315183 5.40718328 24.29577766 -0.00317112 0.00093155 -0.00105082
C 5.39799505 11.74896720 24.77494585 -0.00617623 0.00577890 -0.00640958