1920
Time=60000.00000005 pbc="T T T" Lattice="25.49938516 0.00000000 0.00000000 0.00000000 25.57117203 0.00000000 0.00000000 0.00000000 32.94786502" energy=-12250.22050750 virial="-44.91060253 19.27821659 7.51832469 19.27821659 -42.30634748 1.31966197 7.51832469 1.31966197 -27.46489415" stress="0.00000413 0.00087999 0.00028515 0.00087999 0.00018154 0.00005489 0.00028515 0.00005489 0.00091807" Properties=species:S:1:pos:R:3:vel:R:3
O 5.45270686 2.71372949 7.31212633 0.00586392 0.00378762 0.00060576
O 2.48996717 3.77128482 15.09305351 -0.00161122 0.00058269 0.00228469
O 1.48476007 10.62729439 1.19935148 -0.00125430 0.00453588 0.00064697
O 6.67102492 9.07382689 9.10181699 -0.00093701 -0.00200874 0.00172129
O 2.86627230 10.45247026 9.73638457 -0.00423199 -0.00238154 0.00491857
O 5.71931667 8.67984868 1.12656577 -0.00186751 0.00311193 -0.00279660
O 6.87667082 2.90880210 15.56235168 0.00252295 -0.00085074 0.00093019
O 1.83454615 3.71679902 7.22327179 0.00999530 -0.00025650 -0.00576834
O 6.41190744 1.15637934 17.57960217 -0.00149030 -0.00431713 0.00388622
O 1.80529898 5.56253236 9.00858744 -0.00390906 -0.00014715 -0.00124592
O 2.27782923 11.28884900 7.34527227 0.00300671 -0.00251149 -0.00546327
O 6.77368537 7.42016935 32.16001254 -0.00100898 -0.00489040 -0.00236267
O 2.24198407 11.49360393 32.06720682 0.00265842 -0.00434024 -0.00471470
O 6.08474009 7.69187443 7.01012865 0.00160620 -0.00037785 -0.00620704
O 6.43288125 1.33647164 9.31871818 -0.00329989 -0.00126192 -0.00049809
O 2.13735974 5.18792238 17.29441196 0.00220945 0.00260789 0.00091746
O 5.79777421 2.60128245 23.37161778 -0.00305648 0.00398714 0.00769735
O 2.71643695 3.70977536 31.49272448 0.00173098 0.00460952 -0.00591913
O 1.47813812 10.15319928 17.70701591 -0.00249918 -0.00143988 -0.00049949
O 7.40751667 8.71327925 25.95154457 0.00148649 0.00232161 -0.00501678
O 2.67683433 9.70525754 26.10976306 0.00091540 -0.00670810 0.00472989
O 5.72757760 9.05590353 17.46226110 -0.00275653 0.00040868 -0.00464119
O 7.15171298 2.40063319 31.78901470 0.00031683 0.00143675 0.01012377
O 1.78230490 3.25132428 23.24986457 -0.00247524 0.00363215 0.00318062
O 6.70272941 1.24520428 1.17803683 -0.00275678 0.00255401 0.00363930
O 2.22163355 4.99529803 25.24994106 -0.00072626 0.00031518 0.00604912
O 2.46278480 11.37125294 24.10162511 -0.00310988 0.00236030 0.00875424
O 6.18069511 7.83737298 15.34811518 0.00120459 -0.00248452 0.00017612
O 1.70207482 11.78248980 15.66789862 -0.00110007 0.00358753 -0.00176582
O 6.70202887 7.62198717 23.75524051 -0.00342765 0.00409821 -0.00272952
O 6.65938886 1.42533218 25.44647720 -0.00483075 0.00240487 -0.00387516
O 2.44489827 5.03056439 0.95619296 -0.00065348 0.00216275 0.00444567
O 6.04759854 15.27648095 6.85544555 -0.00102734 0.00210147 0.00539604
O 1.97980959 16.72651547 15.05522299 0.00697638 0.00484351 -0.00255368
O 1.99590341 22.74987672 1.57845538 0.00001814 -0.00054586 -0.00308765
O 7.05349137 21.96283703 9.43363191 -0.00055306 0.00088971 0.00108269
O 2.25591347 22.73609447 9.86470875 -0.00573727 0.00095857 0.00235356
O 5.97905605 21.91948192 0.93537542 -0.00303085 -0.00153693 0.00789103
O 6.35724388 15.83491791 15.28691526 -0.00451491 0.00565587 0.00688416
O 2.21080653 16.16201313 6.93497233 -0.00287934 -0.00283971 0.00324677
O 5.77608952 14.23239055 17.15128008 -0.00367236 -0.00348686 0.00594572
O 2.09706659 17.94167235 8.73414787 -0.00070197 0.00141658 -0.00293571
O 1.63481247 24.45749661 7.85070405 0.00308029 0.00029266 0.00262051
O 6.74859087 20.43034726 31.88432283 0.00098229 0.00002786 -0.00014893
O 1.84929544 24.15129763 32.30714002 -0.00262038 0.00407593 0.00473324
O 6.37547770 20.66806017 7.24633756 -0.00294074 0.00300965 0.00023846
O 6.65149089 14.17323577 9.05144336 -0.00192022 0.00085979 0.00076511
O 1.65730377 18.28892402 16.95978020 -0.00038634 -0.00178083 0.00165496
O 5.65669086 15.16336169 23.56150534 -0.00136075 -0.00087044 -0.00966674
O 3.05648591 16.33219108 31.34899148 0.00154619 0.00230494 -0.00236293
O 1.79091505 23.29912275 17.72547958 -0.00735409 -0.00579847 0.00213015
O 7.39633354 21.34420829 25.88709408 0.00007680 -0.00155159 -0.00022343
O 3.33811719 23.33099734 26.09538190 -0.00244223 0.00352744 0.00441556
O 5.38067758 21.97318032 17.81641314 -0.00077888 0.00558172 -0.00261925
O 7.12721443 15.46645279 31.68600868 -0.00615407 0.00155390 0.00520858
O 1.79854308 16.56383550 23.08923684 -0.00130658 -0.00969276 0.00084550
O 6.77081724 13.87018868 0.81755860 0.00124610 0.00105796 0.00370101
O 1.73213889 18.08418505 25.31156209 -0.00001974 0.00954077 -0.00355292
O 2.44791477 24.36287563 23.97259728 0.00053132 -0.00895886 0.00555934
O 6.04795875 20.79950032 15.65565501 0.00136302 0.00234836 -0.00021596
O 2.48086562 24.79083304 15.76661851 0.00309466 0.00275472 -0.00449418
O 6.19616772 20.30684831 23.80120096 0.00034836 -0.00239460 -0.00425214
O 6.48501277 13.77857906 25.58051648 0.00563835 0.00280483 -0.00258300
O 2.46596364 17.64596071 0.56341178 -0.00183691 -0.00180556 -0.00683797
O 13.91887916 2.64874627 7.19572851 -0.00041576 0.00430940 -0.00184681
O 10.70705743 3.72345020 15.15934683 0.00275664 0.00016110 0.00079956
O 9.97592901 9.65872409 1.39089413 -0.00554353 0.00197085 0.00232154
O 15.48450901 9.32994142 9.55453712 0.00283992 0.00662792 0.00218731
O 11.57269661 10.10018614 9.78991234 -0.00017395 -0.00051227 -0.00094768
O 14.50025011 8.42776502 1.06491170 -0.00483049 -0.00484386 -0.00312648
O 15.58105457 2.78054877 15.30101326 -0.00184892 0.00287222 -0.00458055
O 9.89242797 3.64823317 7.04035647 0.00386401 -0.00384438 0.00228001
O 15.13681752 1.25490592 17.46662845 0.00423976 -0.00172252 0.00227982
O 10.22603673 5.39790560 8.89304361 0.00144110 0.00488612 0.00188125
O 11.06758126 11.39249153 7.59066750 0.00111857 -0.00656535 0.00070404
O 14.90015832 6.83341434 32.01054484 0.00396801 -0.00012943 0.00215064
O 10.31166300 11.10552223 32.22650844 0.00895336 -0.00318270 0.00006359
O 14.59323975 7.63526878 7.68433404 0.00209004 -0.00023583 0.00308112
O 14.78376430 1.14790427 9.10465876 -0.00244859 -0.00184055 0.00511469
O 10.81287672 5.19711826 17.33426021 0.00212728 -0.00043611 0.00082083
O 14.51540892 2.67086004 23.67065283 -0.00200394 -0.00235554 -0.00309982
O 11.15810028 3.64137634 31.86536741 -0.00277343 -0.00145999 -0.00033381
O 9.94589827 10.19231007 17.81041457 -0.00802224 0.00589723 -0.00362762
O 15.37658418 9.02413102 26.11279025 -0.00721942 -0.00018954 0.00151289
O 10.98265909 9.79567093 25.97633076 -0.00564092 -0.00070215 0.00363260
O 14.62194458 9.50315247 17.72033943 0.00165710 0.00779901 0.00162151
O 15.62126962 2.39301771 32.06259227 0.00402186 0.00270590 -0.00138879
O 10.37940755 3.85170528 23.55446950 0.00563698 -0.00244931 0.00464235
O 14.84296361 1.30302373 1.23860142 -0.00108518 0.00452569 0.00036660
O 10.90688886 5.00107554 25.82295104 0.00097633 -0.00417523 -0.00506866
O 10.53014893 11.45137515 24.00072844 0.00270211 -0.00527676 0.00408913
O 14.88035545 7.93613706 15.71179322 -0.00113769 0.00035579 -0.00045924
O 10.19673918 11.73537135 15.76627423 -0.00193486 -0.00145838 -0.00818213
O 15.12425947 7.80791989 23.93927044 -0.00046737 -0.00239335 0.00446628
O 14.96550350 1.12155977 25.81547430 -0.00264921 0.00256727 -0.00222510
O 10.58442033 5.06703251 0.92121567 -0.00628602 0.00003685 0.00025137
O 14.60522341 15.40417814 6.67944230 -0.00009710 -0.00143079 -0.00448496
O 10.59168698 16.50950678 15.12620601 0.00058445 0.00150704 0.00482925
O 10.09699746 22.94762359 1.42199179 -0.00329619 -0.00604139 0.01105816
O 15.55489549 21.64509298 9.33901633 0.00093235 -0.00203272 0.00344191
O 11.09498275 22.89952897 9.49965596 -0.00003623 0.00046195 0.00367502
O 13.86570131 21.92783760 1.18036660 -0.00464756 0.00512848 0.00083743
O 15.14204846 15.37674489 15.15632311 -0.00322970 -0.00601530 -0.00179987
O 9.90711390 16.50783894 6.96885108 0.00135048 -0.00072174 -0.00682930
O 14.48614344 14.08766951 17.30597277 0.00380233 -0.00257008 0.00392064
O 10.76385575 18.04443985 8.82503787 -0.00093968 -0.00442333 -0.00105388
O 10.35730704 24.50401167 7.59849856 -0.00227888 0.00605613 0.00084869
O 14.97554937 20.46517277 32.15929956 -0.00106718 -0.00006649 -0.00166341
O 11.16400338 24.17933448 32.17252395 0.00187224 -0.00308715 0.00503605
O 14.82638321 20.42193126 7.23203156 0.00234885 -0.00054387 0.00000180
O 15.00813422 14.24703745 8.92805641 -0.00218076 -0.00483407 0.00141991
O 9.88395452 18.11222859 17.12425521 -0.00637431 0.00255719 -0.00472784
O 14.42413932 15.39297025 23.44012562 0.00457932 0.00263038 -0.00083312
O 11.18262007 16.42182128 31.52697372 -0.00100060 0.00125003 0.00000973
O 10.05795864 22.84608077 18.01298998 -0.00469344 0.00425328 -0.00169255
O 15.67751809 21.78900561 25.84023615 0.00058086 0.00033359 0.00455125
O 11.24483600 22.48970670 25.99326122 0.00501350 -0.00544283 0.00001653
O 14.11274904 21.54466036 17.73908496 0.00255614 0.01196016 -0.00451742
O 15.70705180 15.22447193 31.88247220 0.00007935 -0.00498438 -0.00591521
O 10.21315036 16.27911081 23.33521684 -0.00084786 0.00013000 0.00031951
O 14.41372393 13.78228788 0.66662039 0.00169452 0.00102863 -0.00250935
O 10.50693209 17.76218946 25.42117818 -0.00192648 -0.00012481 -0.00008749
O 10.61499662 24.49612693 24.27405670 -0.00195570 0.00263827 0.00388875
O 14.77023268 20.37779302 15.54423646 0.00158143 -0.00431228 0.00014258
O 10.15549415 24.13259085 15.78366309 -0.00287173 -0.00143594 0.00007556
O 14.64650154 20.50855444 23.81098065 0.00294925 -0.00403846 0.00368827
O 14.61579238 13.97606112 25.61773761 -0.00005778 0.00492573 0.00059621
O 10.68787687 17.79192846 0.64638898 -0.00142212 0.00060266 -0.00323518
O 22.95361797 2.58103662 7.33491095 0.00800993 -0.00313256 0.00088447
O 19.41782771 3.58928764 15.35209393 0.00316964 0.00566815 0.00047671
O 18.72457967 10.06385994 0.87959835 0.00206104 -0.00414769 0.00737142
O 23.85551326 9.05938339 9.34390236 0.00399243 0.00940286 -0.00085684
O 19.62618856 10.38542938 9.53628368 -0.00117843 0.00796121 -0.00343111
O 22.99346675 9.44074185 1.35757584 -0.00140820 0.00456791 -0.00361582
O 24.19381528 2.68835818 15.33792661 -0.00203101 -0.00271160 0.00688128
O 18.05942973 3.82184052 7.23339151 0.00327735 0.00175526 0.00259008
O 23.60031879 1.43139326 17.36079961 -0.00234514 0.00104909 -0.00085952
O 19.20205679 5.25793667 9.26352627 0.00296916 0.00161342 -0.00454368
O 19.17868374 11.39451521 7.21332287 -0.00138977 -0.00189359 0.00056365
O 23.36445708 7.51692048 32.35005802 -0.00382188 0.00099124 0.00725698
O 19.54498088 11.53046583 31.84463933 -0.00833043 0.00040395 0.00547714
O 23.00530315 7.65402802 7.21913622 -0.00105224 0.00283391 0.00171193
O 23.79647596 1.18014949 9.15100041 0.00077721 0.00123750 0.00000856
O 19.28802731 4.99757729 17.47551992 -0.00670519 0.00098867 -0.00138168
O 22.96354135 2.83145230 23.72868561 0.00316328 -0.00515664 0.00834903
O 19.64353609 3.54287102 31.87581035 -0.00788393 0.00506046 -0.00483121
O 18.86919508 10.27214804 17.80605619 -0.00152523 -0.00450201 0.00494304
O 23.95933048 9.20318757 26.24028722 -0.00004837 -0.00454277 0.00312892
O 19.56350235 9.96822351 25.83913616 0.00133020 -0.00336692 0.00407329
O 22.75849975 8.95211820 17.65580862 0.00475670 -0.00548832 -0.00009142
O 24.36195616 2.20423342 31.78593191 0.00283680 -0.00044305 -0.00556059
O 18.43049194 3.81641016 23.68258859 -0.00215568 0.00537211 -0.00641232
O 23.32688628 1.38019164 1.07300750 -0.00066985 0.00037023 -0.00141501
O 19.06633760 4.93506596 25.70673886 -0.00607928 0.00259878 0.00617716
O 19.12098038 11.56890283 23.94556858 0.00254190 0.00841735 -0.00593691
O 23.04985377 7.64378727 15.46970269 0.00095655 -0.00505399 -0.00390277
O 19.41838331 11.60963906 15.71425926 -0.00268102 -0.00116062 -0.00007468
O 23.45153616 7.83132325 24.11855293 0.00072372 -0.00253484 0.00301009
O 23.42443071 1.15376427 25.57491638 -0.00240026 0.00275852 0.00205048
O 19.16833573 4.93917071 1.07062061 -0.01021159 -0.00758992 0.00062463
O 22.49885057 15.24548913 6.66529996 0.00771450 -0.00423877 -0.00399004
O 19.14690699 16.56312355 14.99576481 0.00053096 0.00261505 -0.00758591
O 18.51449473 22.49677122 1.54015566 -0.00150446 -0.00052376 0.00268727
O 24.05213674 21.56074402 9.45626744 0.00032069 0.00051441 0.00167581
O 19.52778427 22.34642082 9.49651265 -0.00535038 -0.00076550 -0.00270305
O 22.72045296 22.13556210 1.20793513 -0.00027382 -0.00075105 -0.00044569
O 23.53116754 15.56220959 15.37247406 -0.00329442 -0.00049373 -0.00757324
O 18.76282848 16.53602672 6.46115875 -0.00084300 0.00094449 -0.00941581
O 23.37768741 14.02212949 17.37883312 0.00526111 -0.00270860 0.00040225
O 18.96857685 17.81811575 8.68987936 -0.00127224 0.00168459 0.00022980
O 19.46765198 24.14710193 7.58316950 -0.00084847 -0.00716620 -0.00739963
O 23.01343217 20.55544402 32.01240252 -0.00418804 0.00389328 -0.00075703
O 18.75380536 23.99835377 32.36398537 -0.00578613 0.00145336 0.00185913
O 23.36818083 20.27632252 7.19608189 -0.00558522 -0.00513073 0.00134779
O 23.09026677 14.25971288 9.09760776 -0.00061462 0.00013574 0.00716077
O 19.02546182 18.21902088 17.16053892 -0.00058473 0.00425635 0.00707879
O 22.62489689 15.48776571 23.36995409 0.00079659 0.00038594 0.00422235
O 19.66974329 16.75759336 31.22230362 0.00579296 -0.00176565 0.00152728
O 18.48300751 23.01386725 17.77141252 0.00406210 0.00584435 -0.00001101
O 24.20898484 21.56846368 25.84467778 -0.00259219 0.00099110 -0.00579035
O 19.55256603 22.58398314 25.96371365 0.00357315 -0.00758121 0.00190779
O 22.99495197 22.11045738 17.47355416 0.00232963 -0.00343309 -0.00069049
O 23.57144321 15.44108173 31.57498971 -0.00113661 -0.00134132 -0.00007592
O 18.98451502 16.29067516 23.11325472 -0.00066628 -0.00146820 0.00158537
O 22.96146538 13.89446479 0.71698408 -0.00002720 0.00374071 -0.00371512
O 18.74408039 17.90937123 25.04439845 -0.00074151 -0.00435252 -0.00211455
O 19.15094997 24.09018110 23.90397057 -0.00646901 0.00163069 -0.00409043
O 23.71113354 20.23122183 15.57572636 -0.00284875 -0.00055500 0.00680355
O 19.34959814 23.98385984 15.59626407 -0.00169634 -0.00300620 0.00236162
O 23.30607393 20.53840516 23.69683725 0.00151743 0.00528715 0.00197942
O 23.09110786 14.06628104 25.33718764 0.00585230 -0.00031871 0.00163902
O 18.97714202 18.09502832 0.37933118 -0.00406483 -0.00390157 0.00286731
N 7.59925800 12.58103145 2.49774554 -0.00448202 0.00199077 0.00488943
N 1.04057044 6.80496347 10.76277680 -0.00699277 0.00002283 -0.00109465
N 3.14070622 25.35466401 6.27693199 0.00298109 0.00194011 0.00027013
N 5.28298373 6.36899851 13.78400366 0.00247057 0.00106458 -0.00842440
N 0.94513066 0.17399486 14.36928016 0.00035581 0.00258767 -0.01406576
N 7.64874895 6.54123413 5.79027187 0.00168877 -0.00286397 0.00424719
N 5.37836436 13.08277380 10.60129744 -0.00345242 0.00018145 -0.00201836
N 3.11664657 6.48566804 2.56280794 -0.00149594 -0.00273728 -0.00156995
N 7.29075943 13.21758185 18.62029268 -0.00304784 -0.00950212 0.00063739
N 1.11593122 6.33762559 26.85998201 -0.00535640 -0.00549073 0.00038488
N 3.00121264 0.35373709 22.39359586 -0.00435687 0.00507568 -0.00064743
N 5.34403309 6.63216616 30.59123519 0.00672317 0.00309946 0.00451218
N 0.79789034 25.18578102 30.58928098 -0.00083062 0.00097233 0.00058488
N 7.54446260 6.49676430 21.97728641 -0.00474396 -0.00345805 -0.00016940
N 5.35074416 12.74106107 27.30563085 0.00951844 -0.00122983 0.00109787
N 3.20023712 6.38341926 18.90358171 -0.00089762 -0.00090732 0.00676494
N 7.85859581 0.26768811 2.91588842 -0.00453110 -0.00129479 -0.00505136
N 1.16558444 19.38598806 10.21053153 0.00202579 0.00279950 -0.00153756
N 3.51782183 12.43937121 6.00363898 -0.00062783 -0.00698558 0.00010119
N 5.32616563 19.34046692 14.05042354 0.00703937 -0.00380893 -0.00613470
N 0.73843283 13.15410940 14.13240058 -0.00101993 0.00456949 -0.00362739
N 7.52597998 19.41975326 5.69593761 -0.00980858 0.00380157 -0.00382026
N 5.16186837 0.43297758 10.99100170 0.00453460 0.00124720 0.00298720
N 3.36267709 18.88368175 2.19462559 0.00203014 0.00106801 0.00987337
N 7.99690796 0.25804546 18.99090153 -0.00184106 -0.00206543 0.00829174
N 1.02484219 19.23022602 27.14595490 -0.00017695 0.00484734 -0.00157848
N 3.04400775 12.72913014 22.28467212 0.00840463 0.00079210 -0.00048533
N 5.29440487 19.34296783 30.48145878 0.00627627 -0.00171361 0.00483645
N 1.05292446 12.60960054 30.50798041 -0.00414986 0.00327272 0.00119999
N 7.60074263 19.44061878 22.19848857 0.00383516 -0.00000531 -0.00077342
N 5.51486855 0.14786739 26.99425340 0.00144985 -0.00521069 0.00039039
N 2.82605306 19.47666242 18.45290736 -0.00618203 -0.00653198 0.00387198
N 16.04813631 12.77480866 1.97628678 0.00213658 -0.00630789 0.00016533
N 9.73003961 6.79464570 10.68488044 -0.00131772 0.00073542 0.00039001
N 11.68267686 0.01434930 6.10339844 0.00079588 0.00174090 -0.00709056
N 13.79119179 6.67616743 14.16774573 0.00185003 0.00531153 -0.00452580
N 9.50113877 25.51093314 14.06105466 0.00199735 -0.00095183 -0.00808231
N 15.76638074 6.48630129 6.00384428 0.00060707 0.00565553 -0.00313889
N 13.90284766 12.93754911 10.47411947 -0.00047774 -0.00673382 -0.00076798
N 11.59083097 6.28358212 2.55057689 -0.00044391 0.00283013 -0.00299322
N 15.51549557 12.56137578 18.69093115 0.00083113 0.00763136 -0.00445675
N 9.45182156 6.10111174 27.22322679 0.00101151 -0.00255787 -0.00187338
N 11.95498808 25.45546370 22.70401202 -0.00282769 0.00136311 0.00573824
N 13.87289006 5.73750796 30.30570952 -0.00186680 -0.00212965 0.00411976
N 9.59055206 25.07287523 30.72957410 -0.00689252 0.00677157 0.00124189
N 16.06343033 6.59579545 22.21343080 -0.00443891 -0.00555352 -0.00183600
N 13.65999955 12.88645514 27.38054925 0.00059182 -0.00027290 -0.00106526
N 11.96453269 6.42319602 18.86343479 -0.00558779 -0.00289725 0.00044083
N 16.30662733 0.41781890 2.73088242 -0.00284348 -0.00431532 -0.00050953
N 9.43585662 19.14707823 10.36542523 0.00337775 0.01938773 0.00303810
N 11.84740492 12.61674122 5.71607044 0.00199960 -0.00069634 0.00338614
N 13.67195363 19.25693866 13.95667951 -0.00325883 0.00470148 -0.00032459
N 9.12810482 12.79343843 13.95723821 0.00053210 -0.00178276 0.00644645
N 15.88523645 19.18650777 5.57374976 0.00177122 -0.00780720 0.00354362
N 13.85914323 25.49685828 10.80992797 -0.00303709 0.00760927 0.00355192
N 11.79927195 18.99835748 2.22908283 -0.00077001 -0.00141867 0.00565170
N 15.96682855 25.46570798 19.06704075 -0.00270434 0.00264194 -0.00014504
N 9.64147686 19.15712725 27.00097877 0.00364434 -0.00748746 -0.00121748
N 11.57147612 12.76194123 22.40861706 0.00370539 -0.00141681 0.00033655
N 14.13190475 19.08290056 30.52698342 -0.00150679 -0.00507455 0.00316467
N 9.61712233 12.49418541 30.62031313 -0.00372562 0.00127971 -0.00213705
N 15.81895800 19.12699874 22.39866722 0.00596865 -0.00005552 0.00234198
N 13.95796399 25.46610281 27.45065067 0.00031316 -0.00470634 -0.00313060
N 11.47522155 18.88541955 18.66895862 -0.00659483 -0.00315116 -0.01018256
N 24.47038367 12.86999809 2.22311738 -0.00479401 0.00187355 -0.00467746
N 17.90692782 6.31575171 10.80942482 0.00476470 -0.00769210 -0.01046870
N 20.12130671 25.51408751 5.98178066 -0.00274277 -0.00460348 0.00554273
N 21.83574570 6.49449908 13.93952944 -0.00416049 -0.00144721 0.00406180
N 18.15543233 25.15598051 14.01245619 0.00405603 -0.00309880 0.00382602
N 24.48965300 6.64803532 5.86363534 0.00540397 0.00106370 0.00505691
N 22.19540365 12.93205335 10.70627188 0.01106287 0.00549812 0.00469735
N 20.41314911 6.05742848 2.67148457 -0.00095967 -0.00074666 0.00145533
N 24.58910703 12.85062736 18.94097420 -0.00585339 -0.00198201 0.00063513
N 17.97898377 6.04951014 27.26944304 0.00296659 0.00061159 -0.00528662
N 20.36851089 25.39312583 22.40453728 -0.00488445 -0.00040982 -0.00704558
N 22.54975155 6.29891864 30.63727268 -0.00167438 -0.00005927 0.00234212
N 18.07663147 25.34878690 30.59429192 -0.00888451 0.00359211 -0.00544103
N 24.58346813 6.77471839 22.45751633 0.00238259 0.00325919 0.00334682
N 22.41871384 12.62341165 26.98049998 -0.00460635 0.00186908 -0.00172349
N 20.34485081 6.22252124 19.07120751 -0.00300797 0.00851226 0.01091413
N 24.44361916 0.14161455 2.67203287 -0.00087252 -0.00254500 -0.00086746
N 18.11326727 19.21129303 10.30708951 -0.00376365 0.00210540 -0.00171853
N 20.13034762 12.60551989 5.46392613 0.00293256 0.01030500 -0.00184381
N 22.22358443 19.25319931 14.02449427 -0.00521606 -0.00727873 0.00439430
N 18.02550049 12.74479272 14.27517353 -0.00461126 -0.00525039 0.00738173
N 24.68255191 19.30363276 5.52382364 0.00109680 -0.00589791 0.00174445
N 22.25365818 0.37529432 10.72647283 0.00441191 0.00033271 -0.00201595
N 20.07166562 19.34608511 1.94475944 0.00474483 0.00313731 -0.00457027
N 24.45293349 0.17601018 19.08249782 0.00451092 -0.00044426 0.00445294
N 18.29912000 19.42756239 26.66339501 -0.00886433 -0.00005144 -0.00438644
N 20.10217399 12.97784428 22.53027131 0.00013450 0.00886696 -0.00116584
N 22.08782752 19.34124430 30.39655942 -0.00402558 0.00165021 -0.01287975
N 17.97087960 12.35136367 30.47418840 -0.00406454 0.00359620 0.00399177
N 24.41821679 19.37928747 22.12678702 0.00154766 0.00027531 0.00190091
N 22.25120657 25.53934020 27.16921981 0.00132080 0.00221434 -0.00559224
N 20.22682591 19.35824640 18.76292018 -0.00346902 0.00162337 0.00126026
C 7.60757479 0.54491627 5.33074660 -0.00160815 0.00311009 -0.00238861
C 0.97038778 6.37432629 13.11103503 0.00468462 -0.00297239 -0.00204079
C 3.31602550 12.56310064 3.64379016 0.00031381 0.00553689 -0.00294470
C 4.90011567 6.86102507 11.45608132 -0.00090490 0.00408854 -0.00103012
C 0.72096628 12.67866740 11.71884957 -0.00277238 -0.00117462 -0.00303001
C 7.63518456 6.52404955 3.31610719 0.00022548 -0.00404093 -0.00630828
C 5.05240153 0.80017264 13.32962525 0.00635436 0.01076017 -0.00020836
C 3.19674939 6.19006399 4.94152325 0.01107176 0.00412701 -0.00013589
C 7.01797577 1.16676887 6.34027321 -0.00056447 -0.00291307 -0.01259286
C 1.36731200 5.63991067 14.19837987 -0.00199527 -0.00290248 0.00203106
C 2.98418278 12.02105876 2.43734189 0.00357944 -0.00603110 -0.00906176
C 5.24969243 7.54158863 10.27345326 -0.00261818 -0.00033845 0.00470939
C 1.27757522 12.01561326 10.60993305 0.00269558 -0.00305594 0.00177685
C 7.26767693 7.14448710 2.14131422 0.00416841 -0.00567993 0.00110047
C 5.56983168 1.31781684 14.46392755 0.00086687 -0.00531753 -0.00080100
C 2.96744458 5.47473684 6.07162585 0.00201273 0.00059453 0.00529037
C 6.08078877 2.21228387 6.22487502 -0.00483207 -0.00078078 0.00528095
C 2.02828467 4.41179950 14.02357964 0.00115201 0.00304088 0.00204647
C 2.00342684 11.00021689 2.34140983 0.01120697 0.00869928 0.00435029
C 6.18866171 8.55081769 10.26047585 0.00228874 0.00313488 -0.00284923
C 2.18980019 10.95330004 10.78763004 0.00623075 -0.00562636 0.00656752
C 6.40305366 8.24721070 2.17700104 0.00734275 -0.00136812 -0.00352519
C 6.27207095 2.47779219 14.39380325 0.00139697 0.00343224 0.00419734
C 2.14127995 4.30004125 6.05399460 0.00134653 -0.00610218 0.00105567
C 5.90736840 2.66547195 4.91250159 0.00501385 0.00340451 -0.00125459
C 2.20544024 3.94179483 12.71872073 -0.00166936 0.00357446 -0.00066432
C 1.66413884 10.35400004 3.55719880 -0.00355140 0.00510664 -0.00027571
C 6.71938123 8.93269684 11.53173821 -0.00095363 0.00443400 0.00093871
C 2.27406865 10.36784749 11.99845099 0.00477916 -0.00239194 -0.00461670
C 6.31875009 8.96329307 3.35791772 0.00884866 -0.00038855 -0.00730669
C 6.54887512 3.10466863 13.17295713 -0.00488232 0.00002361 -0.00674172
C 1.77472487 3.84612739 4.83939581 0.00146814 0.00882374 0.00117580
C 6.49527972 2.09314894 3.82517530 -0.00069174 0.00189437 -0.00119862
C 1.73057446 4.58823878 11.61801220 0.00509289 -0.00162438 0.00516579
C 2.14056775 10.72962418 4.81719946 0.00069595 -0.00087205 -0.00338334
C 6.34530512 8.37224201 12.72597968 -0.00075419 -0.00401109 0.00323849
C 1.83061558 11.06469058 13.13083242 0.00126956 -0.00138595 -0.00148973
C 6.59847193 8.31266271 4.57440858 0.00191788 -0.00552014 0.00083265
C 6.13881708 2.44353491 12.01123678 0.00419182 -0.00522148 0.00188924
C 2.12057410 4.50368852 3.67243735 0.00467565 -0.00765051 0.01003717
C 7.28788835 0.94120824 4.01545229 0.00372246 -0.00277416 0.01155279
C 1.26921776 5.94169167 11.81312798 -0.00008541 -0.00098075 -0.00047398
C 2.95496622 11.87429895 4.81213404 -0.00059006 -0.00884926 0.00044161
C 5.46299834 7.22945720 12.66302042 -0.00048267 0.00256373 0.00463478
C 1.14040028 12.30963108 13.01423353 -0.01029475 -0.00109927 -0.00067928
C 7.31676750 7.15248066 4.59353634 -0.00689886 -0.00015940 -0.00039995
C 5.48840606 1.21482220 12.10086535 -0.00054389 -0.00614298 -0.00009260
C 2.84338550 5.69354945 3.64909599 0.00046020 -0.00425685 -0.00115449
C 7.22411191 0.22916447 1.65424372 0.00307104 0.00555788 -0.00078321
C 1.43934632 6.65641565 9.45093749 -0.00175783 0.00009554 0.00078712
C 2.94990376 12.34260582 7.22767406 -0.00188973 0.00004607 -0.00396484
C 5.74648571 6.69260301 15.08257527 0.00867332 -0.00211564 0.00170072
C 1.25878103 12.91054537 15.38396960 0.00026997 -0.00105233 -0.00110725
C 6.86449461 6.76154466 6.88605630 -0.00096147 0.00680829 0.00237681
C 5.66203432 0.46735160 9.69509574 0.00616044 0.00216743 0.00141321
C 2.84972067 6.13135971 1.25830205 -0.00210818 0.00184710 0.00048027
C 6.56108030 12.00598038 16.64953009 0.00896366 0.00112466 -0.00248047
C 1.33656589 7.82140194 8.50361876 -0.00008512 0.00326850 0.00082165
C 2.61181136 0.98674416 8.21242615 0.00552674 -0.00140003 -0.00548938
C 5.75813511 5.31802036 32.52749900 0.00103534 -0.00673866 0.00125544
C 1.59531204 0.97471605 32.43080585 0.00687164 0.00265796 -0.00202972
C 6.95214937 5.74930181 7.98794549 -0.00342559 -0.00001592 -0.00190318
C 5.93304763 11.91898359 8.51701679 0.01103540 0.00673274 0.00700994
C 2.87765275 7.37685234 16.76687576 0.00292000 0.00797555 -0.00430676
C 7.77649696 0.38254392 21.40521633 0.00137956 0.00620482 0.00270055
C 1.23929547 6.28717163 29.31868435 0.00232449 0.00581200 -0.00119043
C 3.05872702 12.44859290 20.00564836 0.00284861 -0.00082912 0.00431295
C 5.41289360 6.82709985 28.18416919 -0.00265072 0.00232746 0.00226765
C 1.04760284 12.18286674 28.17081689 -0.00067022 -0.00289391 0.00016378
C 7.54675932 6.75289280 19.58042649 -0.00418360 0.00205501 -0.00090728
C 5.24891375 0.35248047 29.39596730 0.00116917 0.00301524 0.00283720
C 3.32076732 5.90602874 21.25305059 -0.00065987 0.00152718 -0.00410600
C 7.38815269 1.09333656 22.47487459 0.00662374 0.00771485 0.00137194
C 1.67199079 5.56183687 30.41611537 0.00124152 -0.00209305 -0.00251245
C 2.74069938 11.76624910 18.85852813 -0.00276968 -0.00029005 0.00312616
C 5.81699764 7.34409234 27.01283738 -0.00230377 -0.00388100 0.00289961
C 1.46612043 11.47601255 27.08656023 0.00071206 -0.00273490 0.00157417
C 7.11266283 7.46157535 18.42437102 0.00838382 0.00124905 -0.00807340
C 5.76443501 0.83397793 30.59831271 0.00009154 -0.00180047 -0.00663773
C 2.90357859 5.13666883 22.35153525 -0.00141395 -0.00136159 -0.00523734
C 6.51971817 2.21666143 22.26792165 0.00168770 0.00150370 0.00199072
C 2.22812360 4.24679191 30.33882130 0.00089600 0.00223577 -0.00747615
C 1.91304103 10.62352741 18.88909006 -0.00373390 -0.00339497 0.00233766
C 6.73636334 8.36497313 27.05541622 -0.00158562 0.00572902 -0.00007441
C 2.28677121 10.34697594 27.23216248 -0.00176785 -0.00110762 0.00238307
C 6.28977555 8.55372515 18.55411860 -0.00487528 0.00346050 0.00350010
C 6.61235896 1.98390558 30.63101870 0.00287231 0.00079007 -0.00180119
C 2.13350087 3.99214607 22.17873398 0.00894713 -0.00177380 -0.00417812
C 6.25613211 2.80611502 21.06586717 -0.00504613 0.00205261 0.00522525
C 2.20132749 3.60774296 29.08251160 0.00490577 -0.00495389 0.00703065
C 1.71106920 10.02415745 20.17410939 -0.00005060 0.00285708 -0.00468458
C 7.08039147 8.90611699 28.28408380 -0.00145503 -0.00363931 0.00562850
C 2.66739000 9.87642645 28.51621401 0.00571762 -0.00176839 0.00300842
C 6.01836137 9.10479406 19.80280229 -0.00207757 -0.00625616 0.00252363
C 6.95786488 2.58032223 29.43007297 -0.00467066 0.00293245 -0.00308336
C 1.89755009 3.53305487 20.90891468 -0.00339057 -0.00263229 -0.01032029
C 6.71025227 2.05724682 19.99032213 0.00553599 -0.00930581 0.00004325
C 1.70740888 4.20200371 27.95524240 0.00250670 0.00388376 0.00357069
C 2.15034178 10.61168595 21.30522710 0.00123977 -0.00332493 0.00053442
C 6.73818542 8.34085127 29.54775848 -0.00440290 -0.00364990 0.00073306
C 2.25718478 10.65353798 29.58290420 0.00189812 0.00202175 0.00111647
C 6.48034976 8.44150145 20.95162877 0.00364311 0.00627605 -0.00485832
C 6.44622098 2.09448330 28.20821999 0.00258257 0.00437806 -0.00161963
C 2.14101034 4.36759889 19.81345303 -0.01135215 -0.00851562 0.00027276
C 7.49983761 0.88785300 20.14523934 -0.00316293 -0.00009548 -0.01155695
C 1.40091703 5.58180057 28.00244534 -0.00077118 -0.00373600 -0.00095542
C 2.74233534 11.87425939 21.23574359 0.00784265 0.00474415 -0.00285024
C 5.92383336 7.21462560 29.47407566 0.00290831 0.00176939 0.00045287
C 1.42974093 11.73528614 29.42347511 0.00083799 -0.00417438 -0.00158754
C 7.22863630 7.19508340 20.84930051 -0.00338766 -0.00354528 -0.00347986
C 5.77041865 0.87385245 28.15854170 -0.00743453 0.00008777 -0.01046189
C 2.91466610 5.52118102 19.94545189 0.00764177 -0.00348591 0.00040549
C 7.12704886 0.16137126 17.89290282 0.00634609 -0.00104920 0.00568248
C 1.73427066 6.05837315 25.64739784 -0.00442612 0.00137844 0.00338841
C 2.70835487 12.45681152 23.61879863 -0.00611562 -0.00537138 0.00141130
C 5.96754923 6.57141866 31.78536404 -0.00403628 -0.00000594 -0.00247222
C 1.58080422 12.48130066 31.74336640 0.01374391 0.00486122 0.00152683
C 7.10363413 6.56655764 23.26799858 0.00258735 -0.00200493 -0.00168300
C 6.14401478 0.36397447 25.79955486 0.00162754 -0.00561282 -0.00128742
C 2.71457059 6.23731091 17.67686342 -0.00785589 -0.00289259 0.00246566
C 7.13308253 11.55924746 0.41062688 -0.00018590 -0.00332553 -0.00362618
C 1.70856579 7.25348242 24.76986546 -0.00005449 0.00577467 -0.00462136
C 3.01886171 0.93636893 24.80252721 0.00192425 0.00248807 -0.00333824
C 5.73143916 5.52885833 16.06112768 0.00888662 -0.00523451 0.00106402
C 1.27660008 1.06713129 16.58376501 0.00144913 -0.00157062 0.00753085
C 7.16488307 5.32488031 24.08939085 -0.00561961 0.00337654 0.00484938
C 5.61328498 11.54666677 25.29117635 -0.00471155 -0.00594842 -0.00050039