1920
Time=32000.00000001 pbc="T T T" Lattice="25.54594150 0.00000000 0.00000000 0.00000000 25.54860783 0.00000000 0.00000000 0.00000000 32.87179226" energy=-12251.74908268 virial="-27.45083115 -3.16153595 7.98523391 -3.16153595 -3.65678978 -1.56374150 7.98523391 -1.56374150 -36.26737066" stress="0.00084781 -0.00008457 0.00034182 -0.00008457 0.00207079 -0.00011853 0.00034182 -0.00011853 0.00041043" Properties=species:S:1:pos:R:3:vel:R:3
O 6.09861321 2.91785595 6.29629827 0.00506902 0.00060712 0.00462199
O 2.40269587 3.72459913 15.03935606 -0.00134742 0.00473240 -0.00073217
O 1.93490097 9.93280311 2.02438403 0.00459243 -0.00353552 0.00544678
O 6.96472498 9.11062500 9.46670156 -0.00345545 0.00121778 0.00551787
O 2.59166889 9.88821730 9.94439909 0.00622508 -0.00432794 -0.00387449
O 5.36108594 8.76102557 1.30046361 0.00054490 0.01039851 -0.00150369
O 6.90051276 2.99858735 14.67079903 -0.00417918 0.00518507 -0.00354515
O 1.36707306 3.84387851 7.06224646 0.00203578 -0.00171266 -0.00152851
O 7.06513114 1.58797721 16.75118423 -0.00050053 -0.00239776 -0.00017110
O 2.30882164 5.28961353 8.83797806 -0.00340589 0.00627388 -0.00286403
O 1.85764432 11.73369852 8.15921971 0.00477012 0.00405199 0.00184744
O 5.99149925 7.61247760 31.91212361 -0.00679567 -0.00142149 0.00204263
O 2.19518925 11.53957820 0.07272995 -0.00050404 -0.00600992 -0.00336428
O 6.98375981 7.72150947 7.25921489 0.00546717 0.00484876 0.00120218
O 6.35592695 1.35964626 8.51772173 -0.00240169 0.00095256 0.00108975
O 2.04136252 5.25430751 17.18318942 -0.00129670 0.00106860 0.00064287
O 6.25523627 2.89240669 23.03179422 -0.00355344 -0.00397147 0.00024919
O 2.56397181 3.97789986 31.50632666 -0.00366349 0.00095868 -0.00405054
O 1.94968868 9.82536820 18.22507877 -0.00237922 0.00529388 -0.00220356
O 7.08712468 8.96854268 26.04538869 0.00705666 -0.00213146 -0.00019322
O 2.30726519 9.88981473 26.87303572 0.00084627 0.00244196 0.00721791
O 5.77521430 8.73577958 17.75550336 -0.00180762 0.00081411 0.00053633
O 6.69461747 2.95053477 30.86286803 0.00160086 0.00243079 -0.00025257
O 1.61059206 3.79748392 23.39463879 -0.00071739 -0.00696149 0.00188446
O 6.84836327 1.30815344 0.12989519 -0.00644448 0.00122681 0.00004406
O 2.14494346 5.26187660 25.42108464 0.00208289 -0.00185508 -0.00101131
O 2.15955349 11.44673711 24.51552851 -0.00088853 -0.00046259 -0.00109094
O 6.51846501 7.54991123 15.66513456 0.00194864 -0.00129208 0.00187360
O 2.00197224 11.53325035 16.33020791 0.00452664 0.00308028 -0.00619604
O 6.30804048 7.51863455 23.88037955 -0.00237430 -0.00372660 -0.00153553
O 5.79144434 1.03916211 24.94324647 -0.00494161 -0.00414906 0.00341485
O 1.79114297 5.02050325 0.69494915 -0.00511535 -0.00414755 0.00297545
O 5.71115424 15.38555531 7.38782226 0.00016668 -0.00039177 0.00357030
O 2.27039315 16.16183913 15.14800597 0.00068891 -0.00214463 0.00267499
O 1.54063487 22.76474673 1.14383170 0.00263072 0.00407488 -0.00070812
O 7.30691417 21.69189484 9.47999527 -0.00586618 0.00343295 0.00588604
O 3.20946847 23.14042544 9.24750115 0.00118988 0.00135975 0.00036400
O 5.75669660 22.02835636 1.24901501 0.00238557 0.00289454 0.00249506
O 7.10689100 15.54490669 15.63952086 0.00255505 -0.00437767 0.00564918
O 1.49695039 16.48735865 7.01450776 -0.00324457 -0.00153462 0.00152381
O 7.35379060 14.06487410 17.65299502 -0.00240307 0.00438107 -0.00526030
O 2.12243420 18.07347925 9.06059846 0.00681972 -0.00433659 -0.00159825
O 2.23940730 24.54521485 7.30390369 0.00037137 0.00448383 0.00382179
O 5.87400817 20.62553392 31.95752170 -0.00521398 -0.00329786 -0.00326760
O 2.18327327 24.03334790 31.95764656 -0.00531940 -0.00038847 -0.00106330
O 6.54920712 20.30965466 7.26137674 0.00583259 -0.00171322 -0.00384878
O 6.28839470 14.01273145 9.44534685 -0.00580907 0.00137402 -0.00138310
O 2.18275450 18.12250877 17.15167569 -0.00337693 -0.00548128 0.00324176
O 5.61870197 15.55087858 23.67260309 -0.00304588 0.00366123 0.00034105
O 2.52514600 16.00285988 31.26368382 -0.00292106 0.00308221 0.00681189
O 1.33489614 23.37195426 17.53873447 -0.00719779 0.00409273 -0.00848072
O 6.82713715 22.14405523 25.83912951 -0.00305060 -0.00303898 0.00066024
O 2.39069644 22.64349504 25.72155994 -0.00372774 0.00013512 -0.00650321
O 6.02446916 22.12044537 17.75779223 -0.00433345 -0.00071396 0.00362910
O 6.56437160 15.90771795 31.95423577 0.00027893 0.00135937 0.00781123
O 1.32605710 16.16670425 23.14422060 0.00784450 -0.00742475 -0.00481946
O 6.75319175 14.18223753 1.06704358 -0.00583641 0.00017850 -0.00366967
O 1.98876998 17.70534567 25.13607035 0.00808902 -0.00061923 -0.00310740
O 1.67842426 24.19395641 23.80206665 0.00247055 -0.00594274 0.00409428
O 6.36753614 20.60049804 15.64791811 -0.00360537 -0.00188748 0.00272320
O 2.20885271 24.42490178 15.38584648 -0.00001617 0.00033417 0.00332185
O 6.68173138 20.39038644 23.95705980 -0.00144986 -0.00435991 0.00042333
O 5.72020481 13.85248260 25.87711710 -0.00442310 -0.00015765 -0.00089761
O 2.32860760 17.64878629 0.69179393 0.00408953 0.01023298 0.00253477
O 14.70278711 2.96482356 6.45448047 0.00247697 0.00190260 0.00240318
O 11.30018703 3.64770768 14.92084174 0.00193308 0.00370191 -0.00963564
O 10.10608621 9.98979149 1.60498483 -0.00131524 -0.00292777 0.00501128
O 15.18264133 9.29330900 9.45838520 0.00421139 -0.00124645 -0.00054788
O 11.04112524 10.14700833 9.56393269 -0.00064452 0.00322617 0.00097959
O 14.26509664 8.82277276 1.35952907 0.00312904 0.00340612 -0.00393293
O 15.39644009 2.88299861 14.73993143 0.00078961 0.00064703 0.00430307
O 10.16468987 3.63406041 6.69894181 0.00429807 -0.00086506 0.00486241
O 14.87956174 1.06940418 16.79327386 -0.00470434 -0.00058443 0.00125883
O 10.39165101 5.20060652 8.75717356 -0.00302210 -0.00606298 -0.00260958
O 10.31854385 11.66238632 7.60049444 -0.00023494 -0.00074455 0.00309220
O 14.92831166 7.38577395 32.23258635 0.00211022 -0.00235769 0.00098827
O 10.75359125 11.49662059 32.23511298 -0.00034850 0.00809611 0.00150867
O 14.35003187 7.37499995 7.43585496 -0.00116802 0.01024536 0.00137296
O 14.92403091 1.45094484 8.58155826 -0.00140341 -0.00093187 -0.00139685
O 11.01739456 5.25713536 17.07935933 0.00629133 0.00497990 -0.00111816
O 14.51580676 2.78398430 22.96138008 -0.00396913 0.00181558 0.00500594
O 11.12425778 4.02881401 31.45140548 -0.00005290 -0.00032823 0.00192207
O 10.09304648 9.68134533 18.07527724 -0.00333900 -0.00218695 0.00305286
O 15.06043867 9.03623629 26.14037983 -0.00319234 0.00301657 -0.00552317
O 10.91329975 10.17487695 26.19055643 -0.00116357 -0.00564720 -0.00635186
O 14.53176841 9.03308505 17.91763719 -0.00295270 -0.00196530 0.00201727
O 14.85265442 2.75516102 31.19169924 0.00211823 -0.00895688 -0.00477592
O 9.76409006 4.15161203 23.25701717 0.00603156 -0.00559266 -0.00385470
O 15.25698951 1.22884430 0.42585207 0.00664573 -0.00788948 -0.00376638
O 10.84382701 5.41747840 25.36575196 -0.00572934 0.00516291 0.00248336
O 11.24604304 11.65311055 24.03475382 0.00837374 -0.00044635 -0.00156089
O 15.45801261 7.63033706 15.86205015 -0.00641262 0.00580269 0.00666255
O 10.45825034 11.23367654 15.83091059 -0.00399688 -0.00339146 0.00646225
O 14.58125508 7.69838445 24.02551785 -0.00170299 0.00239790 0.00192148
O 14.38081566 1.16669137 24.87354357 -0.00412670 -0.00635019 -0.00088646
O 10.56640356 5.31994990 0.79586961 -0.00510962 -0.00080535 -0.00289123
O 14.72097101 15.81767301 7.18028558 0.00561014 -0.00252555 -0.00480109
O 11.10446355 16.14083036 14.85410715 0.00598068 -0.00560827 -0.00325304
O 9.87082305 23.13450714 0.63228227 0.00584807 0.00301522 -0.00237379
O 15.60089125 22.31370212 9.42101964 -0.00333693 -0.00389647 0.00096532
O 11.18120352 23.01710687 8.75758679 -0.00072333 -0.00721229 0.00333745
O 14.54385774 21.87577835 1.01465615 0.00969341 0.00862045 0.00001047
O 15.80454130 15.30111966 15.04712965 0.00477611 0.00075182 0.00079607
O 10.60767999 16.02649766 6.66489221 -0.00307191 0.00147334 -0.00059898
O 15.29012629 13.95245544 17.10920776 -0.00358840 0.00204391 0.00038974
O 10.40652262 17.78537543 8.71629916 0.00053600 -0.00071167 0.00098072
O 10.31517423 24.41385506 6.88581912 0.00286637 0.00141427 0.00564244
O 14.87091967 20.52676268 31.64424541 0.00534425 0.00272979 -0.00274497
O 10.74745466 24.51319988 31.38679432 0.00518977 0.00288105 0.00872332
O 15.62003314 20.71360800 7.27911382 -0.00237518 -0.00626101 -0.00308222
O 14.26765750 14.21353001 9.04589400 0.00016107 0.00533245 -0.00561034
O 11.13870249 17.42589458 17.21465777 0.00299364 0.00029921 0.00278973
O 14.26416938 15.50756255 23.32499170 -0.00197180 0.00660139 -0.00543307
O 10.73202626 16.10876577 31.52988415 0.00854308 0.00271469 0.00055412
O 10.18295155 22.91235745 16.87225576 -0.00616032 0.00210333 -0.00075681
O 15.53228513 21.99977179 25.60334674 0.00385957 -0.00272450 0.00242898
O 10.96510144 22.96224284 25.23023820 -0.00298277 -0.00336519 0.00157249
O 14.28404978 21.83407204 17.27378625 -0.00209958 0.00110179 0.00097322
O 15.16372323 15.62444772 31.86739313 -0.00285376 0.00653807 -0.00195110
O 9.87112194 16.46403098 23.37469767 -0.00329371 0.00603325 -0.00556906
O 14.94842053 13.90329944 1.11509734 -0.00132766 -0.00373439 -0.00427901
O 10.06864581 18.15620741 25.49690233 0.00878059 -0.00120659 -0.00392094
O 10.55504534 24.61951768 23.33507728 -0.00215752 0.00335042 -0.00105505
O 14.31347387 20.24779663 15.21432163 -0.00181317 0.00529680 -0.00652797
O 10.87103433 24.55739845 14.91566217 0.00447884 0.00115429 0.00424810
O 15.12150973 20.26593162 23.63319880 -0.00175561 0.00008970 -0.00526740
O 14.65822344 14.17805849 25.56045936 -0.00131409 0.00184492 -0.00174249
O 10.68676302 18.06077149 0.49161980 0.00471903 -0.00262338 0.00108628
O 22.72169441 3.05548760 6.60823825 0.00120428 0.00330906 0.00401001
O 20.04662196 3.43687498 15.36692142 0.00009059 -0.00626187 -0.00136455
O 18.69365096 10.00702648 1.86052065 0.00049061 -0.00015562 -0.00421190
O 24.25826718 9.02255870 9.24076821 -0.00358582 0.00135554 0.00223901
O 19.26139639 9.93721400 9.75541197 0.00495294 0.00065628 -0.00147902
O 23.02210613 9.34334525 0.97707904 0.00127693 -0.00095850 -0.00591062
O 23.90098302 2.79380225 15.01852735 -0.00266662 -0.00578221 -0.00530174
O 18.84043812 3.40182180 7.14146409 -0.00358463 0.00164464 -0.00053679
O 23.33752521 1.08214931 16.86900425 0.00512906 -0.00053989 -0.00084345
O 18.78034193 5.01723903 9.15692753 -0.00494116 0.00202122 -0.00285846
O 19.40783751 11.64839487 7.86854837 0.00191131 0.00710147 -0.00228073
O 23.57831349 7.64472603 31.96527030 0.00045370 -0.00435651 -0.00242262
O 19.23407282 11.32961847 32.47833897 0.00560298 -0.00086778 0.00343734
O 23.54130058 7.87563955 7.06659163 -0.00066642 0.00588245 0.00180195
O 23.24117149 1.47192500 8.65492812 0.00195270 0.00286189 -0.00210427
O 19.68665528 4.94900633 17.47040600 0.00094186 -0.00112238 -0.00409521
O 22.99947832 3.23533768 22.76031426 0.00436018 0.00389104 0.00108676
O 19.87047526 3.88124989 31.66334281 0.00483170 0.00113815 -0.00611798
O 19.09803139 10.13832108 18.22175044 -0.00344378 0.00170191 0.00765697
O 23.73315288 9.11279945 25.67068219 0.00226858 0.00078513 -0.00080164
O 19.45481178 10.01334245 26.29790802 -0.00098509 -0.00864786 -0.00033167
O 22.96200520 8.77963595 17.65289108 -0.00513913 0.00124997 -0.00209886
O 23.43375335 2.68030919 31.33113899 0.00004058 -0.00676664 -0.00379839
O 18.35113824 3.49002646 23.65712950 -0.00274411 0.00357742 -0.00592531
O 23.47954846 1.16361378 0.54558784 0.00375728 -0.01043738 -0.00604314
O 18.72951602 4.96728082 25.53728072 -0.00521766 -0.00164634 -0.00459776
O 19.14921754 11.51040142 24.43109002 0.00420553 0.00262440 -0.00302898
O 23.92398468 7.85088574 15.40098004 0.00472531 -0.00108126 -0.00308872
O 18.99934192 11.49280709 15.93905522 -0.00317963 0.00328072 -0.00315740
O 23.06068652 7.48539050 23.73988843 0.00388622 0.00263972 -0.01025462
O 23.34768111 1.53775919 24.79624717 0.00227233 -0.00176886 0.00424947
O 19.23120377 5.11082657 0.85576980 -0.00745390 0.00798929 0.00081979
O 23.16182351 15.33397182 7.71569135 0.00088483 -0.00665935 0.00284376
O 19.96344304 16.10710300 15.39789550 0.00246386 0.00106930 -0.00633574
O 18.46883044 22.58139806 0.87257447 0.00086296 -0.00534964 0.00188174
O 23.77526345 21.99047838 9.81064425 -0.00271139 0.00216814 0.00481214
O 20.24803017 22.95991461 9.45680069 0.00295028 0.00096800 0.00012521
O 22.54984460 21.78122779 1.44938653 -0.00007036 -0.00074086 0.00462965
O 24.26741206 15.27996486 15.79153551 0.00093016 -0.00128637 0.00677008
O 18.41427760 16.60143198 7.33909189 0.00034743 -0.00181597 0.00156355
O 23.52109572 13.96359294 17.74814651 -0.00566490 -0.00237348 0.00204620
O 18.95370479 18.06542008 9.36661835 -0.00531940 0.00032866 -0.00298027
O 19.59444401 23.99824817 7.06120386 -0.00326543 0.00135466 -0.00347923
O 23.48226363 20.33286827 32.35028360 -0.00339956 -0.00081216 0.00072857
O 18.78246283 24.46973364 31.89360684 0.00131120 -0.00189119 0.00329587
O 23.31660047 20.25062736 7.55718003 0.00641415 0.00336995 0.00360551
O 23.89095027 13.69646599 9.67635115 0.00120103 -0.00003065 0.00112410
O 19.57594700 17.77067606 17.37038229 0.00142897 -0.00373131 0.00334990
O 23.20094679 15.35899905 23.89323200 0.00072263 0.00552879 0.00169647
O 20.00884993 16.26460223 31.53811704 -0.00038860 -0.00517021 -0.00074357
O 18.56501049 22.69107377 17.36875197 -0.00245813 0.00585574 0.00275289
O 23.99938584 21.16030440 26.00025269 0.00405553 0.00365412 0.00078804
O 19.88741338 23.01561248 25.78290541 -0.00678654 -0.00001942 -0.00071091
O 22.62675002 21.75577885 17.95857683 0.00296036 0.00246452 -0.00153064
O 24.33680895 15.23029791 32.09238238 0.00056284 0.00343724 0.00058840
O 19.16627567 16.04955337 23.58896598 -0.00021097 -0.00444643 -0.00117764
O 23.44590182 14.21644519 1.33060530 0.00283593 -0.00228159 -0.00914277
O 19.09098482 17.98663417 25.43905072 -0.00120935 -0.00022593 -0.00308419
O 19.08937082 24.02278379 23.47873453 0.00172850 -0.00462324 0.00113442
O 23.54062620 20.35435944 16.06939258 0.00136893 0.00753153 0.00435919
O 19.04551914 24.38384049 15.53416714 -0.00135737 -0.00430215 0.00092060
O 23.09191023 20.29843939 23.91282696 0.00035921 -0.00123576 0.00391979
O 23.80716236 13.99265128 25.89962505 -0.00001600 -0.00482382 0.00358501
O 19.41150416 17.21076563 1.01333887 -0.00429617 -0.00234422 0.00230049
N 7.51020163 12.94907016 2.85809762 0.00707329 0.00379555 -0.00445122
N 1.31564426 6.56782442 10.45796599 0.00543561 0.00193399 -0.00198277
N 3.26823139 0.06326522 5.48877681 0.00509261 -0.00071757 -0.00202098
N 5.56948524 6.24248538 13.95065253 -0.00664268 0.00389249 0.00574676
N 0.83990630 25.37033218 13.84115075 -0.00642298 0.00549301 0.00230851
N 7.44736990 6.16651028 5.62383393 -0.00262887 0.00846811 0.00019947
N 5.13738127 12.98672400 11.17015236 0.00631373 0.00394847 0.00302105
N 2.84312775 6.20577345 2.29992989 -0.00291293 0.00388652 -0.00107740
N 7.67570053 12.58601841 19.41511764 0.01121508 -0.00004866 -0.00240557
N 0.88865100 6.38797082 27.00481156 0.00489609 -0.00189314 -0.00105140
N 2.93339235 25.54170244 22.40770333 0.00237842 0.00255918 -0.00918813
N 4.82342144 6.36118584 30.47346350 0.00565361 -0.00270132 0.00281761
N 0.85491109 25.09882117 30.48562020 0.00096800 0.00180615 -0.00412009
N 7.82003956 6.48098007 22.49189247 -0.00618909 -0.00318127 -0.00301423
N 5.11052759 12.65482713 27.73911070 0.00084329 -0.00021852 -0.00342531
N 3.26540160 6.42383267 18.70409391 0.00266455 0.00195509 0.00330949
N 7.30975150 25.40914435 1.74751320 0.00385985 0.00371384 0.00334254
N 1.26243211 19.37228429 10.75596214 0.00144990 0.00045811 0.00317647
N 2.98516001 12.94820366 6.55952776 0.00193187 0.00177913 0.00716714
N 5.40112898 19.30177668 14.03342394 0.00874848 -0.00064706 -0.00077206
N 1.39495133 12.93585948 14.57236192 0.00097074 -0.00185245 0.00573036
N 7.36449714 19.07374141 5.56783555 0.00412426 0.00449196 -0.00861568
N 5.33926700 0.27297611 10.22620941 -0.00229666 0.00536462 -0.00277171
N 3.16568625 19.09796323 2.34389707 0.00413296 -0.00350731 0.00631897
N 7.37419865 0.08781167 18.41019202 0.00362970 0.00012345 0.00109785
N 1.18158229 19.03395977 26.83822469 0.00465072 -0.00542560 -0.00577681
N 2.97422642 12.73679361 22.83045243 -0.00148717 -0.00989860 0.00163542
N 5.22504327 19.23573080 30.36564296 -0.00514694 0.00121685 -0.00368389
N 1.46415856 12.99161255 31.34629845 0.00108898 0.00064183 0.00276067
N 7.38970994 19.04201603 22.17933144 -0.00541385 0.00045591 -0.00568195
N 4.90306021 25.42325834 26.65579092 0.00671983 -0.00139556 0.00449078
N 3.23637402 19.15967299 18.88683105 -0.00167800 -0.00837808 -0.00387924
N 15.93049842 12.71615150 2.82226985 -0.00445286 0.00269648 0.00349645
N 9.69509075 6.55215132 10.42599830 -0.00039157 0.00130137 0.00643917
N 11.92969685 25.36009973 5.40805894 0.00312510 -0.00014972 -0.00034138
N 14.16994590 6.65222373 14.15552636 0.00239184 -0.00277407 -0.00397776
N 9.37987332 25.39750915 13.36817943 -0.00262563 0.00583813 -0.00394719
N 15.78748831 6.37322127 6.01198724 0.00053509 -0.00751026 0.00167972
N 13.57967436 12.77507473 10.74019446 0.00231837 0.00067312 0.00120210
N 11.83756742 6.46272192 2.30190949 0.00466228 0.00316746 -0.00368916
N 16.43023859 12.96447086 18.84728111 -0.00016748 0.00408563 -0.00640423
N 9.41036207 6.43808643 26.84831263 0.00944263 0.00027649 -0.00699512
N 11.64666521 0.00946540 21.53764831 0.00183978 -0.00121374 -0.00058710
N 13.56566153 6.39716276 30.71429695 -0.00191883 -0.00231540 -0.00507506
N 9.30224406 25.42595015 29.91889315 0.00237795 0.00536294 0.00176925
N 16.24794622 6.85638389 22.67878096 -0.00211306 0.00084742 -0.00313274
N 13.88041727 12.81125203 27.26413114 0.00583264 0.00104590 0.00418558
N 12.10640682 6.39876901 18.78673419 0.00097635 -0.00036053 -0.00580818
N 15.92338135 25.43400788 2.11215190 0.00021346 -0.00247745 -0.00137454
N 9.56482442 19.05346115 10.43518485 -0.00281833 -0.00115626 -0.00241277
N 11.32531163 12.98739960 6.01752969 -0.00304690 -0.00413695 -0.00029320
N 13.73281889 19.04296921 13.37561738 0.00374214 0.00007659 0.00544815
N 9.61076235 12.59800394 14.22404955 -0.00286423 -0.00105473 -0.00420817
N 15.87358362 19.11697286 5.71057662 -0.00455999 -0.00126297 0.00121518
N 14.06399686 0.03384599 10.17363265 0.00234676 0.00253724 -0.00229276
N 11.72281710 19.22786350 2.23036438 -0.00370598 -0.00376181 0.00413418
N 16.06907256 25.47184291 18.37545931 0.00587922 -0.00686834 0.00409676
N 9.54236162 19.44253678 27.33152705 -0.00583493 0.00501942 -0.00036511
N 12.01262628 12.87688217 22.22316895 0.00270581 -0.00141918 0.00212908
N 13.31296302 19.72094988 30.20262453 -0.00307040 0.00187556 0.00201192
N 9.48847009 12.76117519 30.76154540 0.00059498 0.00391111 0.00496996
N 16.20986441 19.30110030 21.85371724 -0.00460210 0.00353348 0.00070273
N 13.45143900 0.00694397 26.59060089 0.00504811 0.00563540 -0.00595870
N 11.98740747 18.89356744 18.80261878 0.00168179 -0.00229709 -0.00215645
N 24.49651531 12.85447271 2.86064268 0.00185813 0.00539358 0.00357218
N 18.11188795 6.32448074 10.92201447 0.00227159 0.00003634 0.00397139
N 20.33750322 25.29887893 5.30129368 -0.00447201 -0.00617830 -0.00351737
N 22.50442825 6.83725329 13.95652485 -0.00694113 -0.00197520 -0.00099796
N 18.16177857 0.07356288 13.77084212 -0.00387650 0.00258514 0.00023860
N 24.39733757 6.45928610 5.55491201 -0.00446485 -0.00619468 -0.00196183
N 22.38804289 12.93650285 11.16833329 -0.00213238 0.00368584 -0.00123256
N 20.08801254 6.38815517 2.58332186 -0.00724022 -0.00400693 -0.00691963
N 24.69659444 12.80761990 19.19181916 0.00215232 -0.00528074 -0.00281607
N 17.58030693 6.10831459 27.17584746 -0.00165864 0.00531791 -0.00520211
N 19.97592218 0.01133872 21.91399550 0.00001534 -0.00660369 -0.00289542
N 21.98745858 6.88435332 30.53422901 -0.00472907 0.00313569 0.00077343
N 18.06210085 0.22832205 30.20752875 0.00724785 -0.00882025 0.00234073
N 24.54572080 6.39927160 22.39465414 -0.00070501 0.00162563 0.00413918
N 22.51717329 12.86672207 27.37917877 -0.00247703 0.00218827 0.00095902
N 20.64032198 6.06215383 19.19147123 0.00201169 0.00168494 0.00018049
N 24.38948362 0.04416381 2.30865852 0.00087325 -0.00529203 -0.00286149
N 18.13060270 19.17981687 11.16860941 -0.00048416 -0.00425432 -0.00099915
N 20.56456244 12.83057423 6.36253103 -0.00187508 0.00023321 -0.00272600
N 22.57134263 19.09681149 14.38907295 0.00416769 0.00506743 0.00515072
N 18.22264225 12.92963699 14.32847004 -0.00539620 0.00688448 -0.00653311
N 24.48636721 19.19268553 5.82632526 0.00229890 -0.00769757 -0.00182019
N 22.24871445 0.26403918 10.28826230 -0.00569087 0.00035217 -0.00049592
N 20.33968894 18.65571313 2.55183559 0.00740895 0.00583239 0.00245153
N 24.43204407 25.46934222 18.53620218 -0.00137820 0.00018205 0.00290578
N 17.87127399 18.79015638 27.17111445 -0.00657860 -0.00649618 0.00061830
N 20.35523047 12.74186011 22.89004117 -0.00004007 -0.00636924 0.00063112
N 22.34182197 19.05413929 30.87932408 -0.00750918 -0.00024191 -0.00291345
N 17.88947023 12.41434815 30.91680480 -0.00414546 0.00186680 0.00061547
N 24.30252826 19.18597642 22.36289829 0.00575425 0.00121116 0.00401155
N 22.34232864 0.19709008 26.40154578 -0.00160723 0.00174205 0.00380483
N 20.06350318 19.14901944 19.05892946 0.00068184 -0.00414177 -0.00249104
C 7.28670716 0.19414029 4.21795813 0.00455357 -0.01016290 -0.00094980
C 1.10727921 6.20726818 12.75338391 -0.00062921 -0.00570977 0.00336363
C 3.21395786 12.44194255 4.23662205 0.00043884 0.00053308 -0.00220746
C 5.37382010 6.65604143 11.54582229 0.00006551 -0.00381146 -0.00151964
C 1.18747312 12.48453761 12.24665218 -0.00450111 -0.01190462 0.00323005
C 7.54220489 6.57061205 3.27597556 -0.00559764 0.00034914 -0.00438176
C 5.33196850 0.52544325 12.54563035 0.00742822 0.00235273 -0.00503250
C 3.24650727 5.88568352 4.63549682 0.00268399 0.00056290 -0.01011965
C 6.97184663 0.94926412 5.31327408 0.00411401 0.00335294 0.00087067
C 1.46650642 5.55795681 13.87958020 0.00191572 0.00167770 -0.00386092
C 3.11541181 11.64846476 3.12797001 0.00354707 0.00969113 -0.00572061
C 5.58077952 7.47249094 10.47069638 0.00928131 0.00125402 0.00343599
C 1.44873592 11.75603722 11.07756825 0.00094866 -0.00031601 -0.00274606
C 6.98447920 7.19557430 2.16515966 -0.00247761 -0.00501678 0.00156134
C 5.57185325 1.30768426 13.63639439 0.00381112 -0.00070047 0.00250037
C 2.98963334 5.20165352 5.80198169 0.00156174 -0.00182011 -0.00016277
C 6.34574945 2.21595525 5.22787576 -0.00092564 0.00006561 -0.00317983
C 2.02009827 4.29175439 13.89252631 0.00109151 0.01056524 0.00600877
C 2.30065855 10.48953149 3.20762831 -0.00853698 0.00848969 -0.00844321
C 6.57396161 8.49585808 10.56935870 0.00434939 -0.00527430 0.00261437
C 2.16659331 10.51456118 11.10696256 0.00623296 -0.00013419 -0.00649347
C 6.03514730 8.26469902 2.35434110 -0.00420948 -0.00902345 -0.00179956
C 6.45724378 2.41653359 13.54519093 -0.00197467 0.00527430 -0.00081411
C 1.92864432 4.24418652 5.91505269 0.00089436 0.00138571 -0.00714458
C 6.11444214 2.73721401 3.86221295 0.00707980 0.00190144 0.00145876
C 2.33081993 3.77313890 12.64637634 -0.00432916 -0.00854593 -0.00269675
C 1.96382138 10.04731036 4.50984148 0.00328843 0.00073404 -0.00622153
C 6.82231556 9.03691109 11.90520301 -0.00222851 -0.00160946 -0.00097950
C 2.50481970 10.04558757 12.38788873 -0.00166400 0.00156865 0.00628619
C 6.11785181 8.92577756 3.55886871 0.00410264 -0.00347438 -0.00102678
C 6.81976103 2.92020536 12.30417859 -0.00013342 0.00008642 -0.00130590
C 1.56741605 3.67861300 4.66959831 -0.00594131 0.00029193 -0.00852218
C 6.36721814 1.94489386 2.73475776 0.00706785 0.00318277 0.00157799
C 2.10851139 4.39413874 11.42227135 -0.00649040 -0.00458602 0.00465516
C 2.14656148 10.84955247 5.64470143 -0.00358329 -0.00003979 0.00529092
C 6.42295019 8.33408357 12.98138345 0.00104572 -0.01311763 -0.00779923
C 2.27033314 10.77358215 13.53856077 0.00005782 0.00539475 0.00416859
C 6.67118977 8.31179723 4.64358410 -0.00021912 0.00108656 -0.00332234
C 6.38655852 2.27806732 11.17658575 0.00266116 0.00904828 -0.00204611
C 2.00979440 4.15289072 3.44047719 -0.00360572 -0.00529052 0.00125778
C 7.05645893 0.66460273 2.86615426 0.00304381 0.00970047 0.00342680
C 1.46155237 5.66037910 11.47130225 -0.00180842 -0.00340515 0.00068886
C 2.76862769 12.06040084 5.53272324 0.00333792 -0.00672692 0.00304415
C 5.80812071 7.06943405 12.87510610 0.00188340 -0.00237761 0.00400427
C 1.61555693 12.04736384 13.51622061 0.00727734 0.00030983 -0.00418265
C 7.22181112 6.98874235 4.58153073 -0.00067137 0.00269892 -0.00356409
C 5.69985892 0.98360105 11.31171056 -0.00472006 -0.00811064 -0.00384966
C 2.67886057 5.46512176 3.45862389 -0.00148729 0.00698661 0.00100273
C 7.02840216 0.13146381 0.48661255 0.00005152 -0.00327083 -0.00064515
C 1.83408956 6.33805102 9.19241965 -0.00205258 -0.00372928 -0.00296328
C 2.46757941 12.74602046 7.79188320 0.00169573 0.00426826 -0.00252793
C 5.92982623 6.53141731 15.25258810 -0.00175778 -0.00177639 -0.00171303
C 1.72599011 12.66348042 15.91784126 0.00281003 0.00476572 -0.00165011
C 7.19913864 6.56122295 6.90681061 -0.00463373 0.00281881 -0.00178941
C 5.88375992 0.32300862 8.98902406 -0.00320236 0.00094704 0.00121614
C 2.49452599 6.03804018 1.04746107 -0.00114925 -0.01000894 -0.00696810
C 7.40505848 11.73385456 17.14702117 0.00059449 0.00710002 -0.00031463
C 1.86534213 7.47399767 8.14144561 0.00007928 -0.00052305 -0.00324132
C 3.00443590 1.20337842 7.64300680 0.00160241 -0.00311601 -0.00204272
C 5.62485194 5.28015903 32.44384062 0.00244797 0.00505846 -0.00295330
C 1.25733008 0.73405651 32.53952614 0.00333096 -0.00054046 0.00671513
C 7.08011309 5.47579012 7.92153321 -0.01070358 -0.00321402 0.00220182
C 5.27170359 11.84888533 9.03876667 -0.00003109 0.00205127 0.00352044
C 2.80643465 7.40651329 16.55790595 -0.00633332 0.00042296 -0.00188363
C 7.21442895 0.28832894 20.77551272 -0.00073283 0.00777525 -0.00107769
C 0.42627099 5.80216713 29.27159715 0.00217535 -0.00062400 -0.00098643
C 3.03667370 12.40630919 20.46157610 0.00429776 -0.00172059 0.00204332
C 4.90046099 6.68410859 27.99135088 -0.00129098 -0.00387023 0.00147270
C 1.02192131 12.57692173 28.99078137 0.00022625 0.00218541 0.00344248
C 7.71191840 6.66549829 20.04860909 -0.00961449 -0.00152751 -0.00489936
C 5.02208937 0.31047511 28.95797368 0.00349948 0.00138711 0.00357479
C 3.23739238 6.05856820 21.13640112 0.00212011 0.00033254 -0.00269073
C 7.13875183 1.04046973 21.89923204 0.00004632 -0.00093481 -0.00044091
C 0.95866984 5.30931381 30.41511133 0.00177306 -0.00023220 -0.00343199
C 2.89122380 11.66288562 19.28924622 0.00079005 -0.00450953 0.00159824
C 5.45365849 7.31218608 26.85890021 -0.00596917 0.00350426 0.00417576
C 1.31309574 11.83495824 27.87439569 -0.00396741 0.00100538 0.00790140
C 7.20338895 7.20515131 18.88280782 0.00414097 -0.00589458 -0.00653489
C 5.44972374 1.06837957 30.02280070 0.00104987 -0.00549279 -0.00183351
C 3.05316026 5.39212561 22.26961146 -0.00207751 -0.00185647 -0.00027792
C 6.53369765 2.25193430 21.84869487 0.00050662 0.00447634 0.00077531
C 1.95638488 4.34325283 30.47932177 0.00278608 -0.01001259 -0.00560977
C 2.38345271 10.36369965 19.37852845 -0.00276815 0.00287333 0.00232996
C 6.34285807 8.35882056 27.02368787 -0.00295647 -0.00122580 -0.00045625
C 2.00811763 10.61594176 27.96680595 -0.00212359 0.00170678 0.00291654
C 6.44088366 8.35422501 18.84572447 0.00214711 -0.00100950 -0.00404303
C 6.22112977 2.29418131 29.81211801 0.00597737 -0.00016656 0.00397627
C 2.15426796 4.32610942 22.23357792 -0.00657246 -0.00721215 -0.00326864
C 6.29537522 2.90467666 20.65094249 -0.00475795 0.00047668 0.00297317
C 2.18970079 3.69387596 29.16087914 -0.00292505 0.00236428 -0.00343647
C 2.12666886 9.81948836 20.65240510 0.00038577 0.00024898 0.00413312
C 6.51691856 8.86231292 28.30236384 0.00551059 -0.00075769 0.00729165
C 2.36781373 10.15906531 29.19995082 0.00584677 0.00969230 -0.00210224
C 6.35828223 9.03892391 20.12779463 0.00232906 -0.00197664 0.00248521
C 6.43612827 2.69876023 28.50131911 -0.00001657 0.00227936 -0.00378170
C 1.86554431 3.80655436 20.97436014 0.00338607 0.00213996 0.00336660
C 6.51970522 2.20217344 19.47287083 0.00466107 0.00307367 0.00876640
C 1.79951279 4.37556917 28.03480039 -0.00359878 0.00637859 0.00381739
C 2.25530357 10.56396797 21.77158909 -0.00103947 -0.00679599 0.00473293
C 5.93858000 8.26958685 29.39955911 0.00403971 -0.00513669 0.00582557
C 2.14440158 10.90975243 30.32310474 -0.00171598 0.00184613 0.00238854
C 6.75478850 8.44168756 21.28955577 -0.00582628 -0.00045618 -0.01217159
C 6.21469054 1.84500024 27.49079730 0.00520169 -0.00167359 0.00444419
C 2.29286719 4.34950240 19.76810936 -0.00391910 0.00221833 -0.00397358
C 7.02827222 0.85211179 19.53999350 0.01067281 -0.00170817 0.00139405
C 1.09936431 5.57458470 28.07851695 0.00138402 0.00343992 0.00023287
C 2.80789419 11.87085307 21.71458101 -0.00214521 0.00809195 0.00330287
C 5.23145033 7.04066841 29.27931801 -0.00073400 -0.00435914 -0.00485736
C 1.55231814 12.12912574 30.25628472 -0.00384775 -0.00255432 -0.00046152
C 7.41631680 7.15849928 21.32280087 0.00316218 -0.00447111 -0.00682282
C 5.37461492 0.67583216 27.66899224 0.00274330 -0.00727402 -0.00074430
C 2.92573608 5.59148303 19.81350976 0.00007940 -0.00494333 -0.00029633
C 7.11912218 0.41785209 17.09287043 -0.00734852 0.00112540 -0.00128356
C 1.52434658 6.28237715 25.80093149 0.00329145 0.00011929 0.00364044
C 2.53615946 12.52627425 24.07335401 0.00028630 -0.00032095 -0.00273845
C 5.53483787 6.51608235 31.59023910 -0.00492634 -0.00022292 0.00011547
C 1.86665245 12.70687850 32.60644766 -0.00735210 0.00463226 -0.00003345
C 7.12237463 6.63252912 23.66250061 -0.00283773 0.00242716 0.00569736
C 5.30154666 0.02067546 25.37660532 -0.00721383 -0.00051438 0.00422927
C 2.63813477 6.33980644 17.49530929 -0.00008152 -0.00178071 -0.00543929
C 7.24178890 11.79894245 0.69366580 -0.00151454 -0.00817277 -0.00019377
C 1.45678383 7.49849479 24.93212879 -0.01331820 -0.00042662 -0.00075120
C 2.30042809 0.81048068 24.55409534 0.00325731 0.00496327 -0.00479640
C 5.59877299 5.43345789 16.19205062 0.00436022 0.00124809 0.00292839
C 1.12580992 1.03899273 15.93819523 0.00190515 0.00370870 0.00439112
C 7.17154307 5.45577743 24.59481056 0.00409860 -0.00078222 -0.00683254
C 5.16106694 11.48396147 25.59114615 0.00594985 0.00642239 0.00573666