1920
Time=71000.00000007 pbc="T T T" Lattice="25.50058544 0.00000000 0.00000000 0.00000000 25.62733287 0.00000000 0.00000000 0.00000000 32.93871468" energy=-12252.74146795 virial="-25.19743180 -23.04558548 13.13468199 -23.04558548 -42.01174262 14.73672530 13.13468199 14.73672530 -37.19276371" stress="0.00097830 -0.00115175 0.00054715 -0.00115175 0.00020131 0.00071586 0.00054715 0.00071586 0.00052223" Properties=species:S:1:pos:R:3:vel:R:3
O 5.93179340 2.38516510 7.38890650 0.00153043 0.01010547 -0.00206265
O 2.46041660 3.48212810 15.05186402 -0.00024031 -0.00134907 -0.00201492
O 1.60404743 10.16456790 0.98840336 0.00551746 -0.00615554 -0.00508029
O 6.34336947 9.44326443 9.28236289 -0.00052084 -0.00109561 0.00122293
O 2.82856663 10.22455246 9.13407409 -0.00003605 0.00317065 -0.00284405
O 6.19335337 9.40502385 1.20066419 -0.00214938 -0.00248265 -0.00091541
O 6.76530165 2.48312673 15.58566241 -0.00597849 0.00081161 -0.00216958
O 1.79933335 3.49382335 6.74458119 -0.00278856 0.00160515 0.00226822
O 5.76634264 1.03610057 17.60687562 -0.00595789 -0.00144687 0.00211626
O 1.70198334 5.07528885 8.85549384 -0.00050136 0.00829224 -0.00278920
O 2.36167158 11.76794578 7.08891272 -0.00747722 0.00074284 -0.00467617
O 6.51717515 7.89029149 32.08313842 0.00052406 0.00134797 0.00018265
O 2.31241799 11.52978281 31.90487551 0.00023955 -0.00481905 -0.00120572
O 6.10314765 7.75403860 7.41836390 -0.00645434 0.00286287 0.00500616
O 6.52459495 1.02938782 9.34164710 0.00147910 -0.00043565 -0.00183007
O 1.81530897 5.30049311 17.21220428 0.00021961 -0.00367859 -0.00054554
O 6.02857635 2.51748268 23.59736110 0.00208569 0.00463008 0.00536531
O 2.99270002 3.83103541 31.68911006 -0.00148557 -0.00548911 -0.00411641
O 1.86644655 9.97617781 17.29677839 -0.00221974 0.00023354 0.00379124
O 7.15465838 8.82053589 26.00064624 -0.00172635 -0.00696466 0.00192854
O 2.80267758 10.06378041 25.79533520 -0.00126210 0.00377829 -0.00108107
O 5.93734428 9.21066784 17.43755462 -0.00025205 0.00510286 -0.00778688
O 6.85846469 2.74202667 31.79419528 -0.00776037 0.00238485 0.00477183
O 1.61504964 3.62697778 23.28969868 0.00509241 0.00051381 0.01010103
O 6.30601299 1.30257374 1.11894239 0.00304088 -0.00114100 -0.00305158
O 2.29817508 4.88854590 25.35339850 0.00033783 -0.00420689 -0.00462657
O 2.05375445 11.27184486 23.75721036 0.00657358 -0.00066499 0.00340888
O 6.25385865 7.59011721 15.36366070 -0.00506410 -0.00097254 0.00110337
O 2.32199471 11.49748938 15.41365133 0.00479509 0.00829396 0.00157491
O 6.80623639 7.60524671 23.66914207 -0.00041158 0.00052858 -0.00575264
O 6.35084205 1.23554431 25.74300368 0.00132087 -0.00202122 0.00445159
O 2.31177233 5.23329843 0.74460460 -0.00188657 -0.00059644 -0.00054621
O 5.72520888 15.97129285 6.73812159 0.00053003 0.00091638 -0.00067883
O 2.56799747 16.43222536 15.06814960 0.00118580 0.00119858 -0.00122975
O 1.65469052 22.81888150 1.47234372 -0.00200761 0.00154563 -0.00396692
O 6.95998764 21.69163781 9.76790300 0.00104735 0.00554231 0.00428167
O 2.61375205 22.82012984 9.81726170 -0.00726306 -0.00499534 -0.00031470
O 5.83491654 21.92331757 1.29759247 0.00735991 0.00058005 -0.00480079
O 6.65080972 16.16598861 14.79310156 0.00618257 0.00203432 -0.00143693
O 1.14346773 16.74370315 6.94845608 0.00227670 0.00794864 -0.00346933
O 6.85020571 14.54859155 17.01756832 0.00101534 -0.00477071 0.00109601
O 2.01282304 18.10372009 9.05023508 -0.00223560 0.00033565 0.00297637
O 2.47538264 24.46386763 7.64398336 -0.00063197 0.00316400 -0.00101254
O 6.40915304 20.20609231 32.32172078 0.00531921 0.00023019 0.00959214
O 2.21394601 24.27209604 32.28521110 -0.00350222 -0.00865955 -0.00387221
O 6.12179452 20.71860127 7.49417258 0.00319762 -0.00362414 0.00865803
O 6.05264838 14.36218524 8.70418564 -0.00505392 -0.00111341 -0.00329070
O 2.23036888 18.12733470 17.19029164 -0.00203038 0.00556550 -0.00089791
O 5.66980941 15.14799921 23.40126386 -0.00558291 0.00427180 -0.00712871
O 3.03641834 16.32495231 31.87358152 0.00649559 -0.00341739 -0.00390697
O 1.30204950 23.27385057 17.92352449 0.00733718 -0.00396574 -0.00480524
O 6.81105614 21.59448110 26.07665164 0.00490895 0.00277508 0.00157725
O 3.05304450 22.80505431 26.14458918 -0.00442265 -0.00432323 0.00135543
O 5.48035216 22.02191931 17.89717442 0.00454877 -0.00537482 -0.00073727
O 7.21217236 15.36510947 31.33601115 -0.00011437 -0.00294263 -0.00222436
O 2.10151614 16.77465413 23.51180738 0.00722590 0.00836132 -0.00060306
O 6.58511029 14.23968790 0.73254477 0.00243884 0.00112341 -0.00856763
O 2.22390752 17.68684031 25.86735182 0.00308257 0.00177655 -0.00373460
O 2.48622162 24.19704768 23.97208689 0.00426918 0.00044878 0.00347649
O 6.05587336 20.53995481 15.88561079 0.00152259 0.00245018 -0.00540247
O 1.78631313 24.30270871 15.81193001 -0.00753204 0.00282503 -0.00193040
O 6.66497653 20.27870385 23.86363855 0.00633227 -0.00531578 0.00212611
O 6.45587124 13.67365263 25.31192526 -0.00842372 0.00632434 0.00242877
O 2.83390096 17.77629711 0.96240335 0.00031543 0.00455678 0.00091057
O 14.02912122 2.48918165 7.47589424 -0.00258835 -0.00016821 -0.00818200
O 11.34438578 4.08640641 15.11370064 0.00128638 0.00017782 -0.00023351
O 10.59803485 10.11784157 0.88602093 0.00263897 0.00490600 0.00137070
O 15.12322317 9.50582697 9.54177311 -0.00647666 0.00306358 0.00251346
O 10.81301732 10.33766433 8.98069112 0.00151208 -0.00170168 0.00297003
O 14.03036973 8.81761127 1.05897836 0.00001797 -0.00197111 0.00146225
O 14.93508513 2.68180207 15.75701879 -0.00912951 0.00039221 -0.00379670
O 10.10300815 3.78867759 7.06183736 0.00215551 -0.00569454 -0.00245216
O 14.85806573 1.21246608 17.84125123 -0.00990767 0.00888530 0.00895229
O 10.65912391 5.47637843 8.92301651 0.00326950 -0.00312288 -0.00412853
O 9.86055384 12.02869172 7.01381694 0.00255094 -0.00074817 0.00346258
O 14.84661852 7.54257977 31.99019747 0.00150866 0.00841336 -0.00366128
O 10.83784429 11.85076363 31.82854636 0.00017888 -0.00155002 -0.01009537
O 14.91956267 7.92072857 7.40229421 -0.00342231 -0.00087486 -0.00738907
O 14.92450460 1.25785075 9.58896193 0.00418178 0.00020926 0.00215802
O 10.51935528 5.17717214 17.29946645 -0.00238837 0.00330483 0.00559912
O 13.97272544 2.61297154 23.85391190 -0.00307591 0.00379388 0.00173904
O 11.37177169 3.72775679 31.49924147 0.00696188 0.00057433 -0.00152932
O 9.76390458 10.12083597 17.68808984 0.00001915 0.00445105 -0.00843924
O 15.52380054 8.95490616 25.74932093 0.00605418 0.00332231 0.00703399
O 11.53348264 9.91220402 25.97450598 0.00366138 0.00268859 0.00120950
O 14.12195543 9.39220854 17.97967577 -0.00016062 -0.00068393 0.00190995
O 15.55005166 2.57255056 32.30104895 0.00421935 0.00895402 -0.00179101
O 10.52147500 3.58580523 23.44581235 0.00068764 0.00179574 -0.00419196
O 14.89496996 1.37784785 1.50164657 -0.00370872 -0.00201602 0.00553936
O 10.76700868 5.15598988 25.50868700 -0.00043096 -0.00146602 -0.00714501
O 11.03915494 11.42146744 23.72960835 0.00245672 -0.00524612 -0.00391535
O 14.24810507 7.89369200 15.94314074 0.00402197 0.00485230 0.00312716
O 9.94320789 11.42392038 15.21918138 0.00163329 0.00323551 -0.00200940
O 14.72750257 7.27194281 23.81959018 -0.00457239 0.00890076 -0.00031777
O 14.67646202 1.25102091 26.02206721 0.00224968 -0.00151492 0.00223591
O 10.75329203 4.95159577 0.74670781 -0.00062619 -0.00380559 0.00015895
O 13.81211971 15.49120837 6.71102240 -0.00164656 0.00181272 0.01017075
O 10.96476798 16.17018177 14.94729099 0.00166725 0.00762065 -0.00762301
O 10.52544620 22.78996007 1.40864636 0.00250706 -0.00107947 0.00194729
O 15.53945255 22.09636643 9.36394705 0.00194793 0.00011515 0.00271518
O 10.98807471 22.42863185 10.20524508 -0.00052485 -0.00817197 0.00274921
O 14.70331009 21.84227960 1.20575407 -0.00362764 -0.00313564 0.00337735
O 15.60814062 15.60596108 14.66771190 -0.00070253 -0.00195528 0.00295471
O 9.93238986 17.19692568 7.03018909 0.00293894 0.00089661 0.00039951
O 14.98789278 14.31107300 16.84586959 0.00577656 -0.00444769 0.00145722
O 10.90277664 18.43468521 9.10663576 -0.00068559 -0.00224094 -0.00247338
O 10.84800163 23.92259130 7.77176671 -0.00291069 -0.00197274 0.00280570
O 15.04555967 20.47178483 32.06005317 -0.00147263 0.00018701 0.00078223
O 10.93696119 24.50739210 32.35225174 -0.01012212 -0.00048688 -0.00500089
O 15.45998680 20.53147544 7.38028355 0.00202040 -0.00033014 -0.00509296
O 14.44116175 13.93284375 8.76127312 0.00379235 0.00003140 0.00405906
O 11.09143241 17.95228685 16.95862958 -0.00152170 -0.00341001 -0.00026998
O 14.39606910 15.10622244 23.25583833 -0.00493543 -0.00012626 0.00088013
O 11.53404587 16.82164713 31.35409092 -0.00360658 -0.00071941 -0.00019682
O 10.45846431 22.63547090 18.21611917 0.00190989 -0.00137627 0.00017253
O 15.48365298 21.66294224 25.80552195 0.00255639 0.00077728 0.00590148
O 10.89658938 22.22569480 26.50160695 0.00208789 0.00889027 -0.00037539
O 13.96698074 21.55927030 17.80209203 -0.00458379 0.00244911 -0.00783273
O 15.37769592 15.59046117 31.42304595 0.00062869 -0.00433737 -0.00175282
O 10.31087276 16.59954723 23.15443931 -0.00465663 -0.00231274 0.00302311
O 15.10377657 14.24555414 0.68757559 0.00084885 0.00033874 -0.00205316
O 11.16033683 18.29067110 25.11020911 -0.00203891 -0.00632332 -0.00279309
O 10.89012136 24.04388196 24.47305201 -0.00419646 -0.00272791 -0.00572076
O 14.68945679 20.38293186 15.55028035 -0.00403648 0.00162333 -0.00721958
O 10.28878103 24.51659354 16.40038483 0.00042863 0.00448039 -0.00015797
O 14.85867373 20.08389719 23.83805840 -0.00049026 0.00101215 -0.00000777
O 15.17681013 13.83175544 25.26067987 0.00199344 0.00649371 0.00129705
O 10.69134987 18.14449126 0.79102062 0.00047591 -0.00428429 -0.00593852
O 22.74501307 3.08978295 7.37987455 0.00162986 -0.00185274 -0.00269625
O 19.43692424 4.05197100 15.09994435 0.00627758 0.00001504 -0.00197229
O 18.50604855 10.16405768 1.11682001 -0.00092938 -0.00439949 0.00211099
O 24.08176694 9.33389891 9.38199078 -0.00673781 -0.00137688 -0.00034381
O 19.58587218 10.33397962 9.14415859 0.00206952 0.00329969 0.00476704
O 22.69245512 9.13662985 1.10758367 0.00099716 -0.00229386 -0.00067181
O 23.89488822 2.91980624 15.49616337 0.00219870 0.00065338 -0.00228278
O 18.51969422 3.70422225 6.85258809 -0.00703549 -0.00000024 -0.00085420
O 23.39813150 1.50288548 17.69693318 0.00090409 -0.00554914 0.00457400
O 18.91646628 5.11850444 8.76220620 -0.00281891 0.00268977 0.00635251
O 18.61767462 11.81477644 7.23225302 -0.00135536 0.00031451 0.00798477
O 23.30299200 7.76074796 32.16191791 0.01214942 -0.00116515 -0.00513228
O 19.46837375 11.40933943 31.91982668 0.00545692 -0.00015841 0.00632034
O 23.58921807 7.89900942 7.22557211 -0.00427769 0.00219161 -0.00053164
O 23.27465706 1.28086601 9.26112038 0.00216069 -0.00482470 -0.00177743
O 18.78083276 5.43846925 17.23330918 -0.00035045 -0.00197983 0.00330417
O 22.38939075 2.93136114 23.77672472 -0.00828113 -0.00626125 0.00335314
O 19.79090736 3.35408038 31.66317273 0.00513961 -0.00019460 0.00722581
O 18.32453554 10.40449497 17.22918655 0.00448818 0.00194045 -0.00223740
O 24.03142990 9.21179917 25.70490220 -0.00645910 0.00496300 -0.00225200
O 20.11060739 10.16670515 25.59912303 0.00715498 0.00324589 -0.00223939
O 22.94115125 9.16148679 17.36497882 0.00292286 -0.00113860 0.00674902
O 23.99437883 2.71496729 32.45766791 0.00230287 0.00003172 0.00252751
O 18.64897428 3.59531934 23.38320704 0.00003158 0.00286293 0.00000282
O 23.51957959 1.05386437 1.40321274 0.00449632 0.00184931 -0.00367237
O 18.77943749 5.17128564 25.53004249 0.00359615 -0.00363695 0.00516744
O 19.19957249 11.44653778 23.62187993 0.00130614 -0.00235666 0.00010035
O 23.24725600 7.64928141 15.35769532 0.00019572 0.00164867 0.00307100
O 19.50692127 11.90021124 15.26128916 -0.00203269 0.00465804 0.00173660
O 23.34023475 7.48055838 23.71806367 -0.00206312 -0.00362834 -0.00021747
O 23.12819508 1.59363285 26.19085446 -0.00230914 -0.00184775 0.00438343
O 19.77264054 5.04129582 0.78523471 -0.00383671 0.00003366 0.00080429
O 22.92254807 15.45912342 6.62454348 -0.00463680 -0.00130560 0.00013882
O 20.12903797 16.79310948 15.11408180 0.00460934 0.00341803 -0.00307784
O 18.69078810 22.67850415 1.67971510 0.00124344 0.00157196 -0.00137307
O 23.99669070 21.87902438 9.64351886 -0.00518502 0.00239815 0.00085322
O 19.16226372 22.57219090 9.88767212 0.00266467 -0.00243034 0.00134720
O 22.86752542 21.70852942 1.38390242 -0.00249292 -0.00210921 0.00437782
O 24.53945500 15.88847256 15.03842912 -0.00198791 -0.00379785 -0.00408974
O 18.21903563 16.37479693 6.91965974 0.00101866 0.00768329 -0.00194282
O 23.97917133 14.18638179 17.05925690 0.00122062 -0.00139666 0.00339057
O 19.14282023 17.81997967 8.95717533 -0.00680100 -0.00293163 -0.00190797
O 19.19217943 24.32169553 7.79444161 0.00142323 -0.00635557 0.00089367
O 23.42924994 20.40775139 32.14523473 -0.00403292 0.00375328 -0.00340424
O 19.12112875 24.34602637 32.78538169 -0.00790378 0.00881498 0.00102170
O 23.20545362 20.45290576 7.53985582 -0.00346271 0.00171189 -0.00256817
O 23.42091008 14.01609783 8.92073520 0.00206936 -0.00511343 -0.00706064
O 18.95555547 18.18707412 17.06541741 -0.00610196 0.00008725 0.00031347
O 23.11450428 15.81300466 23.19835855 0.00124199 -0.00561834 -0.00024266
O 19.57674714 16.30666863 31.35345536 0.00343898 -0.00127077 -0.00607961
O 18.93342275 22.90675254 18.26824571 0.00579250 -0.01049628 0.00215147
O 23.96928652 22.05784727 25.98627071 0.00264415 -0.00184501 -0.00684808
O 19.51205478 22.53951733 26.64835828 0.00137214 -0.00016536 -0.00575882
O 23.02743433 21.88868666 17.83115270 -0.00174239 0.00067714 0.00261691
O 23.83409285 15.60191163 31.33713693 -0.00027538 0.00225542 -0.01099417
O 18.39423112 16.20185375 23.01337647 0.00464803 -0.00461959 0.00423963
O 23.35125241 13.92583081 0.27857614 0.00477841 -0.00655922 -0.00324695
O 19.11953857 17.64553080 25.24139603 -0.00269301 0.00029633 -0.00193417
O 19.30260722 24.22657292 24.61763825 -0.00200196 0.00653278 0.00015459
O 23.43198218 20.51630781 15.71173891 -0.00547384 -0.00019626 0.00793221
O 19.14090991 24.51870572 16.03637221 0.00634104 0.00103273 0.00362793
O 23.46678184 20.31257958 24.13164674 -0.00178198 0.00818084 0.00068008
O 23.62335362 14.03023240 25.20673849 0.00051657 -0.00157901 -0.00291714
O 19.15859617 17.74991512 0.59015580 -0.00129952 0.00459191 -0.00197291
N 7.80489737 13.25993777 2.34868769 -0.00230480 0.00211785 -0.00149044
N 0.91133624 6.32121339 10.63147941 -0.00134284 0.00089067 -0.00446769
N 3.00720349 0.20215355 5.91325348 0.00112849 0.00380254 -0.00056073
N 5.16721444 6.33909197 13.80863670 0.00060093 0.00149263 0.00359468
N 0.77232486 25.60217181 14.26741181 0.00835596 -0.00104892 -0.00083899
N 7.21549643 6.55093024 5.83693739 -0.00212863 0.00285802 0.00033612
N 5.27180621 13.08112804 10.43624451 -0.00123210 0.00027755 -0.00130048
N 3.37666710 6.43147998 2.38851510 0.00115563 -0.00073158 0.00453631
N 7.31105834 12.96263980 18.62209379 0.00227983 0.00519309 -0.00586900
N 1.11041641 5.99334141 27.02692374 -0.00378777 0.00289769 -0.00268746
N 3.16731393 0.05346801 22.41014872 -0.00958820 -0.00354925 0.00006353
N 5.34526540 6.57844159 30.70893606 -0.00096708 -0.00289093 0.00417246
N 0.93593707 25.26541791 30.60615972 -0.00412031 -0.00200643 0.00643343
N 7.37670005 6.14161783 22.00622370 -0.00364598 -0.00531631 -0.00423032
N 5.31620022 12.50121140 26.93248473 0.00690019 0.00029249 0.00023962
N 3.30526992 6.21349011 18.63481341 0.00222274 -0.00505309 0.00202463
N 7.63031358 0.11043145 2.61984716 -0.00926451 0.00203480 -0.00395308
N 1.01463790 19.34233536 10.66737390 -0.00553041 0.00641453 0.00161144
N 2.97212113 13.12890583 5.42935784 0.00267897 -0.00675501 -0.00015265
N 5.09925448 19.22648087 14.27211259 -0.00199814 0.00351508 0.00652492
N 1.21273571 12.73410759 13.84344196 -0.00041133 -0.00772982 -0.00163395
N 7.33080628 19.35758623 6.02091523 -0.00128913 0.01346438 -0.00061381
N 4.94631649 0.18646154 10.78427466 0.00316943 0.00558124 0.00584052
N 3.49831020 19.21376586 2.60067100 -0.00774474 -0.00607069 0.00013211
N 7.47928313 0.13653713 18.86248804 -0.00086869 0.00528496 -0.00233157
N 1.13040312 18.97317721 27.46509482 0.00430018 -0.00267549 0.00281000
N 3.16889586 12.51918945 22.15012056 0.00729703 -0.00480943 0.00164884
N 5.48523390 18.95642436 30.68902756 -0.00023851 -0.00370048 -0.00390792
N 1.13787156 12.71166108 30.33096399 -0.00247869 -0.00402446 -0.00020480
N 7.48831035 19.10418174 22.05904974 0.00191060 -0.00043091 0.00391109
N 5.34581208 25.48876946 27.32928218 -0.00037790 0.00641742 0.00328158
N 3.15991962 19.46524266 18.75971036 -0.00175205 -0.00348912 -0.00344132
N 15.88328032 12.84471089 2.31821168 -0.00357007 0.00252240 0.00179817
N 9.03991412 6.06956072 10.50907242 -0.00224482 -0.00024182 0.00178425
N 11.76488317 25.36157057 6.24383770 0.00087335 -0.00395770 -0.00158667
N 13.56443718 6.62794747 14.10448188 0.00310182 0.00452954 -0.00174544
N 9.53791563 25.61604481 14.50968759 -0.00195721 -0.00307286 0.00059497
N 15.70200538 6.48550467 5.75590503 0.00212697 -0.00177207 -0.00503898
N 13.46593036 12.79024732 10.37102059 0.00210882 -0.00291718 -0.00326867
N 11.63573400 6.31092483 2.30671882 0.00370399 -0.00064740 -0.00152017
N 15.98867629 12.98726788 18.38981407 0.00012847 0.00576173 0.00449669
N 9.76041209 6.51736404 27.09695225 0.00175525 0.00447496 0.00505528
N 11.41390905 25.56512364 22.82464774 0.00690740 -0.00070662 0.01500141
N 13.76047905 6.40484411 30.39487277 0.00620131 0.01010102 -0.00101991
N 9.37433576 25.31230857 30.86228880 -0.00078497 0.00398485 0.00736370
N 16.16706001 6.45335742 22.15517631 0.00150085 0.00401814 -0.00315893
N 13.97227035 12.79614453 26.88595956 -0.00303827 -0.00319389 0.00457151
N 11.50450762 6.40495160 18.91925763 0.00688225 0.00128516 -0.00417575
N 16.09083135 0.26023711 2.98769436 0.00566345 0.00404022 0.00201086
N 9.61948398 19.39086785 10.67493008 0.00272670 -0.00287931 -0.00213874
N 11.31562101 13.05552999 5.56766438 0.00123545 -0.00341272 0.00247583
N 13.80841726 19.22411331 13.77438862 0.00088647 -0.00130800 0.00140092
N 9.15560135 12.91236249 13.67385535 -0.00035167 -0.00204783 -0.00104518
N 16.13159316 19.02552286 5.80624191 -0.00440766 -0.00289474 -0.00258654
N 13.44270502 0.38599890 11.00169016 -0.00478967 -0.00014355 -0.00111419
N 12.06451149 19.24355483 2.24192844 -0.00328723 -0.00006669 -0.00231478
N 16.10608946 0.18950024 19.45309577 -0.00264036 -0.00037588 0.00208581
N 9.65749033 19.03113546 26.59801490 -0.00248130 -0.00080650 -0.00230263
N 11.77286324 12.82087819 22.13188016 0.00166428 0.00081840 0.00450872
N 13.90468304 19.21549952 30.46140560 0.00457892 -0.00825327 0.00555724
N 9.76642479 13.03975909 30.16992435 -0.00006029 0.00499659 0.00975297
N 16.22428489 19.30823162 22.21818804 0.00827805 -0.00568580 -0.00108019
N 13.59223888 25.58492090 27.65936321 -0.00188425 -0.00684113 -0.00299953
N 11.87111442 19.33687464 18.58673639 -0.00463381 0.00050245 0.00763772
N 24.28186142 12.67740102 2.00301114 -0.00431795 0.00849141 -0.00086180
N 17.91077567 6.50120763 10.32370265 0.00789175 -0.00413204 0.00568400
N 20.36803221 25.37131535 6.14673437 -0.00569537 0.00170350 0.00232081
N 22.11443860 6.53773561 13.71265455 -0.00222058 -0.00906010 -0.00859228
N 17.76200192 25.34798178 14.49491739 0.00202182 -0.00098584 0.00619718
N 24.52103053 6.56316789 5.63404100 0.00629830 0.00101987 -0.00152598
N 22.43145618 13.09841021 10.74035911 0.00824130 -0.00131495 0.00100885
N 20.38564941 6.53250807 2.43757303 0.00159764 0.00104581 0.00266734
N 24.28547024 12.71547414 18.80454344 0.00542442 -0.00569523 0.00458100
N 18.24348974 6.54221831 27.29401525 0.00071875 0.00689638 -0.00899923
N 20.35515940 25.41374567 23.00951410 0.01070098 -0.00301874 0.00079297
N 22.13341700 6.77303061 30.46906528 0.00024217 0.00308582 -0.00765995
N 18.32523802 25.62681100 31.06992333 0.01158696 -0.00677316 0.00148508
N 24.61702431 6.59380896 22.07344250 0.00146804 0.00324332 -0.00467387
N 22.31073931 12.90629660 26.74546353 0.00453474 0.00456087 0.00041542
N 20.14897931 6.50808414 18.82171918 0.00554822 0.00131857 0.00139421
N 24.58766735 0.05551972 3.12929915 0.00261454 0.00342366 -0.00410904
N 18.04374449 19.04714071 10.51632918 -0.00166039 0.00368645 0.01106079
N 20.12067292 12.66463422 5.71375714 -0.00087856 -0.00589523 0.01145232
N 22.33292192 19.27280341 14.14025706 -0.00303655 -0.00392419 0.00384185
N 17.99281016 12.76677868 13.82163078 -0.00227328 -0.00581969 0.00141780
N 24.55618324 19.26239312 6.05367069 -0.00092828 -0.00006372 0.00421602
N 21.96998154 0.33291851 11.00182064 -0.00329874 -0.00431551 0.00363486
N 20.31635305 18.77028956 2.34240726 0.00641908 -0.00000262 0.00491710
N 24.39605961 0.23659278 19.33694003 0.00176583 -0.00611002 0.00286653
N 18.12728367 19.01001588 26.81479653 -0.00417754 -0.00464147 -0.00360489
N 20.26438528 12.56831337 21.91877611 -0.00608172 -0.00145739 -0.00168267
N 22.23475362 19.25100034 30.56026853 0.00255740 -0.00281311 0.00511026
N 18.23434052 12.44896743 30.26496263 0.00208628 0.00080761 -0.00005240
N 24.43820332 19.07999369 22.46178928 -0.00102182 -0.00070195 -0.00261794
N 22.38595645 0.20122797 27.80513356 0.00955555 -0.00166557 0.00122897
N 20.23212132 19.15671367 18.64765119 -0.00100059 -0.00171690 -0.00052246
C 7.60241956 0.21774135 4.99670565 -0.00099194 0.00346032 0.00351397
C 0.83725639 5.95459327 13.00271136 -0.00132573 -0.00316002 0.00146216
C 3.32253287 12.54466514 3.09089410 0.00023303 -0.00464679 -0.00182038
C 4.95664166 6.79081615 11.44796542 0.00753992 0.00159389 0.00692822
C 1.15047343 12.55503617 11.48214923 0.00371563 -0.00480139 -0.00416519
C 7.48967696 6.92956886 3.54330971 0.00231307 -0.00106718 -0.00276360
C 5.08295242 0.26176656 13.21483181 0.00201348 -0.00211294 -0.00333600
C 3.00513108 6.24147734 4.76753079 0.00494053 0.00072498 0.00086418
C 7.18715510 0.74213849 6.19261684 -0.00360929 -0.00270592 -0.00189000
C 1.02338169 5.12927918 14.06092827 -0.00292431 0.00403073 -0.00751647
C 3.09127983 11.73281363 1.96943306 -0.00242471 -0.00939608 0.00836002
C 5.18460852 7.53000246 10.29012112 0.00279149 -0.00620395 -0.00253138
C 1.49747592 11.86096289 10.32396208 0.00184452 0.00354126 0.00197480
C 7.19012307 7.63004147 2.38967989 0.00209196 -0.00302770 -0.00111073
C 5.36398894 0.94463325 14.36123312 -0.00130084 0.00260181 0.00110268
C 2.57566933 5.55566121 5.86113866 -0.00065869 -0.00153879 -0.00842652
C 6.36078721 1.87505392 6.23062636 -0.00063501 0.01218982 0.00670563
C 2.00190143 4.10186765 13.93237543 -0.00235660 0.00132222 -0.00182854
C 2.11914762 10.71894886 2.08755033 0.00194488 0.00059168 0.00284514
C 6.00498802 8.70570743 10.35650080 0.00699273 0.00287582 0.00498213
C 2.44214323 10.80978080 10.27657234 -0.00061106 0.00311214 0.01046049
C 6.40567020 8.81210332 2.41704696 0.00012214 0.00556043 -0.00135198
C 6.22709721 2.07565870 14.43500350 -0.00070652 -0.01012874 0.00059744
C 1.97337422 4.31785376 5.65566146 0.00609217 -0.00168668 0.00179979
C 6.17556144 2.58822746 4.99644346 0.01102033 -0.00089356 0.00032535
C 2.30405220 3.56172185 12.61797857 0.00066924 0.01248541 0.00530030
C 1.81486481 10.29601313 3.40801455 0.00437472 -0.00283268 -0.00456362
C 6.37265248 9.08937064 11.67319066 -0.00099302 0.00176873 -0.00086049
C 2.86134087 10.31907860 11.54284216 0.00190761 0.00021420 -0.00437864
C 6.04755165 9.27447282 3.62743517 0.00662026 0.00149923 -0.00466317
C 6.49095231 2.64726328 13.13304035 0.00121173 -0.00538365 -0.00836059
C 1.68873914 3.86149807 4.40704729 -0.00074027 0.00995494 -0.00583584
C 6.63239107 2.05431495 3.77952463 -0.00056624 0.00369071 0.00100854
C 1.90595301 4.31603164 11.53326389 0.00139251 -0.00131774 -0.00072030
C 2.19674526 10.98811247 4.55345255 -0.00260529 0.00917151 0.00257107
C 6.13586008 8.40003710 12.82204192 -0.00224508 -0.00240071 0.00077908
C 2.37104592 10.88109424 12.67859678 0.00489996 -0.00223950 0.00286629
C 6.28647894 8.58792880 4.83637594 0.00240697 -0.00149697 0.00016822
C 6.04083532 2.09643884 11.95569179 0.00613959 0.00344218 -0.00535121
C 2.19435959 4.47715668 3.30459235 -0.00216113 -0.00344305 0.00383106
C 7.27562871 0.77731888 3.76708484 -0.00501010 -0.00209420 0.00949556
C 1.19027619 5.49367403 11.69781062 -0.00683368 -0.00241324 0.00039741
C 2.87442732 12.20123242 4.40418285 -0.00025638 -0.00542905 -0.00053287
C 5.40307188 7.16969035 12.68286015 0.00483474 -0.00196443 -0.00692756
C 1.57976150 12.00725115 12.71890815 -0.00299491 0.00183574 -0.00038744
C 6.95199821 7.35098271 4.72554697 -0.00886293 0.00263217 0.00101383
C 5.35976480 0.86986889 11.94860764 0.00304986 0.00562672 0.00210292
C 2.91280787 5.69574625 3.47895951 -0.00247038 -0.00190639 0.00109807
C 7.02598668 0.30715372 1.41160048 0.00099367 0.00027484 0.00428257
C 1.33382739 6.13990101 9.35729874 0.00093747 0.00351162 0.00661682
C 2.66215065 12.89253543 6.67237441 0.00007438 0.00202677 0.00330940
C 5.69555229 6.53014153 15.01631070 0.00308799 -0.00557012 -0.00490123
C 1.74454131 12.53635015 15.06844159 -0.00011600 0.00776666 0.00217712
C 6.64841422 6.70021077 7.07503424 0.00005045 0.00190306 -0.00215737
C 5.74461408 0.10073121 9.65797193 -0.00442406 -0.00378939 0.00660665
C 2.79055460 6.31126636 1.15614156 0.00511661 -0.00562563 0.00318229
C 6.75330559 12.18043027 16.51530080 0.00474666 -0.00084101 -0.00079510
C 1.36608088 7.43871561 8.56038489 0.00404631 0.00160899 0.00941367
C 2.97144141 1.12702319 8.11293583 -0.00556639 -0.00576775 0.00304020
C 5.65302402 5.81846244 0.04685246 -0.00241561 -0.01139800 -0.00144215
C 1.13957832 0.83843177 32.63500747 0.00881407 0.00570998 0.00031053
C 6.64813103 5.45711160 7.89106379 -0.00195185 0.00380975 -0.00459497
C 5.55740668 12.10837136 8.21731878 -0.00384410 0.00149809 0.00235810
C 2.87022169 7.37907439 16.49645926 -0.00245059 0.00001448 -0.00420878
C 7.45031283 0.16384615 21.30312592 -0.00555837 -0.00843865 0.01160155
C 1.06025254 5.86759988 29.47813859 0.00066511 -0.00383254 -0.00135597
C 3.12084971 12.36891790 19.71015646 -0.00518951 -0.00066590 0.00480809
C 5.52711036 6.46640347 28.28215003 0.00098955 -0.00080194 0.00247176
C 1.11502651 12.43960171 27.91010297 0.00511125 0.00217148 0.00287909
C 7.52224493 6.67784196 19.60715189 -0.00084906 -0.00300162 0.00106322
C 5.11047228 0.31179913 29.69687940 -0.00678702 -0.00044173 0.00672134
C 3.36953064 5.92347006 21.05252284 0.00907714 -0.00103372 -0.00374189
C 7.09279247 0.81802692 22.46415885 0.00019926 0.00427307 -0.00281479
C 1.64082651 5.37420807 30.59788512 0.01174511 0.00730466 0.00271302
C 2.87826145 11.72026050 18.50396620 -0.00134670 0.00613568 0.00459064
C 5.96995989 6.98368739 27.08707491 0.00265396 0.00371682 -0.00232738
C 1.52105395 11.76975973 26.79454559 0.00186256 -0.00484083 -0.00407830
C 7.17427708 7.40778589 18.53536296 0.00289481 0.00012971 -0.00084800
C 5.45889311 1.07015474 30.83193933 -0.00373721 -0.00518477 0.00753191
C 2.97156036 5.20164914 22.17495377 -0.00052678 -0.00473022 -0.00624741
C 6.31039375 2.00642100 22.41406608 -0.00885381 -0.00767865 -0.00037189
C 2.35934720 4.18606009 30.54828849 0.00019802 -0.00052909 -0.00637282
C 2.18845807 10.53550730 18.43095068 0.00215382 0.00416654 -0.00106210
C 6.70335797 8.18856431 27.09431678 -0.00856458 -0.00462665 -0.00728449
C 2.23459841 10.59167626 26.91103702 -0.00438812 0.00421063 0.00708911
C 6.29350495 8.52726024 18.58597439 0.00338305 -0.00223442 -0.00411574
C 6.37581849 2.11748850 30.72344253 -0.00261305 0.00232864 0.00054353
C 2.18481996 4.06878954 22.11842873 0.00233129 0.00367753 -0.00033598
C 5.94334721 2.57877223 21.19352502 0.00215885 0.00609028 -0.00959383
C 2.51736028 3.50888539 29.32686065 0.00002560 -0.00281381 0.00343950
C 1.82370814 10.04683917 19.68010443 0.00453558 0.00140440 0.00618167
C 6.86435281 8.88071970 28.27407324 0.00658812 0.00297612 -0.00217286
C 2.33941448 10.01135324 28.17302369 0.00209610 0.00083435 -0.00195585
C 5.93753335 8.91674417 19.92228505 -0.00194667 -0.00490297 -0.00578551
C 6.66496103 2.64622597 29.42584646 0.00060634 -0.00518337 -0.00482554
C 1.83903484 3.56408224 20.82196742 0.00923047 -0.00615850 -0.00008998
C 6.40187914 1.90459918 20.07991589 0.00051516 0.00484697 -0.00190756
C 2.13468982 4.11073286 28.12194545 0.00528125 -0.00666638 0.00740913
C 2.15683853 10.54676262 20.90672714 -0.00936758 0.00143988 0.00346514
C 6.37123843 8.33224896 29.42471639 0.00717796 -0.00271414 0.00366960
C 2.12957440 10.77603186 29.27041172 0.00298383 -0.00042335 -0.00148797
C 6.32512664 8.18400016 21.03698963 -0.00026248 -0.00040396 0.01673590
C 6.17806334 1.97994867 28.29203224 0.00356174 -0.00239966 -0.00122988
C 2.35712091 4.21988641 19.64185185 -0.00032020 0.00295607 0.00235801
C 7.10980735 0.70321331 20.08747068 0.00471786 -0.00677796 0.00679441
C 1.42102069 5.37468516 28.19776161 0.00085608 0.00454763 -0.00184882
C 2.75875846 11.80117978 20.96400965 -0.00350607 0.00225825 0.00141499
C 5.76024362 7.12822025 29.47182238 0.00529535 0.00519923 -0.00085158
C 1.50606462 12.01083329 29.18772233 0.00719873 0.00151734 -0.00926126
C 7.11442515 7.02480118 20.90987601 -0.00018959 0.00768013 0.00374903
C 5.53510320 0.69206990 28.39157420 -0.00255392 0.00386493 -0.00021155
C 3.01825639 5.48033709 19.78413243 -0.00120894 -0.00315509 0.00799190
C 6.75064734 0.19532140 17.74689868 -0.00300278 -0.00769196 0.00372499
C 1.63500778 5.81650582 25.80615840 -0.00488678 -0.00144881 -0.00370972
C 2.62671302 12.35198174 23.35684473 0.00225809 -0.00611615 0.00625946
C 5.87290200 6.80340803 31.89243967 0.00347205 0.00348935 0.00009072
C 1.58263668 12.52994612 31.58487807 -0.00438471 0.00384736 0.00569284
C 7.09740921 6.43425286 23.27866791 -0.00181623 0.00164654 -0.01231373
C 5.96995875 0.11898576 26.11443594 -0.00063570 -0.00904350 -0.00141518
C 2.59986997 6.19867967 17.44791350 -0.00479879 -0.00421038 -0.00671665
C 7.56855231 12.02665108 0.35118085 -0.00445862 0.00239420 -0.00354460
C 1.57455184 7.12087817 24.99563633 -0.00522814 0.00286636 -0.00451137
C 3.23099646 0.75828095 24.65830656 0.00411363 0.00365674 -0.00143761
C 5.59439582 5.40385490 15.97216504 -0.00469744 -0.00125361 0.00141879
C 1.13776898 0.92878879 16.48690613 -0.00166993 -0.00026678 0.00622699
C 7.24649456 5.35433344 24.26227532 0.00525272 -0.00896664 -0.00375145
C 5.78400639 11.40043330 24.79391677 -0.00132106 -0.00763065 -0.00739192