1920
Time=45000.00000003 pbc="T T T" Lattice="25.67243537 0.00000000 0.00000000 0.00000000 25.57822362 0.00000000 0.00000000 0.00000000 32.86653351" energy=-12251.43212658 virial="-80.98281924 -16.57886012 14.79246139 -16.57886012 -65.37641272 17.57856205 14.79246139 17.57856205 -12.17121517" stress="-0.00158512 -0.00077387 0.00065740 -0.00077387 -0.00098169 0.00081133 0.00065740 0.00081133 0.00151323" Properties=species:S:1:pos:R:3:vel:R:3
O 5.77973260 2.68758207 7.03805096 -0.00411983 -0.00695641 -0.00246661
O 2.96595558 3.81485280 15.47855173 0.00408811 0.00347859 -0.00378523
O 1.74399816 9.81971472 1.17966174 -0.00670444 0.00179971 -0.00253235
O 6.33177562 9.21355789 9.74424683 0.00376284 0.00387519 0.00283693
O 3.00529124 10.23647302 9.61999240 0.00205748 -0.00287456 -0.00278779
O 5.97194527 9.38034074 1.38223035 0.00319391 0.00988834 -0.00509278
O 6.97629770 3.01094825 15.11846720 -0.00744604 -0.00100505 -0.00140497
O 1.40387083 3.93496967 7.17574660 0.00390174 0.00111967 0.00481773
O 6.58248181 1.29149537 17.09164946 0.00225127 0.00206511 -0.00110908
O 2.05194743 5.16500939 9.35031868 0.00718787 -0.00267804 -0.00107780
O 2.52317443 11.26988213 7.35696852 0.00432628 0.00136192 0.00012234
O 6.31893336 7.73569251 32.28045126 -0.00248012 -0.00001599 -0.00110917
O 2.38261457 11.53916467 32.22820579 0.00140365 0.00563860 -0.00002085
O 6.23799077 7.56434121 7.70880282 0.00349570 -0.00009742 0.00154315
O 5.86853787 1.21886957 9.11143500 -0.00209038 0.00203489 0.00267029
O 2.57759507 5.09419944 17.56979422 -0.00377160 0.00499045 -0.00708078
O 5.88995124 2.85329943 23.28490385 0.00729686 -0.00037276 -0.00088597
O 2.89214202 4.05174112 31.79468415 0.00083338 0.00349750 -0.00445600
O 1.34637967 9.99566953 17.97313793 0.00119882 -0.00216525 -0.00088207
O 7.07084803 9.11594704 26.15982432 0.00019761 -0.00667376 -0.00103490
O 2.78633782 9.86239475 26.04821046 0.00504769 0.00380360 0.00185767
O 5.74634234 9.00092757 17.96468870 -0.00640008 0.00411353 0.00067662
O 6.70557948 3.17121925 31.18989569 0.00105311 -0.00061370 -0.00168532
O 1.48556610 3.60636421 23.50196926 -0.00215007 -0.00109343 0.00145889
O 6.64198766 1.63388294 0.70424510 -0.00349833 -0.00540398 -0.00095563
O 2.07594811 4.90973182 25.55244049 0.00152203 0.00116858 -0.00330475
O 2.48152207 11.49454468 24.09851680 0.00560871 -0.00073680 -0.00192609
O 6.56687172 7.64593399 15.96402529 -0.00150409 -0.00180878 -0.00700966
O 1.76363723 11.19407241 15.81474396 -0.00302351 -0.00301682 -0.00349670
O 6.43766815 7.67592984 24.09859256 -0.00837922 -0.00611411 -0.00186582
O 6.27343031 1.17294116 25.15002974 -0.00539389 0.00457554 0.00313765
O 2.13816292 5.05190663 1.11471593 0.00694325 -0.00238976 0.00211320
O 6.38907181 15.32838376 6.88087980 -0.00742446 -0.00303452 0.00229020
O 2.29023633 15.98931233 15.04534394 0.00430643 -0.00068443 -0.00500044
O 1.36655091 22.79301364 1.06562337 -0.00161487 0.00345532 -0.00144704
O 7.19717699 22.04651307 9.43631635 -0.00418668 0.00523047 -0.00512756
O 2.67261886 22.90735611 9.18120195 0.00036071 -0.00960824 -0.00509786
O 5.98890262 22.51686716 1.50143016 0.00265731 0.00158282 0.00245578
O 7.14161705 15.28978200 15.42199133 0.00188057 -0.00322861 -0.00045192
O 1.70829991 16.07329694 6.82427037 0.00110893 -0.00121055 -0.00211610
O 5.97602403 13.77889678 17.38479672 0.00338858 -0.00519602 -0.00120718
O 2.06735299 17.68402895 8.93675374 -0.00263576 0.00019003 0.00685364
O 2.11810753 24.47424669 7.23799128 0.00717170 -0.00083876 0.00017619
O 6.10438926 20.57866794 32.08676034 0.00037771 -0.00014601 0.00633678
O 2.01249692 24.28970088 31.91152096 -0.00296410 -0.00035435 0.00565854
O 6.66611715 20.33048315 7.54897151 -0.00347366 0.00408466 0.00074328
O 6.13792779 14.41834624 9.30591228 -0.00023041 -0.00244794 0.00244736
O 2.43366037 17.92067402 16.95392991 -0.00024437 0.00077904 -0.00602769
O 6.27812286 15.49667939 23.50643812 -0.00056718 0.00732461 0.00141632
O 2.74057780 16.50827331 31.34835683 -0.00161284 -0.00175942 0.00176951
O 1.66712934 22.92366122 17.50565869 0.00114362 -0.00350252 -0.00045968
O 6.81023658 22.07884750 26.06258314 -0.00132839 -0.00213596 0.00352825
O 2.84431275 22.89349545 25.78035610 0.00068014 -0.00103193 0.00899193
O 5.82440359 21.67172928 17.90801258 0.00174657 0.00165796 -0.00750441
O 6.94183354 15.55729955 31.51165723 -0.00733189 -0.00231516 0.00430783
O 1.73192180 16.11633296 22.95065580 -0.00071918 0.00488279 -0.00196834
O 6.44111474 14.06051708 0.55308041 -0.00649343 -0.00222450 -0.00111879
O 1.86765825 17.82813468 25.07498448 -0.00199922 -0.00580205 -0.00287370
O 2.05962020 24.24849967 23.67679320 -0.01073656 -0.00686693 0.00572978
O 6.35812279 20.55973975 15.53713836 -0.00252542 0.00244722 -0.00075461
O 2.41830056 24.26695459 15.30325778 0.00301643 0.00519222 0.00627328
O 6.54592549 20.38472547 24.04925128 0.00619587 -0.00045003 -0.00644322
O 6.71072854 13.85738265 25.44042343 -0.00481571 0.00132836 0.00805085
O 2.66494025 17.82644698 0.69288150 -0.00490956 0.00130444 0.00088828
O 14.27439311 2.69643001 6.51757246 -0.00222990 -0.00040012 0.00458719
O 11.55160783 3.49756198 15.19879714 0.00169078 -0.00512327 0.00171807
O 10.25534105 10.11426437 1.01065831 0.00152441 -0.00229548 -0.00045954
O 15.55599993 8.83334762 9.61495226 0.00300464 -0.00179479 -0.00096751
O 11.40672838 10.15354770 9.53688420 0.00011274 -0.00068946 0.00577799
O 14.95159069 9.40545214 1.56126745 -0.00151654 0.00334801 0.00131277
O 15.71109560 2.94968684 14.58494314 -0.00163300 0.00280933 0.00485878
O 9.72288697 3.77640854 7.22678148 0.00539156 0.00298211 -0.00170936
O 15.27211332 1.41182691 16.96473528 -0.00343029 0.00171045 -0.01115571
O 10.41413532 5.23831468 9.37786979 -0.00686484 0.00360647 -0.00093704
O 10.76311498 11.32220942 7.42599209 0.00337443 0.00259669 0.00475504
O 15.21626851 7.67064000 32.42663332 -0.00274508 -0.00258645 0.00261081
O 10.60715918 11.99998752 32.21537818 0.00029531 0.00044513 -0.00003384
O 15.07283494 7.30371456 7.62440581 0.00364486 0.00427874 -0.00289830
O 14.49468279 1.03652305 8.61710532 0.00521051 0.00149355 0.00245707
O 11.06766275 5.05272796 17.20433682 0.00457947 -0.00194127 -0.00025010
O 14.13962280 2.68924124 23.19786617 -0.00018649 0.00004982 -0.00093231
O 11.57791674 3.73202268 31.73979775 0.00109540 -0.00186827 -0.00112179
O 9.83170948 10.02532430 17.62708503 -0.00476712 -0.00165193 -0.00039660
O 15.30576866 9.06769967 26.18168848 -0.00117350 0.00432044 0.00067190
O 11.60392231 10.49864220 26.09529756 -0.00344655 -0.00156547 0.00224407
O 14.34579457 8.96472565 17.85830443 -0.00413474 0.00636687 0.00491676
O 15.70621922 2.62294136 31.47923955 -0.00920929 -0.00085049 0.00331438
O 9.72266480 3.88453491 23.30746841 0.00092129 0.01004501 -0.00182517
O 15.09320890 0.97616521 0.42729646 0.00328149 -0.00109646 -0.00285158
O 10.42503419 5.12103673 25.76592975 -0.00026680 0.00150306 0.00387331
O 10.78307253 11.58009778 23.81804027 -0.00246442 0.00068636 0.00002063
O 14.99308076 7.65588120 15.81540494 0.00086967 -0.00549520 0.00561413
O 10.28041815 11.49680437 15.57477484 0.00535343 -0.00325916 -0.00483802
O 15.32197941 7.56747562 24.01688808 -0.00290560 0.00654134 -0.00137925
O 15.25429043 1.17177485 25.28639096 -0.00957866 0.00184919 0.00508759
O 10.78687336 4.99157924 1.06879261 0.00319177 0.00236903 -0.00281306
O 13.97785158 15.35180584 6.86759829 -0.00420000 0.00306245 -0.00018131
O 11.51410540 16.56004986 15.28048362 0.00361050 -0.00000555 -0.00966648
O 9.88173315 23.05898343 1.07648261 -0.00016816 -0.00464825 0.00167436
O 15.79373690 21.50716355 9.39779857 -0.00450885 -0.00592901 0.00519604
O 11.41849682 23.02240948 9.28699671 -0.00762691 -0.00285013 -0.00003182
O 14.11534389 22.08153017 1.43960735 -0.00090461 -0.00504273 -0.00207691
O 15.41648789 15.81123495 15.17825572 0.00694054 0.00379780 -0.00355718
O 10.00292952 16.48285432 7.02115175 -0.00038006 0.00355877 -0.00169185
O 14.99606381 14.18745954 17.22357220 -0.00100987 -0.00040117 0.00280100
O 10.34948344 17.87605711 9.05019133 0.00244827 0.00166892 0.00066396
O 10.65715018 24.25630217 7.10653445 -0.00375020 0.00204180 0.00525069
O 14.71548146 20.67417459 32.23494244 -0.00227125 0.00784585 -0.00084260
O 10.24000086 24.35064349 31.84413049 -0.00315793 0.00017585 0.00006040
O 14.89901968 20.09590242 7.39152812 -0.00666767 -0.00190561 -0.00511945
O 14.90007062 14.06328212 8.89600951 0.00656196 0.00362953 -0.00329775
O 10.69336156 17.84032998 17.30674508 -0.00321172 -0.00178544 -0.00482955
O 14.97512431 15.89562598 23.28105237 -0.00115062 0.00151031 -0.00152309
O 11.60524757 16.61831511 31.60533995 -0.00628684 -0.00244336 -0.00010777
O 10.31859821 22.80232276 17.60072034 -0.00372312 0.00539660 0.00031811
O 15.48740737 22.27506078 26.09117792 0.00778943 -0.00054115 -0.00287072
O 11.05695763 23.04314464 25.51089803 0.00193860 0.00014826 -0.00234609
O 14.43710112 22.07909131 17.88972838 0.00290409 0.00368875 0.00143329
O 15.67517485 15.46893121 31.39662392 -0.00087914 0.00123221 0.00611262
O 10.02684655 16.45075120 23.40240204 0.00216614 0.00309187 -0.00658803
O 15.13190021 14.11966965 0.66651739 0.00319622 -0.00273554 0.00132348
O 10.34189413 17.84347301 25.42902527 0.00292099 0.00175707 0.00258275
O 10.60954538 24.75999288 23.73954532 -0.01132804 -0.00239218 0.00185653
O 15.01060088 20.65694388 15.78968637 -0.00272675 -0.00166416 -0.00078525
O 10.88452597 24.00254170 15.46138645 0.00387793 -0.00168227 -0.00662621
O 15.01833605 20.72632436 23.99843032 0.00201340 -0.00314527 -0.00325700
O 14.73990057 14.14155015 25.32382464 -0.00216498 0.00120329 -0.00275998
O 10.69330545 17.81858900 0.83297563 0.00355074 -0.00324141 0.00532312
O 22.79647009 2.78675141 6.69356225 0.00235655 0.00243501 0.00345995
O 19.48523808 3.97483528 14.97039106 -0.00630969 -0.00397616 -0.00170220
O 19.10943874 9.93561721 1.50690327 0.00050030 0.00323350 0.00689729
O 24.18385294 8.99388669 9.60864758 0.00134988 0.00734835 0.00237852
O 19.57607711 9.70344629 9.66396571 -0.00773550 -0.00289040 -0.00290057
O 22.79027151 9.45885996 1.16509160 0.00566948 -0.00174599 0.00372386
O 23.87343540 3.20513503 14.89629410 0.00657275 -0.00018035 -0.00046628
O 18.75732139 3.59374985 6.87084170 -0.00206019 0.00618014 0.00213817
O 23.71445249 1.21611376 16.95748083 -0.00046138 0.00274961 0.00598946
O 19.27567904 5.25056543 8.68438259 0.00392180 0.00414403 -0.00664126
O 18.73371967 11.58728243 7.51176741 0.00718367 -0.00397365 0.00259291
O 23.48121198 7.68450398 32.15029779 0.00039913 0.00777210 -0.00712371
O 19.30047613 11.39833943 32.14519906 0.00386407 -0.00289820 -0.00172186
O 23.47942034 7.85358291 7.26973151 0.01217722 0.00270491 -0.00447495
O 23.67955674 1.38089708 8.72378057 0.00308771 0.00187303 0.00204315
O 18.71398995 5.42451016 17.04352772 -0.00233915 -0.00298328 -0.00420384
O 23.29326799 3.07524620 22.98313971 0.00218935 0.00463492 0.00571232
O 18.78851435 3.43608767 31.64103778 -0.00433867 0.00006911 -0.00034598
O 18.74524733 10.04187018 17.92227865 0.00412479 0.00264538 0.00084743
O 24.02005108 8.89928746 25.74849797 -0.00199525 0.00498902 -0.00372147
O 19.80148758 9.92535081 26.13274748 0.00368476 -0.00729134 -0.00359261
O 22.78353828 8.83891499 17.97558448 0.00647182 0.00098010 0.00208674
O 24.42622037 2.45586005 31.33375512 -0.00542113 0.00727750 0.00175806
O 18.66464997 3.49219361 23.05466114 0.00270322 -0.00419319 -0.00766004
O 23.15785647 1.22118685 0.50998507 0.00629939 0.00062546 0.00052242
O 19.41297144 5.01599571 25.32290728 0.00019442 -0.00256009 0.00175953
O 19.34962081 11.53083662 23.89424037 0.00027781 -0.00309945 0.00507270
O 23.30946767 7.68171767 15.76718910 -0.00658321 0.00343900 0.00070748
O 19.20445467 11.69748292 15.81528014 0.00024726 -0.00275891 -0.00311467
O 23.18153902 7.25284115 23.88796049 -0.00614279 0.00047440 0.00406682
O 23.41297802 1.35626032 25.06304900 0.00171141 -0.00137079 0.01009270
O 19.20005158 5.28006814 0.63659381 0.00076391 0.00157569 -0.00012084
O 22.97735522 15.64212861 6.85732514 0.00135172 -0.00108075 0.00279305
O 19.67732121 16.57633088 15.21032317 -0.00289287 -0.00304032 0.00172156
O 18.87768858 22.78475419 1.40908214 0.00256591 0.00041119 -0.00095618
O 24.21061307 22.28625919 9.70630188 0.00081002 0.00021873 -0.00144697
O 19.31912396 23.01678729 9.28289897 -0.00149970 -0.00155569 0.00098424
O 23.25876446 22.02257456 1.37596013 -0.00716871 0.00378257 -0.00081748
O 23.93113271 15.67509778 15.08972096 -0.00735260 -0.00024424 -0.00046899
O 18.84767112 16.32380838 6.94403751 -0.00107028 0.00270288 0.00296899
O 23.81898191 13.98138560 17.09490915 -0.00838253 0.00214301 0.00055675
O 19.35390169 17.89148271 8.94914584 -0.00060639 0.00189057 -0.00337946
O 19.36367723 24.57484819 7.43508428 -0.00227767 -0.00416834 -0.00026430
O 23.13669301 20.37863462 32.06670526 -0.00339181 -0.00083188 0.00253564
O 19.49299422 24.13332490 32.25458680 -0.00668842 -0.00094666 -0.00669355
O 23.77799259 20.51010918 7.63010913 -0.00191160 0.00260927 -0.00114440
O 22.60381293 14.01111204 8.91571607 -0.00202470 -0.00271263 -0.00526938
O 19.37164217 18.05388351 17.28019780 0.00433524 -0.00128529 0.00437815
O 23.22095722 15.41446367 23.37825933 -0.00236778 -0.00516271 -0.00221230
O 19.73031254 16.16280544 31.37869339 0.00391674 0.00347306 0.00344251
O 18.94887726 22.87615743 17.56382833 0.00077084 0.00404167 -0.00221321
O 24.36461097 21.79134345 25.83054129 -0.00345249 0.00091185 0.00444491
O 19.83943038 22.93676439 25.87373619 -0.00060662 -0.00020274 -0.00085953
O 23.18244050 22.15863740 17.76185610 0.00049587 -0.00362539 -0.00343802
O 24.24444083 15.56725257 31.62504056 0.00014945 0.00372445 0.00107620
O 18.90459552 16.32121190 23.43643278 -0.00226611 -0.00133052 0.00252284
O 23.90585523 14.06275071 0.76920660 -0.00125137 0.00675243 0.00288537
O 18.97014711 18.04469544 25.37936272 -0.00043720 0.00225317 -0.00260217
O 19.25770729 24.36542228 23.87287598 0.00052835 -0.00143354 0.00108500
O 23.46912187 20.45270755 15.61509365 -0.00119272 0.00230572 -0.00064779
O 19.14901391 24.40171585 15.51043808 -0.00375865 0.00352250 0.00103909
O 23.56140063 20.50493106 23.75971211 0.00131179 0.00452357 0.00446577
O 23.55999511 13.63729884 25.57246198 0.00096812 -0.00616799 0.00205464
O 19.63078074 17.77336450 0.73887141 0.00099312 -0.00143143 0.00361851
N 7.65848509 12.77115187 2.05577243 -0.00617955 -0.00456156 -0.00208348
N 0.97649298 6.37724475 11.01363717 0.00078072 -0.00007600 0.00235388
N 3.03177710 0.14583508 5.54054429 -0.00255703 -0.00344966 -0.00341582
N 5.34256065 6.45629306 14.50560454 -0.00323588 -0.00113019 0.00294328
N 1.01458693 25.28931634 13.85135675 0.00211471 0.00160736 0.00128896
N 7.57163692 6.66620127 6.07909686 0.00165582 0.00242063 0.00173519
N 5.08558439 13.14062903 10.75748981 -0.00507150 0.00177971 -0.00478025
N 3.32230895 6.38644825 2.61630072 0.00385396 0.00370392 0.00257458
N 7.53340354 12.96839561 18.88097000 -0.00133909 0.00048236 0.00061103
N 0.99778358 6.27694248 27.04902166 -0.00387526 -0.00183900 -0.00872898
N 3.05151717 25.57189939 22.05052362 0.00296760 -0.00010452 0.00073874
N 5.22404706 6.40372566 30.71966841 -0.00045636 0.00291637 -0.00056707
N 1.09516048 25.54308770 30.20129994 0.00578285 -0.00838492 -0.00204775
N 7.68283881 6.52423214 22.58695115 -0.00331140 -0.00294219 0.00525884
N 5.45225119 12.82728653 27.03582865 0.00244178 -0.00479084 0.00093302
N 3.46195581 6.35712670 19.19416230 -0.00165968 0.00536858 -0.00490875
N 7.44812569 0.23691723 2.36315703 -0.00351500 0.00234714 -0.00264644
N 1.08286404 18.89665658 10.57654632 0.00379699 0.00588988 0.00507501
N 3.46815308 12.49972809 5.70222462 -0.00410385 -0.00505213 0.00160285
N 5.05382820 19.53016925 13.93728713 -0.00460545 0.00222225 -0.00915128
N 0.69704487 12.40732959 14.19394994 -0.00173964 0.00342450 0.00137803
N 7.48617513 19.21860812 5.75190454 -0.00829982 0.00191535 0.00081312
N 5.32563848 25.43333474 10.87943970 0.00117146 -0.00100055 -0.00841205
N 3.18409342 19.19691021 2.43142908 0.00097434 0.00175628 -0.00175816
N 7.72185986 0.22938440 18.73826115 -0.00054416 -0.00105252 0.00338690
N 1.22901406 19.20034312 26.86907384 0.00386843 0.00765286 -0.00055594
N 3.52180400 12.62705917 22.33957974 0.00145066 0.00182632 -0.00098223
N 5.45765405 19.11557482 30.47068445 -0.00617428 0.00145226 0.00652638
N 1.14317046 12.66111037 30.63932608 -0.00201742 0.00113982 -0.00482282
N 7.46149833 19.03665741 22.42253729 0.00324781 -0.00153591 -0.00012090
N 5.22026958 0.02267582 26.85621703 -0.00276650 0.00171301 -0.00634619
N 3.38666923 19.18716479 18.58414997 -0.01192812 0.00130505 -0.00840052
N 16.30759119 13.09641990 2.33760799 0.00524634 -0.00027740 -0.00234954
N 9.28798852 6.24244875 10.89824879 -0.00026346 -0.00208312 0.00235255
N 11.68605672 0.01577524 5.62623501 -0.00705744 0.00094833 -0.00269102
N 14.01973057 6.31866267 14.26590695 -0.00106318 -0.00188072 -0.00250652
N 9.49849661 25.10190689 13.99296411 0.00000508 0.00218956 -0.00107038
N 16.01793274 6.05915801 5.85869324 -0.00242671 -0.00388751 0.00382358
N 13.96954640 12.92048215 10.66364507 -0.00256185 -0.00031235 0.00322944
N 12.01697865 6.14452991 2.64018884 0.00215418 -0.00606139 -0.00377602
N 15.97772043 12.79061447 18.81643163 -0.00360385 -0.00662939 -0.00578733
N 9.60576877 6.40520397 27.50452030 0.00003783 0.00508323 0.00209212
N 11.78148619 0.21745655 22.05635969 0.00192241 -0.00247502 -0.00455372
N 14.31049885 6.21843314 30.87229536 0.00168830 0.00040521 0.00010465
N 9.74852095 0.15170966 30.14174005 0.00242871 -0.00166864 -0.01006263
N 16.17434918 6.29062565 22.35458209 0.00599061 -0.00411294 0.00323307
N 13.96153611 12.72515552 26.96508681 0.00278876 0.00001104 -0.00688845
N 12.02800018 6.28023633 18.92622051 -0.00456694 0.00241795 0.00035105
N 15.95152521 25.26335505 2.15188334 0.00096350 0.00292108 -0.00100600
N 9.26605571 18.96499029 10.73581877 0.00190202 0.00077320 0.00042766
N 11.96260197 12.43201622 5.76835567 0.00445679 -0.00443014 0.00248228
N 14.02135703 19.36272992 14.24613251 0.00424412 -0.00058049 0.00684706
N 9.68061581 12.94983590 13.87932055 -0.00451748 -0.00154968 -0.00753574
N 15.94199105 19.08780812 5.61838880 0.00230932 -0.00115748 -0.00217044
N 13.98741912 25.26365864 10.47436001 -0.00549156 0.00062051 -0.00170237
N 11.85887172 18.91971729 2.40815109 -0.00607636 0.00442472 0.00015168
N 16.21803858 0.27582826 18.71558237 0.00077569 -0.00555353 0.00606328
N 9.41142459 19.04025322 27.09496178 0.00404075 -0.00177944 -0.00145267
N 12.17250382 12.30687030 22.12174112 -0.00262271 -0.00019088 -0.00207165
N 13.75530388 19.51848420 30.53171980 0.00275631 0.00094223 0.00331641
N 9.65332144 13.11643655 30.44143286 0.00625922 -0.00439262 -0.00070151
N 16.08282863 19.42692890 22.38794503 0.00338095 0.00399682 -0.00462159
N 13.72172815 0.27931127 26.77088793 0.00501404 0.00030596 0.00241871
N 11.82766274 19.09140054 18.98395690 0.00177160 0.00100509 -0.00292077
N 24.69304484 12.76928863 2.51192007 0.00090512 -0.00184721 -0.00475775
N 17.99596121 6.40511500 10.21179166 -0.00181894 0.00017923 0.00416014
N 20.36032575 0.29964546 5.74976981 -0.00231225 -0.00411772 -0.00164501
N 22.25200684 6.48377956 14.12059674 -0.00286073 -0.00047541 0.00088626
N 18.26769178 0.29254655 13.93249381 -0.00261044 -0.00159661 -0.00172250
N 24.69211132 6.78334783 5.67166757 -0.00505900 0.00062415 -0.00279175
N 22.16379390 12.80538894 10.76325816 0.00688413 -0.00481717 0.00152520
N 20.49188687 6.12444499 2.32282461 0.00906228 0.00116461 0.00282769
N 24.73824927 12.66874525 18.73314699 -0.00411148 0.00424368 0.00417638
N 18.12317888 6.19016146 26.81913622 0.00115510 -0.00709687 0.00068868
N 20.47377358 25.36753374 22.23655847 0.00480196 -0.00219392 0.00020287
N 22.40061569 6.38648105 30.47509816 -0.00545417 -0.00515857 -0.00380303
N 18.41106044 25.43576294 30.69042452 -0.00143320 0.00182462 -0.00534693
N 24.76273351 6.42637748 22.50143759 -0.00310060 0.00371058 0.00184333
N 22.35629832 12.72099837 27.23318114 0.00535524 -0.00004129 -0.00004967
N 20.10480882 6.43451231 18.59105175 -0.00157979 0.00151661 -0.00407153
N 24.61712204 0.32274330 2.03271077 -0.00087148 -0.00112412 0.00134505
N 18.25555339 19.16580162 10.48342327 0.00207093 -0.00221408 0.00151077
N 20.07026680 12.85791040 6.11507866 -0.00136492 -0.00052641 0.00332378
N 22.55491671 19.18290035 13.91495782 0.00016444 -0.00105866 -0.00675254
N 17.96238394 12.61518739 14.11793227 0.00073839 -0.00519947 -0.00340902
N 24.52399777 19.07047079 5.96173624 -0.00610847 0.00327842 0.00111747
N 22.68783392 0.10536156 10.24445250 -0.00005422 -0.00280065 -0.00370127
N 20.54133895 18.98736972 2.47631757 0.00004170 0.00189767 0.00178315
N 24.59880843 25.47214869 18.57822298 -0.00374771 -0.00219915 -0.00121711
N 17.78871186 19.02249442 27.10850819 0.00181937 -0.01024885 -0.00331386
N 20.69862138 12.38937485 22.29684263 0.00102587 0.00049101 -0.00438618
N 22.09320315 19.23167157 30.35590041 0.00207839 -0.00312254 -0.00220123
N 18.29347735 12.81044391 30.61390325 0.00254441 -0.00189086 -0.00725029
N 24.73959125 19.35946563 22.23592782 0.00582457 -0.00117421 -0.00333464
N 22.43305282 0.13061045 26.69703227 0.01056868 0.00573120 -0.00138615
N 20.43171554 19.18899602 18.97919680 -0.00267433 -0.00228159 -0.00522139
C 7.43704940 0.42690299 4.72773578 0.01006911 0.00211792 -0.00127330
C 0.99433433 6.04243346 13.41759359 -0.00220531 0.00418955 0.00735021
C 3.18469207 12.38173101 3.28065403 0.00011239 0.01555124 -0.00432478
C 5.10655058 6.77465367 12.15613493 0.00008849 -0.00597699 -0.01097612
C 0.92886437 12.31499940 11.83143723 -0.00029610 0.00089625 -0.00380068
C 7.44397966 6.97942288 3.64921019 0.00761348 0.00102257 0.00184843
C 5.24249527 0.46879969 13.19281665 0.00337374 -0.00290608 -0.00037988
C 3.35227910 6.05132343 4.97884803 0.00042327 -0.00363754 0.01339133
C 7.14606692 1.14878653 5.81893650 0.00033686 -0.00028852 0.00056467
C 1.52812649 5.38058968 14.49636098 0.00535949 0.00291521 -0.00103913
C 2.67331964 11.75304495 2.20492709 -0.00164519 0.00120476 -0.00179810
C 5.33566045 7.42071826 10.95109559 0.00517991 0.00631555 -0.00315573
C 1.48491962 11.85969048 10.62117047 -0.00454975 0.00160313 0.00004079
C 7.16199176 7.66066150 2.45507126 -0.00487475 0.00450813 -0.00562936
C 5.48212478 1.41872492 14.18324275 -0.00487567 -0.00137976 0.01451812
C 2.89208145 5.45974674 6.15219918 0.00930501 -0.00218043 0.00302897
C 6.28249994 2.28230541 5.86874142 -0.00361218 0.00138033 -0.00300461
C 2.25102216 4.21014884 14.44753183 0.00474070 0.00078264 0.00251094
C 2.02478951 10.50709704 2.26414271 -0.00224934 -0.00605466 0.00671530
C 6.07956117 8.57560661 10.89176679 0.00248388 -0.00253958 -0.00709379
C 2.30245584 10.70991446 10.69602821 -0.00240550 0.00036033 0.00028564
C 6.38192353 8.78339599 2.51364023 -0.00060059 -0.00328394 0.00031762
C 6.44263796 2.38122849 13.97705449 0.00168740 -0.00851027 0.00580675
C 1.93128846 4.39118418 5.99059573 0.00651200 0.00061928 0.00615641
C 5.95852199 2.79004595 4.64416440 0.00854688 -0.00022454 0.00107859
C 2.46887831 3.66342658 13.13928683 0.00050384 -0.00830470 -0.00167530
C 1.85962672 9.94922522 3.55438795 0.00304857 0.00666141 0.00108823
C 6.59500888 9.04227438 12.11548464 0.00168510 -0.00476203 -0.01018290
C 2.42497289 10.00536008 11.85390848 -0.00124216 0.00231287 0.00325817
C 5.97985948 9.27293872 3.75631164 -0.00113814 0.00008969 0.00638382
C 6.82616315 2.74770224 12.69998554 0.00061860 0.00952813 0.00441936
C 1.61288427 3.88941884 4.80808313 0.01246009 0.00977830 -0.00414180
C 6.55072182 2.32440958 3.46422562 -0.00274506 0.00833110 0.00701801
C 1.96817737 4.33130033 12.03120396 0.00842340 -0.00345030 -0.00144755
C 2.28818734 10.58671522 4.66812805 -0.00209693 -0.00427264 0.00391809
C 6.30528121 8.44062484 13.32758591 0.00469216 0.00611434 -0.00247207
C 1.93689346 10.49695436 13.06122110 -0.00111056 -0.00301886 -0.00393841
C 6.43736735 8.66918332 4.94762594 0.00382646 0.00577177 -0.00295607
C 6.39184600 1.93573764 11.62604987 -0.00259705 0.00715713 -0.00214450
C 2.13443269 4.40944695 3.62168831 -0.00443534 -0.00322515 0.00501522
C 7.14009904 0.94391144 3.49133600 -0.00357546 -0.00222496 0.00230223
C 1.31185408 5.58569871 12.08285657 0.00428964 -0.00035556 0.00276305
C 3.03066477 11.82010759 4.57410950 -0.00378085 0.00234987 -0.00347726
C 5.54682306 7.24231194 13.34358203 0.00256543 0.00421327 -0.00743143
C 1.16580153 11.71938702 13.04922951 -0.00220453 0.00212942 -0.00079676
C 7.13013408 7.44493339 4.93562712 -0.00653384 0.00224088 0.00199259
C 5.72698915 0.75501959 11.90116995 0.00406400 0.00747988 -0.00101263
C 2.91172922 5.62100709 3.70496229 -0.00159718 -0.00220545 0.00133516
C 7.06045153 0.51941414 1.04982228 0.00049141 0.00461349 -0.00032950
C 1.48049489 6.16315222 9.76552519 -0.00478481 -0.00601249 0.00109413
C 2.95719761 12.31223693 6.94019185 0.00057679 0.00078334 0.00076931
C 5.92593254 6.64381878 15.66713530 -0.00290636 0.00249174 0.00528938
C 1.30979451 12.24177637 15.41061332 -0.00324396 0.00091065 -0.00144436
C 6.83572517 6.59676845 7.18340245 0.00039395 0.00522599 0.00553052
C 5.63235145 0.09215069 9.52205553 -0.00106234 0.00118629 0.00647958
C 2.72483322 6.12847813 1.37240158 -0.00276134 0.00224681 0.00536962
C 6.94983519 11.66551171 16.87895525 0.00081337 -0.00126845 0.00822437
C 1.41286375 7.39303714 9.03230229 -0.00130401 0.00733330 -0.00019188
C 2.66940897 1.17376347 7.76477646 -0.00055595 0.00332166 -0.00385351
C 5.78481636 5.49243039 0.04969245 0.00087793 0.00462257 0.00185838
C 1.44406994 1.00651799 32.38584397 0.00182259 -0.00478151 -0.00164784
C 6.77497383 5.22792696 7.93945926 -0.00045823 0.00313261 0.00061316
C 5.83827410 12.04918925 8.79803809 -0.00323359 0.00226854 0.00424654
C 3.08522762 7.39387330 17.03406461 0.00182677 0.00397073 -0.00137057
C 7.59099378 0.38664632 21.16478167 -0.00399359 -0.00290064 0.00371189
C 0.93751742 6.09375864 29.51416075 -0.00153101 -0.00276600 -0.00071226
C 3.43790012 12.13030927 20.00159924 -0.00125392 0.00264239 0.00348874
C 5.19734711 6.75618592 28.32294402 -0.00412713 0.00131627 0.00075543
C 0.99604016 12.25475757 28.21663660 -0.00482243 0.00554944 -0.00161778
C 7.45607104 6.56647723 20.17644537 -0.00127689 -0.00750831 -0.00377710
C 5.18985727 0.56161946 29.25724185 0.00050214 0.00396323 -0.00473435
C 3.49055209 5.85564563 21.51767366 0.00244337 0.00185646 0.00555211
C 7.15315878 1.06125552 22.27485668 -0.00355043 -0.00019120 -0.00011127
C 1.27736822 5.43133428 30.68923109 -0.00399979 -0.00079137 -0.00344067
C 2.93206974 11.45237068 18.92760598 0.00324282 -0.00623031 0.00036668
C 5.70028716 7.41114277 27.18337468 0.00706159 0.00239517 0.00332732
C 1.38429578 11.54461890 27.11003160 -0.00368773 -0.00212094 0.00391820
C 7.09426330 7.25918531 19.03332327 0.00347888 -0.00056146 0.00089002
C 5.53541932 1.30715794 30.32165538 0.00316643 -0.00819907 -0.00471481
C 3.02959263 5.10932516 22.57591314 -0.00502043 -0.01221665 0.00290021
C 6.37188004 2.26070501 22.17165171 -0.00193247 0.00337537 0.00231898
C 2.24696361 4.41610978 30.66416203 0.00449840 0.00125067 0.00230874
C 1.94812848 10.43576602 19.10426856 -0.00197788 -0.00519112 0.00216131
C 6.58846204 8.47544882 27.30011104 0.00218910 -0.00042885 0.00183979
C 2.26773392 10.41398224 27.17741608 0.00533392 -0.00015047 -0.00076081
C 6.32040177 8.46110332 19.10691582 0.00321874 -0.00336232 -0.00905714
C 6.26569435 2.48489785 30.14689359 -0.01412982 0.00180525 0.00182433
C 2.11646781 4.07131494 22.43060604 0.00328508 -0.00618178 -0.00251973
C 5.99999424 2.69979358 20.85977411 -0.00564717 -0.01045399 0.00870868
C 2.38889326 3.77391875 29.42371600 0.00129326 -0.00075789 -0.00546728
C 1.63233817 9.99265905 20.46202329 0.00466832 0.00198425 0.00132203
C 6.97024772 8.95081397 28.54542174 -0.00080597 -0.00697091 0.00028411
C 2.63016051 10.02580176 28.45620574 -0.00280002 0.00035004 0.00039850
C 6.15892994 9.15751516 20.37153195 -0.00414017 -0.00259349 -0.00809437
C 6.67101503 2.86132489 28.87107969 -0.00500417 0.00242353 0.00290462
C 1.82573183 3.63051787 21.13114214 -0.00034438 0.00087919 -0.00616548
C 6.53466364 1.99604926 19.80288190 -0.00153150 -0.00530319 0.00106594
C 1.96017112 4.33362151 28.24863198 -0.00570431 0.00080945 -0.00071252
C 2.08948978 10.75514496 21.50861075 0.00022432 -0.00098934 0.00546103
C 6.42559161 8.40042062 29.67561648 -0.00175587 0.00678598 -0.00423231
C 2.26832297 10.72860104 29.57385767 0.00168768 -0.00420967 0.00749225
C 6.78937508 8.61819707 21.47388969 -0.00566646 0.00708120 0.00501068
C 6.19227716 2.10741287 27.76406899 -0.00224154 -0.00574841 -0.00269085
C 2.45411820 4.26641018 20.03965741 0.00125013 0.00123356 0.00258882
C 7.32635727 0.86730456 19.90479909 -0.00875674 0.00328687 0.00313597
C 1.26820053 5.56906830 28.24823582 0.00173396 -0.00181571 0.00175485
C 3.01579338 11.81698905 21.31117122 0.00421216 0.00195804 -0.00377075
C 5.62882377 7.14754410 29.57822562 0.00001394 -0.00192486 -0.00891506
C 1.44359025 11.90052236 29.54165072 -0.00494892 -0.00136026 0.00375604
C 7.29205462 7.22767799 21.41624336 0.00241741 0.00247027 -0.00281019
C 5.60947878 0.86257469 27.93603363 0.00274348 -0.00092108 0.00291120
C 3.18971594 5.44383467 20.21476959 -0.00084197 0.00121927 0.00079161
C 7.11143627 0.24712049 17.53019302 0.00069827 0.00111612 0.00108185
C 1.60893910 6.01621536 25.85316430 -0.00065235 -0.00248595 -0.00694561
C 3.02521850 12.48922715 23.59925167 -0.00284876 0.00143127 0.01412114
C 5.82082255 6.66238029 31.92495232 0.01003952 0.00289863 -0.00364083
C 1.90194715 12.64270315 31.75878600 0.00665304 -0.00325910 0.00120380
C 6.99573459 6.66036689 23.74916923 0.01029281 0.00497707 -0.00192891
C 5.75693642 0.15336739 25.59697596 -0.00357851 -0.00046930 -0.00539279
C 3.02048671 6.19058126 17.92621619 0.00353097 0.00346704 0.00296601
C 6.98670917 11.82655439 32.78900999 -0.00691010 -0.00068027 -0.00923463
C 1.57606288 7.15007971 24.79278600 0.00075105 0.00311277 -0.00096085
C 2.82962826 0.83530109 24.30773438 0.00279687 0.00518299 0.00524362
C 5.73777805 5.42500703 16.54740040 -0.00034029 -0.00267041 0.00189841
C 1.49089324 0.88669485 15.86504294 0.00290417 0.00621819 -0.00098387
C 6.99889715 5.44891287 24.63378130 0.00070120 0.01003565 -0.00362784
C 5.80991950 11.64198420 24.97084762 -0.01040932 -0.00581326 0.00223791