1920
Time=64000.00000006 pbc="T T T" Lattice="25.61877630 0.00000000 0.00000000 0.00000000 25.62111677 0.00000000 0.00000000 0.00000000 32.84334505" energy=-12253.27419841 virial="-54.77026992 -27.34784527 23.93499197 -27.34784527 -25.28894753 3.96912553 23.93499197 3.96912553 -20.35368699" stress="-0.00033869 -0.00126887 0.00109420 -0.00126887 0.00103441 0.00013134 0.00109420 0.00013134 0.00123764" Properties=species:S:1:pos:R:3:vel:R:3
O 5.98168948 3.01797043 6.90429734 -0.00064707 0.00665696 -0.00170143
O 2.60578761 3.77687469 15.75317989 0.00057262 -0.00360373 -0.00453799
O 1.45367302 10.37312267 1.17519944 -0.00144953 -0.00354263 -0.00223751
O 6.97438164 9.29235551 9.87463410 -0.00178283 0.00190454 -0.00151489
O 2.55614661 9.94545683 9.20364690 0.00282148 -0.00004382 0.00043824
O 6.40102258 9.61619635 1.57981487 -0.00593293 0.00208882 0.00010623
O 6.67864092 2.45640442 15.31556723 0.00272684 -0.00153134 0.00228152
O 1.98580516 3.82815713 7.50891118 0.00196426 0.00146848 0.00465947
O 5.85881907 0.98213727 17.37435354 -0.00146797 0.00447399 0.00185970
O 2.51828662 5.20886021 9.57800057 -0.00105977 -0.00367250 0.00170409
O 1.88860737 11.37482343 7.43102782 -0.00128428 0.00424395 -0.00397029
O 6.43215231 8.06634285 32.18778271 -0.00886912 0.00249589 -0.00104977
O 2.44932596 11.54603252 31.94261370 -0.00825119 0.00210243 0.00029349
O 6.50411773 7.92689534 7.70856738 -0.00350571 0.00073015 0.00066580
O 6.29254251 1.52457822 8.93262381 -0.00073726 -0.00275718 0.00396357
O 1.98551640 5.38300910 17.77462031 -0.00563149 0.00148951 -0.00015860
O 5.77547697 2.38743931 23.34032262 0.00321967 0.00610221 0.00311310
O 3.00385938 3.62354176 32.02623441 0.00145282 -0.00137285 0.00295204
O 1.85579364 10.52790136 17.23735269 0.01036268 -0.00628353 0.00304715
O 7.16410184 8.90735512 26.11476153 0.00445206 0.00045576 0.00186794
O 2.60369206 10.60204562 25.70550030 0.00338443 0.00415606 -0.00687333
O 5.78241015 9.16295096 18.23880871 0.00246639 -0.00099671 0.00078998
O 7.13994344 3.01640013 31.40686169 -0.00106177 -0.00333866 -0.00075065
O 1.31672133 4.07641057 23.83026427 -0.00227909 -0.00052419 0.00196548
O 6.67441296 1.35361012 0.53588545 0.00637169 -0.00304410 0.00171985
O 2.13858189 5.26021100 25.87426841 0.00315505 -0.00141471 -0.00093063
O 1.94556086 11.69512788 23.60445462 -0.00455766 -0.00460169 0.00317901
O 6.08234879 7.67046445 16.01483035 -0.00588752 0.00388307 -0.00371023
O 2.70671996 11.73734101 15.11536552 0.00302255 0.00179027 0.00189648
O 6.49908448 7.59222983 24.19948936 -0.00401229 -0.00216709 0.00087167
O 6.59944747 1.12035152 25.41348875 0.00646060 -0.00283693 -0.00424628
O 2.14876054 5.19360206 1.21672913 0.00260443 -0.00415305 0.01081616
O 6.30720702 15.99052209 6.73281961 -0.00691873 0.00182764 0.00040177
O 2.83916173 16.14316404 14.95172812 0.00386231 -0.00083021 0.00164811
O 1.42168640 22.68869977 1.19398271 -0.00421322 0.00306145 0.00394245
O 6.75027810 22.24436169 9.57240764 -0.00905288 0.00029318 -0.00340185
O 2.56494580 22.88565901 9.24142432 -0.00491171 0.00219674 -0.00185063
O 5.85739443 22.17708990 1.52019904 -0.00229586 -0.00248910 -0.00287843
O 6.70109193 15.14678487 15.02596980 -0.00125588 -0.00508052 -0.00385975
O 1.41375782 16.34748498 7.01343882 0.00161350 0.00366688 0.00157588
O 6.33907405 13.67710850 17.18217166 -0.01035612 0.00485600 0.00160449
O 2.01099134 17.92231434 8.78910465 0.01119880 0.00289906 0.00110160
O 1.84754663 24.25107931 7.30798071 0.00345638 0.00368494 0.00747793
O 6.45133420 20.55009529 32.41818027 -0.00268160 0.00708006 0.00154017
O 2.12234941 24.46970802 32.02623379 0.00299923 -0.00295925 -0.00157550
O 6.61445853 20.63403700 7.61839751 0.00494152 0.00038928 0.00215308
O 6.49654552 14.33131856 8.86633295 0.00272131 0.00041389 0.00289734
O 2.54498946 17.78738893 17.14974820 -0.00633684 0.00021422 0.00433938
O 5.69323794 15.82344788 23.20185858 0.00007042 -0.00059320 0.00172207
O 3.16050548 16.50164068 31.59258507 0.00309373 -0.00148836 0.00510046
O 2.14697665 22.92270180 17.49467783 0.00468019 -0.00065595 -0.00239920
O 6.76061753 22.26648632 26.16272562 0.00303196 -0.00180804 -0.00117458
O 2.76913563 23.18104887 25.84579017 -0.00266405 -0.00742560 0.00357964
O 5.95604431 21.79465569 17.89958905 -0.00011520 -0.00058571 0.00458298
O 7.14181640 15.51433718 31.27867050 -0.00387581 0.00076189 -0.00105978
O 1.44692536 16.86651606 23.38276760 -0.00394305 -0.00452573 0.00227280
O 6.57509141 14.06099683 0.54292655 0.00625209 -0.00026684 -0.00121945
O 2.07915118 18.01098130 25.62638700 0.00163696 -0.00369844 0.00134639
O 2.04187566 24.48920226 23.76784886 -0.00148427 -0.00430200 -0.00333725
O 6.43330820 20.50933105 15.64656026 -0.00388238 0.00007500 0.00467501
O 2.29862008 24.21173037 15.31193334 0.00712834 -0.00190793 -0.00221205
O 6.30797239 20.37029075 24.40232009 0.00141212 0.00792201 -0.00206381
O 5.97443799 14.03258257 25.09530396 -0.00789223 -0.00396144 0.00485476
O 2.53392968 17.52885672 0.94222084 -0.00481967 0.00486916 0.00263587
O 13.90395609 2.55000680 6.52072188 -0.00255415 -0.00450285 0.00429442
O 11.22781141 3.79320490 15.36939149 0.00174463 -0.00156720 0.00103926
O 10.51389100 10.35091163 0.68211023 -0.00642088 0.00615616 0.00123186
O 15.26116948 9.22988155 9.72430597 0.00108603 0.00032261 -0.00127299
O 11.54237622 10.09097980 9.33492286 -0.00155362 -0.00206687 -0.00069220
O 14.57187506 9.43293592 1.27575796 0.00335247 0.00252802 -0.00282757
O 15.57381232 2.47039081 15.04376442 0.00236212 -0.00254800 -0.00112689
O 9.72442534 3.73374883 6.95713227 0.00298650 -0.00378512 0.00088189
O 15.32663335 1.12812451 17.13336968 -0.00506347 0.00163175 -0.00308754
O 10.33113569 5.04509842 9.15127360 0.00373333 0.00261753 0.00372842
O 10.81759498 11.20753236 7.06134035 -0.00476105 -0.00236775 0.00373110
O 14.62758130 7.80462550 32.05583796 0.00627543 0.00145143 -0.00447035
O 11.35001680 12.03095070 31.65104031 0.00315042 0.00053300 -0.00039111
O 14.92777084 7.64751121 7.47876292 0.00180093 -0.00406826 0.00489164
O 14.83531329 1.23629488 8.71170593 0.00346762 -0.00267233 -0.00448815
O 10.78305642 5.19586456 17.48206089 -0.00570323 0.00821643 -0.00376815
O 14.69270600 2.72739679 23.31660706 0.00526576 -0.00041383 0.00656744
O 11.51573455 3.56214217 31.59117054 -0.00514085 0.00090479 0.00719519
O 10.19135028 10.15740092 17.79623222 0.00322163 -0.00174551 0.00175229
O 16.04626805 9.52923800 25.84965769 -0.00143297 0.00176386 0.00398796
O 11.41510350 10.37201870 25.48915216 0.00338767 0.00123175 -0.00363298
O 14.52958198 9.19020928 17.86466076 0.00163054 0.00148315 0.00152872
O 16.02978815 2.71670946 31.37276306 0.00033634 -0.00361417 -0.00051322
O 10.11914958 3.83379691 23.71266019 0.00305738 0.00480179 0.00040956
O 15.66647880 1.16520186 0.55988353 0.00071964 0.00417501 0.00207495
O 10.50206376 5.43523557 25.72801432 0.00163744 -0.00456215 0.00336559
O 10.37298490 11.89882341 23.77586645 0.00209487 -0.00288065 0.00498152
O 14.57808836 7.58904904 15.82865842 0.00089521 -0.00561231 0.00044273
O 10.59544760 11.68211206 15.45547731 0.00664925 -0.00595234 0.00184592
O 15.46779774 7.69416150 23.94648483 -0.00382772 -0.00158766 -0.00510963
O 14.56893481 1.25514168 25.41648179 0.00502050 0.00099015 0.00256241
O 11.44813448 5.21194238 0.76269424 0.00140407 -0.00176966 -0.00188196
O 14.28080755 15.42020448 6.85114116 -0.00101831 -0.00618937 0.00153785
O 11.20093103 16.68071983 15.43662942 0.00558203 -0.00133169 -0.00503441
O 9.89407529 23.05695448 1.10004237 0.00394036 0.01053443 0.00307605
O 15.20447436 21.94505424 9.47433231 -0.00419827 -0.00053400 -0.00535115
O 11.35443026 23.18258354 9.52502722 0.00191965 -0.00308999 0.00145131
O 14.31747458 22.07149163 1.42724300 0.00722650 0.00859934 0.00432277
O 15.09665195 15.99807494 14.88605518 0.00345818 0.00329755 -0.00319539
O 10.16522306 16.49169218 7.13304478 -0.00227069 -0.00010386 -0.00384679
O 14.98336584 14.20856744 16.96714349 -0.00725124 -0.00537309 0.00067778
O 10.44926976 18.03302735 9.32385553 -0.00074449 -0.00373263 -0.00077632
O 10.37516104 24.55965656 7.32599155 -0.00206255 0.00525523 -0.00643764
O 14.63384617 20.35499267 32.27019672 -0.00095958 0.00419348 0.00764827
O 10.61524947 24.66733785 32.16517942 -0.00103632 0.00018805 0.00207520
O 14.90575799 20.25500539 7.61336767 -0.00372706 -0.00322353 0.00363414
O 15.06122853 13.82633186 8.90109361 -0.00627480 0.00816872 -0.00396474
O 10.56631353 18.00449992 17.50934328 -0.00099563 0.00068606 0.00794300
O 14.52997847 15.80852225 23.08643080 -0.00500663 0.00429547 0.00573421
O 11.48101518 16.79469008 31.66739487 0.00101614 -0.00085929 -0.00028356
O 10.17548664 23.08836386 17.58340544 -0.00034031 -0.00027635 0.00196965
O 15.83265150 22.23873202 26.01429701 -0.00209306 -0.00193887 0.00654677
O 11.45940244 22.70239673 26.13162823 0.00836403 -0.00425776 -0.00471540
O 14.03388973 21.52376584 17.55535702 0.00465845 -0.00494328 -0.00173734
O 15.67576228 15.43938972 31.34874210 0.00419507 0.00269832 0.00188657
O 10.34021911 16.38964488 23.51247155 0.00077927 -0.00233477 0.00380507
O 14.76982301 14.04549239 0.57215358 0.00348411 0.00224683 -0.00194073
O 10.66066991 17.94380328 25.64714197 0.00169395 -0.00117172 -0.00061185
O 11.02047374 24.30128569 23.83780796 -0.00633254 0.00379333 0.00143236
O 15.01385192 20.39600720 15.51666631 0.00221267 -0.00443513 -0.00030692
O 10.47402565 24.58390974 15.51077722 0.00179285 -0.00284287 -0.00293971
O 15.05888008 20.79133089 23.88911574 0.00090842 -0.00138927 -0.00003345
O 14.85609033 14.24476520 25.15949429 0.00070493 -0.00358874 -0.00183303
O 10.69522874 17.97156554 0.87813903 0.00781301 0.00481391 -0.00662746
O 22.62980737 2.55788473 6.64638095 0.00109886 0.00072272 0.00053511
O 19.87534351 3.49008077 15.13985628 -0.00337357 -0.00400784 0.00377699
O 18.66622314 10.48639665 0.84723178 -0.00360837 0.00422278 -0.00076685
O 23.59892198 9.09139694 9.56866046 -0.00020544 0.00425283 0.00466188
O 19.17097703 9.84164313 9.39706767 -0.00452157 0.00378817 0.00141168
O 23.24151983 9.39056573 1.45218990 -0.01004070 0.00100557 -0.00115245
O 24.08529508 2.66182951 14.77747239 -0.00086199 -0.00120934 0.00013148
O 18.44201831 3.52053868 7.01044011 -0.00213454 -0.00415729 -0.00035008
O 23.82393826 1.10520927 17.00058230 -0.00299346 -0.00174497 -0.00042242
O 19.30002974 4.90209111 8.90343388 -0.00305861 -0.00635634 0.00213186
O 19.33471233 11.45876034 7.15247788 -0.00278631 0.00332467 -0.00342089
O 22.99148599 7.92955062 32.23142574 -0.00043989 -0.00587831 0.00169487
O 19.37813970 12.07286149 31.75662113 -0.00191650 0.00357481 -0.00356176
O 23.56182417 7.41491941 7.67241223 0.00208416 0.00174863 0.00083052
O 23.08246573 1.12989452 8.70399768 -0.00302010 0.00192606 0.00318155
O 19.21944566 4.95517246 17.23997092 -0.00704453 -0.00674384 -0.00080415
O 22.91023202 2.97384210 23.13777946 -0.00312790 0.00013379 0.00064153
O 19.51439375 3.60979554 31.54773119 -0.00391818 0.00510971 -0.00216309
O 18.40287767 10.02303542 17.39840568 -0.00806197 0.00126657 -0.00118072
O 23.49806337 9.30675391 25.90914764 0.00198288 -0.00035560 -0.00013446
O 19.75919988 10.44023653 25.53569502 0.00193052 0.00055099 0.00218519
O 22.75530042 8.87493470 17.80797979 -0.00471639 0.00482608 -0.00426291
O 24.22905806 3.01783489 31.19508890 0.00098774 -0.00101398 -0.00362058
O 18.56293497 3.89655926 23.35797908 -0.00682495 -0.00330271 0.00252119
O 23.83415218 1.41696978 0.50393724 -0.00527616 -0.00230512 0.00858880
O 19.13237666 5.43437440 25.43800178 -0.00493703 0.00108179 -0.00228743
O 18.91386448 11.78114134 23.46697737 -0.00555828 0.00299948 -0.00552739
O 23.61435342 7.56571564 15.72853618 -0.00667905 0.00529509 0.00282314
O 18.83869484 11.68144600 15.43093042 0.00259423 -0.00500481 0.00360502
O 23.53531339 7.68791167 23.86781026 0.00140397 0.00031568 -0.00653610
O 22.84162830 1.41796182 25.19103099 0.00090109 0.00334254 -0.00517377
O 19.08055267 4.91429714 0.86713201 0.00937499 0.00040521 0.00017195
O 22.64775442 15.56865740 6.75718681 0.00000616 -0.00992852 0.00019699
O 20.17074800 16.59478195 15.04317971 0.00049521 0.00333731 -0.00213887
O 18.80411274 22.47841058 1.02716389 0.00238860 -0.00460200 0.00410477
O 24.02826174 21.72668486 9.75263004 0.00189057 -0.00205772 0.00198479
O 19.72015303 22.80826260 9.03709846 -0.00194119 -0.00218871 0.00347746
O 23.23852091 21.96305939 1.63565847 -0.00021028 0.00170875 0.00184869
O 24.30862699 15.23773567 14.85153534 -0.00555542 -0.00354097 -0.00250177
O 18.58535308 16.50594444 6.94508095 0.00200370 -0.00338047 0.00546099
O 23.79903237 13.89014090 16.93384336 -0.00021891 0.00163353 0.00147728
O 19.24930645 18.01384033 8.93212160 -0.00693219 0.00657133 -0.00391851
O 18.81830087 24.38165937 7.14308313 0.00466594 -0.00485322 0.00215934
O 23.04699442 20.48956955 32.30568743 0.00619399 0.00235507 0.00045094
O 19.30383518 24.07983919 31.86116984 -0.00696586 0.00525090 -0.00313295
O 23.77657553 20.07401534 7.63708376 0.00234748 0.00354846 0.00620222
O 22.79693470 13.94328074 8.76572854 0.00039143 -0.00547383 -0.00505367
O 19.23347733 17.84179235 17.30286794 -0.00271793 -0.00116348 0.00036566
O 22.91207988 15.90332951 23.04899506 -0.00072906 -0.00525880 -0.00154503
O 20.08649706 16.64368276 31.50275054 0.00454289 -0.00183503 0.00076640
O 19.04604290 22.40559459 17.68857428 -0.00182597 0.00023681 -0.00028067
O 23.95430760 22.09751502 26.04647523 0.00369958 0.00253748 0.00211700
O 19.77692672 23.31511667 25.60344051 0.00318573 -0.00247489 -0.00161236
O 23.17802227 21.78159387 17.77966382 0.00267529 -0.00464693 0.00122979
O 24.23450179 15.28851261 31.34397877 -0.00105087 -0.00019804 0.00676760
O 18.58933419 16.90039055 23.65173891 0.00005659 -0.00024069 0.00163353
O 23.71290623 13.96840550 0.70196045 0.00654327 0.00335789 0.00594429
O 19.67681123 18.36589131 25.51177186 0.00018960 0.00349622 0.00524788
O 18.96515385 24.67578052 23.56573329 -0.00208607 -0.00174747 0.00328626
O 23.65179536 19.97219872 15.82706062 -0.00413046 0.00443660 0.00959420
O 19.42936096 23.79935275 15.52325410 0.00084588 -0.00294738 -0.00107674
O 23.10400963 20.57027719 23.97275059 0.00293277 0.00072517 0.00042994
O 23.32967113 14.10154567 25.17596689 0.00250893 -0.00352279 -0.00099751
O 19.28574758 17.83475050 0.81385067 0.00250394 0.00145312 0.00155016
N 7.36946555 12.71752487 2.24851969 -0.00553597 0.01177987 -0.00026109
N 0.73298868 5.78562237 10.94371828 0.00292141 -0.00832237 -0.00253853
N 3.13317352 25.37135058 5.81781285 -0.00321383 0.00406864 -0.00370334
N 5.07897591 6.54632772 14.25286705 0.00090925 0.00225960 0.00007679
N 0.86554987 25.27526748 13.88119364 0.00529834 -0.00001520 0.00509108
N 7.34373215 6.42430977 6.11502602 0.00657964 -0.00617277 0.00624623
N 5.37884678 12.88220161 10.24785281 0.00026175 -0.00048017 -0.00443610
N 3.36989208 6.30167390 2.81282002 -0.00214774 0.00265848 -0.00631912
N 7.63813703 12.82475561 18.89759009 0.00330265 -0.00318213 0.00028328
N 1.00915006 6.37816217 27.55741214 0.00314178 0.00329840 -0.00204871
N 3.21245833 0.06998004 22.14226259 -0.00117045 0.00163283 -0.00195566
N 5.21292942 6.81000589 30.73575827 0.00274350 -0.00250391 -0.00104631
N 1.01636020 0.06230180 30.45323655 -0.00061612 0.00018803 0.00032372
N 7.71319790 6.50554514 22.55633794 -0.00324746 -0.00376414 0.00008398
N 5.34619159 12.72911127 26.93725289 0.00620718 0.00247116 -0.00131945
N 3.57302375 6.16538551 19.22459398 0.00670192 0.00092438 0.00259117
N 7.55885592 0.21896655 2.37252133 0.00247797 0.00153589 0.00399143
N 0.90527962 19.01502535 10.49602288 0.00259605 0.00443130 -0.00211234
N 3.38505870 12.37196035 5.96953152 0.00036915 -0.00387233 0.00794990
N 5.54856466 19.21130761 14.02676734 0.00202354 -0.00868554 -0.00396686
N 1.11569026 12.62131080 13.78270346 0.00034046 -0.00480861 -0.00817591
N 7.37482083 19.28673689 5.93696187 0.00018441 0.00222786 0.00210049
N 5.09020767 0.24641367 10.44858594 0.00339049 0.00952873 -0.00118498
N 3.41459293 18.87449900 2.56507178 0.00493537 -0.00515010 0.00925342
N 7.64054563 0.19151937 18.72526057 -0.00077711 -0.00385586 -0.00187179
N 0.87277179 19.08123583 27.34591554 -0.00022888 -0.00230091 -0.00051593
N 3.46371698 12.65489897 22.12356665 0.00223334 -0.00346410 -0.00351245
N 5.31596264 19.43369232 30.80865657 0.00216314 0.00374703 0.00250089
N 1.35042699 12.97747289 30.43337579 -0.00178310 0.00359210 -0.00139521
N 7.36499666 19.28021744 22.64821214 0.00494353 -0.00816883 -0.00520799
N 5.25721826 0.02654535 26.93977921 0.00172085 0.00296555 -0.00040548
N 3.47214130 19.10993764 18.77555966 -0.00174702 -0.00246102 0.00373742
N 16.20218919 13.06276928 2.06113674 0.00473482 0.00063427 0.00659769
N 9.24819841 6.22767567 10.78095671 -0.00172014 -0.00332327 -0.00431282
N 11.72456922 25.46757078 5.68796654 -0.00464712 -0.00276185 -0.00111643
N 14.09645447 6.18982615 14.18503836 -0.00339778 -0.00415004 -0.00257937
N 9.18635832 25.61242611 13.99250983 -0.00038710 0.00119964 0.00127716
N 15.68630762 6.34243185 5.76275324 0.00367314 -0.00053932 -0.00243919
N 13.68223828 12.99063218 10.49660291 0.00185141 0.00314251 0.00311664
N 12.27007822 6.26811796 2.69862434 0.00260216 -0.00600637 -0.00054776
N 16.04196953 13.02022078 18.62052120 -0.00712258 0.00478511 -0.00586578
N 9.57030325 6.55843931 27.39178192 -0.00190891 -0.00245557 -0.00185336
N 12.00625202 25.60138744 22.19334619 0.00392529 -0.00112770 0.00411542
N 13.69640123 6.70818025 30.14534068 -0.00202080 0.00290761 -0.00252800
N 9.51096710 0.03282012 30.33400615 0.00435203 -0.00297600 -0.00390070
N 16.29704618 6.37221598 22.29756607 -0.00423984 -0.00594151 -0.00065944
N 13.54680659 13.16916544 26.73380693 0.00061912 0.00820529 -0.00206357
N 11.81828553 6.34196184 19.11509642 0.00024909 0.00585848 -0.00642109
N 16.13740738 25.35826326 2.40079530 -0.00045683 -0.00088601 -0.00072373
N 9.59078128 19.39390438 10.93409397 0.00089242 -0.00279744 0.00723586
N 11.76931573 12.68020679 5.47952749 -0.00241805 0.00219675 0.00114938
N 13.78502665 19.09431164 14.05338553 0.00482398 -0.00308647 0.00184194
N 9.18440973 12.65309193 13.82562734 0.00027291 -0.00022248 -0.00552731
N 16.04633181 19.15536985 5.94477200 0.00245526 -0.00450797 0.00013053
N 13.70217378 0.11832337 10.42720160 -0.00246902 -0.00194182 -0.00291342
N 11.60676823 19.25887174 2.57519329 0.00043135 0.00000951 -0.00417945
N 16.31698389 25.58156844 18.76672749 -0.00650841 0.00397509 -0.00793836
N 9.61331828 19.26727291 27.15097086 0.00626153 -0.00968112 -0.00499741
N 11.65049449 13.07272308 22.21609882 0.00164854 -0.00058614 0.00256430
N 14.04185902 19.27359661 30.38900754 -0.00407236 -0.00754489 -0.00312807
N 9.54523151 12.47662415 30.34853284 0.01380738 -0.00240095 -0.00242019
N 15.94243071 19.33802239 22.19425399 -0.00030711 -0.00324172 0.00801105
N 13.65429220 0.05653322 27.22604643 0.00397820 0.00191406 -0.00183983
N 11.80548929 19.21547646 18.94540368 0.00007622 0.00309660 0.00404148
N 24.82533847 12.95323086 2.41889814 0.00750590 -0.00576789 0.00119708
N 18.29646922 6.02410591 10.61618232 0.00447238 0.00344649 -0.00324076
N 20.17343786 25.24558571 5.56746710 0.00307415 0.00382210 0.00286490
N 22.25778136 6.45458094 14.31527470 0.00578685 0.00245779 -0.00252641
N 18.12314786 24.90038272 13.97808308 0.00682713 -0.00557115 0.00409425
N 24.32000732 6.14249576 5.86575114 -0.00063556 0.00313543 -0.00524710
N 22.08925116 12.66320593 10.51773034 -0.00247976 -0.00178976 0.00633273
N 20.16189121 6.12955044 2.45815558 0.00037907 -0.00608175 0.00339358
N 24.44073195 12.67068231 18.69101918 -0.00538520 -0.00235291 -0.00748079
N 18.40543693 6.76296578 27.20266484 -0.00200906 -0.00690644 -0.00356343
N 20.60746952 25.40598612 22.10296463 -0.00060340 0.00341065 0.00235938
N 22.43307640 6.45069160 30.58186805 -0.00655325 -0.00196699 0.00436860
N 18.13338398 25.46030887 30.46440646 -0.00092144 -0.00368114 0.00079332
N 24.67554483 6.48319826 22.31082200 0.00427934 0.00398206 -0.00707675
N 22.12546430 12.95880458 26.70016696 -0.00003550 -0.00308870 0.00510729
N 20.25937724 6.35322309 18.82222572 -0.00105076 0.00351234 -0.00372829
N 24.50604666 25.56689981 2.14368563 0.00355554 -0.00084327 -0.00363146
N 18.20425141 19.15561961 10.62106675 -0.00098746 0.00837201 0.00096364
N 20.31974013 12.76428268 5.47839241 -0.00701000 0.00041092 0.00093314
N 22.47081335 18.82949940 14.21727034 0.00205367 0.00660535 0.00489951
N 17.77611759 12.84945411 13.75775528 0.00473625 -0.00119993 0.00484545
N 24.54305908 18.80659436 5.90053006 -0.00123864 0.00437563 -0.00522898
N 22.41332579 25.44004529 10.46891047 0.00173219 0.00062368 0.00199981
N 20.46402262 19.04723276 2.39618047 0.00121250 -0.00157395 -0.00369788
N 24.88050554 0.15053154 18.85012784 0.00643463 0.00546160 -0.00215560
N 18.26133996 19.33070601 26.98662944 -0.00242817 -0.01227483 0.00285546
N 20.36256325 12.62488000 21.94002795 0.00632424 -0.00219461 0.00298442
N 22.45599666 19.20259333 30.57391942 0.00329966 0.00191640 0.00117274
N 17.94837102 12.90134917 30.18149691 -0.00554214 0.00079910 -0.00399120
N 24.54874028 19.32261780 22.63361497 0.00520093 0.00630923 -0.00482666
N 22.12130688 0.18570364 27.03060199 0.00337247 0.00561657 0.00180171
N 20.42397627 18.92999963 18.86031288 -0.00176317 -0.00564803 0.00084676
C 7.60678805 0.58550288 4.79057749 -0.00049819 0.01190665 0.00528727
C 0.58535678 5.57150885 13.26956958 0.00299828 0.00334290 -0.00157033
C 3.56639216 12.31509576 3.48717448 -0.00180514 -0.00270777 -0.00573530
C 5.09460307 6.89003447 11.89656650 -0.00249656 0.00351252 0.00292823
C 0.93970654 12.24051855 11.44853258 0.00054173 0.00012228 -0.00492430
C 7.73192973 6.88572469 3.79836766 0.00580555 0.00027028 -0.00206830
C 5.03482065 0.34698723 12.77460074 -0.00185546 -0.00113714 -0.00022026
C 3.48147905 6.04819246 5.11764052 -0.00014331 -0.00193162 -0.00015324
C 7.37568630 1.30360153 5.89987933 0.00265480 0.00287903 -0.00946048
C 1.03009423 5.13165339 14.48350335 -0.00326522 -0.00847238 0.00104919
C 3.20110908 11.63290113 2.27521073 -0.00469776 -0.00249688 0.00322686
C 5.60622514 7.62626300 10.85251251 -0.00075423 -0.00016061 0.00242368
C 1.18089485 11.60722847 10.24525202 -0.00067408 0.00161998 -0.00100532
C 7.56557709 7.68991490 2.68800043 -0.00128608 -0.00438342 0.00357388
C 5.45319562 0.95151841 13.99027979 -0.00073365 -0.00675959 0.00044864
C 3.05928080 5.49593215 6.29514691 -0.00387245 0.00243594 -0.00208158
C 6.44011065 2.41522651 5.86226034 -0.00335104 -0.00400961 -0.00430732
C 2.07233775 4.16754632 14.53006031 0.00344830 -0.00320652 0.00293648
C 2.19904554 10.68784070 2.22893713 -0.00184579 0.00306058 -0.00349242
C 6.34389685 8.75591471 10.97606007 0.00275132 -0.00003308 0.00000203
C 2.00528876 10.40505754 10.34279939 0.00692197 0.00202338 0.00352945
C 6.71571143 8.91802611 2.69682015 -0.00030980 0.00664921 -0.00448980
C 6.37145654 1.99903636 14.10706998 -0.00391212 0.00007224 0.00078548
C 2.25294016 4.32096091 6.30362743 -0.00073370 -0.00469138 -0.00065958
C 5.98668415 2.84137573 4.61756221 0.00958253 -0.00003955 -0.00503869
C 2.48395977 3.59804265 13.30874556 0.00433077 -0.00331078 -0.00055514
C 1.94653239 10.11457182 3.46592740 -0.00614184 0.00556546 0.00975171
C 6.63614533 9.16313488 12.29513298 0.00341677 0.00700999 0.00241681
C 2.21679900 9.84186491 11.57932640 -0.00623365 0.00592291 0.00429019
C 6.29434040 9.34485724 4.00422468 -0.00635816 -0.00126361 0.00032612
C 6.81493423 2.58506221 12.87352473 -0.00194608 0.00578918 -0.00408123
C 1.75475920 3.77874540 5.10517784 0.00277235 -0.00209700 -0.00060843
C 6.41424355 2.15557538 3.47376929 -0.00449671 0.00303520 -0.00744790
C 1.95715093 3.97842939 12.12277172 0.00186410 -0.00651744 0.00068456
C 2.43555444 10.58766798 4.66939281 -0.00479894 -0.00569504 0.00125962
C 6.20618066 8.48650599 13.39075697 0.00296077 -0.00376745 -0.00552875
C 1.99456721 10.55600615 12.75303346 0.00274129 0.00387704 0.00723511
C 6.70868270 8.62244225 5.14445904 -0.00072726 0.00347524 0.00182018
C 6.37263308 2.11815551 11.66300591 0.00255478 -0.00050053 0.00617594
C 2.09249672 4.43569637 3.94131244 0.00761725 -0.00059101 0.00864690
C 7.18631879 0.98149551 3.54699997 -0.00810633 -0.00206705 0.00113344
C 1.13439398 5.04426779 12.09489208 0.00047352 0.00007842 0.00161626
C 3.12416074 11.78613033 4.72829139 -0.00180349 0.00276049 0.00321312
C 5.44867727 7.29420301 13.21672494 0.00200829 -0.00555505 -0.00135522
C 1.32127196 11.78946666 12.71005410 -0.00207756 0.00421607 0.00271329
C 7.22512983 7.27757939 5.06496725 -0.00251010 0.00330658 0.00006698
C 5.47556377 0.91572596 11.59067240 0.00516617 -0.00369196 -0.00548509
C 2.98135801 5.53790240 3.92179162 0.00334029 -0.00118888 0.00017083
C 7.06431401 0.30541174 1.10438550 -0.00449263 -0.00191918 -0.00004470
C 1.49719482 5.91031369 9.80982157 -0.00488735 -0.00499351 -0.00224910
C 2.59641673 12.32969230 7.09951537 -0.00013626 -0.00325691 0.00099118
C 5.54757225 6.63617499 15.51307295 -0.00619724 0.00061771 -0.00052279
C 1.86820698 12.61926604 14.87291010 -0.00358450 -0.00055668 -0.00324212
C 6.95932189 6.81056119 7.37557544 -0.00438387 -0.00219879 0.00840180
C 5.66584018 0.46784558 9.23732652 -0.00144588 0.00310502 -0.00168241
C 2.86463644 6.11274154 1.55770744 0.00280594 0.00114985 0.00353752
C 7.15489360 11.57700475 16.89998825 -0.00548594 -0.00613291 0.00184078
C 1.17879786 7.07773790 8.91438742 -0.00232267 0.00536128 -0.00005159
C 2.75917580 0.76709853 7.93591632 -0.00440910 0.00051758 0.00069957
C 5.92891571 5.70091849 32.72946211 0.00828612 -0.00145456 0.00046323
C 1.38618283 1.04668283 32.62608658 -0.01227461 -0.00105754 -0.00756368
C 6.89707085 5.62795620 8.30454943 0.00435652 -0.00262666 0.00966344
C 6.05976763 12.03792364 8.15193547 0.00153607 -0.00741294 -0.00426506
C 2.99615439 7.42047774 17.13408232 -0.00348823 0.00871090 -0.00326200
C 7.71800226 0.29309125 21.06397572 0.00472283 0.01441290 0.00335528
C 1.11358274 6.04801914 30.00224666 0.00254531 -0.00075683 -0.00123220
C 3.54477107 12.55781821 19.72181039 0.00407028 -0.00560771 0.01209396
C 5.15598922 7.01162173 28.36561188 -0.00143580 -0.00318265 -0.00656257
C 0.85698202 12.59173999 28.08288416 -0.00419793 0.00342674 0.00364258
C 7.82407448 6.89157054 20.18165136 -0.00020928 -0.00426709 0.00181044
C 5.28383813 0.53567977 29.39148566 -0.00074405 -0.00068298 -0.00264744
C 3.44603170 6.07516214 21.66751132 0.00608727 -0.00620555 -0.00323705
C 7.31856203 0.85189043 22.25043369 0.00360497 -0.00212948 0.00078664
C 1.53813515 5.36260452 31.12030950 0.00101893 0.00043687 -0.00269163
C 3.22529327 12.01330080 18.50303689 0.00276789 0.00728030 -0.00402984
C 5.61552727 7.61681068 27.21260777 0.00053242 0.00397845 0.01047341
C 1.15824826 12.04291365 26.84212180 -0.00175500 0.00126911 -0.00058474
C 7.36864196 7.49325467 19.03786493 -0.00559555 -0.01121169 0.00042041
C 5.78726029 1.19064038 30.44417872 0.00576161 -0.00371864 -0.01065796
C 2.86941788 5.54546616 22.78534099 -0.00990096 0.00165764 0.00884036
C 6.50201023 2.01624155 22.27190833 0.00189409 0.00453657 -0.00024310
C 2.36174610 4.20573090 30.94228129 -0.00514660 0.00402315 -0.01022538
C 2.38667862 10.90722192 18.40742211 0.00209040 -0.00430912 -0.00546388
C 6.46279363 8.67569245 27.20518480 -0.00054320 -0.00251823 -0.00359311
C 2.01004110 10.97291527 26.84469489 0.00034013 0.00293668 -0.00721687
C 6.46901519 8.57021750 19.22090957 -0.00034324 0.00763757 0.00111534
C 6.50422917 2.40327515 30.33770805 0.00311123 -0.00758099 -0.00549311
C 1.98844221 4.41299905 22.70140271 -0.00321459 -0.00310778 -0.00416414
C 6.28869891 2.72678987 21.08424121 -0.00600242 0.00050883 0.00677767
C 2.64881298 3.76768740 29.63301033 -0.00478587 -0.00093635 -0.00283507
C 1.92384663 10.28654740 19.61935713 -0.00252164 -0.00110168 0.00169343
C 6.77388499 9.30790905 28.46379014 -0.00327933 -0.00235678 0.00123715
C 2.22243969 10.29381234 28.05557546 0.00478488 0.00000250 0.00398559
C 6.27334334 9.13124466 20.47796654 0.00302984 -0.00227509 -0.00181599
C 6.65132501 2.86154286 29.00275734 -0.00478953 0.00751949 -0.00567534
C 1.86006959 3.77659611 21.49237699 -0.00656920 0.00016115 0.00605038
C 6.53595774 2.07208079 19.87523783 0.00275234 0.01039551 0.00841786
C 2.22682424 4.43207577 28.53506787 0.00697047 0.00479010 -0.00665279
C 2.34619658 10.78860201 20.89479741 0.00270642 -0.00332444 -0.00829597
C 6.37188296 8.66565124 29.62403963 -0.00427399 -0.00642592 0.00238363
C 1.92403383 10.86041440 29.29552495 -0.00344194 -0.00004523 -0.00235417
C 6.75093618 8.54167613 21.62140371 0.00315686 -0.00147381 0.00112894
C 6.11392060 2.17617986 27.90616614 -0.00744941 -0.00087150 0.00655949
C 2.36622041 4.39141208 20.35357110 -0.00694623 0.00203746 0.00096056
C 7.28544746 0.80870808 19.86483513 -0.00281457 0.00305828 -0.00315337
C 1.48800842 5.61937130 28.65410903 -0.00212274 0.00334401 -0.00130495
C 3.11212805 11.96671381 20.92421020 0.00266044 0.00473473 -0.00012565
C 5.56972176 7.51732698 29.61615367 -0.00011620 0.00442592 -0.00255510
C 1.38098921 12.16659644 29.27353942 0.00576514 -0.00317060 0.00325497
C 7.45294261 7.29737490 21.46083595 -0.00771587 0.00498780 -0.00318659
C 5.51169971 0.92011026 27.99925555 -0.00592062 -0.00943476 -0.00655029
C 3.11008245 5.55698465 20.38621749 0.00382779 0.00633194 -0.00532544
C 6.81600194 0.19887841 17.58985340 0.00221627 0.00428788 0.00081273
C 1.39602312 6.17777881 26.23774461 0.00152500 0.00372826 -0.00148226
C 2.70256714 12.58625749 23.28704110 0.00733418 -0.00153963 0.00388152
C 5.85318938 6.97018911 31.98018618 0.00039588 0.00784659 -0.00373976
C 1.78424809 12.57818064 31.65956390 -0.00609921 -0.00332535 -0.00206084
C 7.09221189 6.59206707 23.78070616 -0.01052162 -0.00435804 0.00070131
C 5.84034975 0.20469987 25.72423481 0.00186007 0.00367112 -0.00222003
C 2.81396956 6.22352416 18.07500357 -0.00215960 -0.00013346 -0.00853753
C 7.36007729 11.91447749 32.71594596 0.00475060 -0.00088999 0.00229913
C 0.86421462 7.27352713 25.31147807 -0.00532477 -0.00021037 0.00446526
C 2.62821573 1.18624394 24.11509319 0.00372288 0.00190039 0.00015792
C 5.36930878 5.42220916 16.37319544 -0.00515299 0.00606024 -0.00178472
C 1.39094729 0.65579638 16.07715943 0.00431500 0.00028670 -0.00399254
C 7.06350342 5.27671077 24.60102844 -0.00435397 0.00026908 -0.00041259
C 5.71173865 11.75848744 24.63803203 0.00227401 0.00045165 -0.00232135