1920
Time=12000.00000000 pbc="T T T" Lattice="25.60775390 0.00000000 0.00000000 0.00000000 25.61629522 0.00000000 0.00000000 0.00000000 32.98579367" energy=-12250.61500764 virial="-52.82760274 -3.04935128 -3.11379127 -3.04935128 -71.90276292 -13.20927358 -3.11379127 -13.20927358 -52.59951476" stress="-0.00036169 -0.00013660 -0.00014898 -0.00013660 -0.00126457 -0.00060896 -0.00014898 -0.00060896 -0.00028826" Properties=species:S:1:pos:R:3:vel:R:3
O 6.23489980 3.23603506 6.47100308 0.00063715 -0.00070004 -0.00202376
O 2.84587309 3.88861092 15.18614810 -0.00057875 -0.00185374 -0.00149283
O 1.49640293 10.15183478 1.43149662 -0.00026025 -0.00188269 0.00818129
O 6.81420895 9.34374310 9.94115079 -0.00235957 -0.00000762 0.00037417
O 2.77453284 9.90172571 9.77563223 -0.00489691 0.00117363 -0.00096066
O 5.65258455 9.44476059 1.88185051 0.00123458 -0.00437606 -0.00144573
O 6.54256705 3.26268523 14.98222043 0.00562381 -0.00101724 -0.00602021
O 1.64244586 3.91036273 6.90376764 -0.00436388 -0.00103684 -0.00009799
O 6.38909627 1.30527751 17.00059943 0.00983231 -0.00109701 -0.00304004
O 2.40511131 5.31904590 8.91638177 -0.00321347 -0.00006623 -0.00083237
O 2.24525772 11.30310595 7.78702543 0.00365413 0.00235541 0.00259619
O 5.98458135 7.82687520 32.98558087 0.00031197 0.00279537 -0.00569972
O 1.86202831 11.77405371 32.37864966 0.00169012 0.00578373 0.00384884
O 6.67095849 7.82904392 8.04014670 0.00072688 -0.00177915 0.01104398
O 6.17103712 1.55855714 8.66406012 0.00644076 -0.00499780 -0.00548185
O 1.75752808 5.08937499 17.33395520 0.00548797 -0.00490335 -0.00547238
O 6.06137246 3.20732827 23.08049351 -0.00027756 0.00031628 0.00569872
O 2.54246721 3.92906957 31.67410355 -0.00102561 0.00159309 0.00928280
O 1.25183018 9.92173163 17.75101864 -0.00584488 0.00236815 -0.00246567
O 6.96148990 9.19506957 26.60416426 -0.00289988 -0.00862135 0.00413666
O 2.48124605 10.36419246 26.02948181 0.00284434 0.00084198 0.00026986
O 5.44791894 8.59537039 18.44140465 -0.00414565 -0.00374854 0.00356938
O 7.20875767 2.73286996 31.41151741 0.00598528 0.00174624 0.00229977
O 2.42283237 3.67054357 23.68930747 0.00181197 -0.00217800 -0.00364238
O 5.98386332 1.29751462 0.43520646 0.00129493 -0.00170558 0.00966249
O 2.62498826 5.34934388 25.63710260 -0.00162308 0.00035157 -0.00058353
O 2.29683613 11.65502618 23.81374877 0.00620934 -0.00574386 -0.00345556
O 6.13200874 7.73261808 16.07577236 -0.00629698 -0.00095804 0.00213202
O 2.24029156 11.34816928 15.89266321 0.00323015 0.00006301 -0.00558203
O 6.99153364 7.70110601 24.46024915 -0.00551117 -0.00413689 -0.00081379
O 6.05383021 1.51795388 25.03785663 0.00371946 0.00183320 -0.00208049
O 2.09347334 5.44687249 0.79553572 -0.00134059 0.00352898 0.00605123
O 5.79358156 15.21112928 7.14529794 0.00006451 0.00635188 -0.00629769
O 3.22273725 16.26707889 14.91591660 -0.00136770 0.00194202 0.00151370
O 1.58851064 23.04419911 0.82860317 0.00108128 0.00299814 0.00057803
O 7.32743494 21.51323764 9.20180235 0.00292740 0.00005811 0.00104935
O 3.57038921 22.83204658 9.44612981 0.00192971 0.00511405 0.00219435
O 5.56427295 21.78040394 1.12759099 -0.00484457 0.00535944 0.00524375
O 6.70847231 15.67024161 15.84308617 0.00078516 -0.00630522 -0.00263789
O 1.58811367 16.36189125 6.74998198 0.00302115 -0.00646882 -0.00221070
O 6.24602326 13.98952351 17.76111303 -0.00024696 -0.00167967 0.00057916
O 2.20611208 17.61234102 9.03093489 -0.00609104 -0.00554639 -0.00268084
O 2.72615784 24.23492308 7.31456799 0.00194238 0.00398054 -0.00586000
O 5.90095570 20.62673188 31.93399648 -0.00290222 -0.00451696 0.00531101
O 2.30571188 24.63683276 31.93130065 -0.00422242 0.00241052 -0.00204447
O 6.40746646 20.31189951 7.13783142 -0.00114306 0.00018755 -0.00036423
O 6.17359231 14.37633920 9.62113585 0.00047457 0.00425893 -0.00216570
O 2.38375960 17.80519151 17.26121234 -0.00285673 -0.00407074 -0.00041389
O 5.65302335 15.32419319 23.94532807 0.00321105 -0.00725153 0.00531068
O 2.67033216 16.54863037 31.75445723 0.00546864 -0.00662062 -0.00181679
O 1.30921062 23.07175330 17.38356599 0.00624655 0.00006310 -0.00505142
O 6.71635933 22.17679574 25.62520222 0.00192111 0.00313473 -0.00344362
O 2.73785709 23.10943257 25.78906073 0.00171052 -0.00150044 -0.00386436
O 5.83668881 21.93357572 17.64383681 0.00761706 0.00030051 0.00349643
O 6.08205244 15.39487157 31.94258045 -0.00038286 -0.01110243 -0.00280160
O 1.26436416 16.33166746 23.42323348 0.00455746 0.00022490 0.00414762
O 5.95194027 13.99811397 1.16277989 0.00707946 -0.00047561 0.00047827
O 1.85848152 17.92346360 25.36640546 -0.00183353 -0.00461000 0.00647480
O 2.80140851 24.33396864 23.58287966 0.00800894 -0.00445891 0.00228404
O 6.73095643 20.59246879 15.46313270 -0.00476927 -0.00353642 0.00271472
O 1.55955708 24.66281065 15.28527268 -0.00600437 0.00117608 -0.00322764
O 6.56633613 20.41954321 23.75798354 -0.00426813 -0.00394017 0.00045197
O 6.50836985 13.69775993 25.80037001 -0.00012780 -0.00571569 -0.00446489
O 1.91435290 18.06604933 0.58035499 -0.00093562 0.00165843 0.00401002
O 14.08820423 2.32668535 6.91906338 0.00189551 0.00272512 0.00436052
O 11.24889893 3.63577942 15.90791769 -0.00295370 -0.00050571 0.00332318
O 10.22831302 10.06569672 1.42333435 -0.00279565 -0.00539598 0.00187707
O 15.47835288 8.42631213 9.67481363 0.00181464 -0.00124370 -0.00048892
O 10.93317874 9.84823342 9.30832381 0.00078455 0.00376611 -0.00635385
O 14.02478083 9.55316235 1.54100922 0.00181294 -0.00297301 0.00231257
O 15.38756934 3.05342799 15.04796089 0.00479039 -0.00444473 0.00371450
O 9.53017455 4.06097676 7.38957482 0.00160431 0.00121114 -0.00593797
O 15.29934380 1.49591288 17.00481447 0.00510955 0.00439046 -0.00311619
O 10.36032877 4.80880562 9.64717282 -0.00377276 -0.00193669 -0.00086825
O 10.38165399 11.61203145 7.64947381 -0.00932873 0.00056801 0.00415812
O 15.04155446 8.22221200 32.36943712 0.00177356 0.00327667 -0.00330360
O 10.53200745 11.47488721 32.35074713 -0.00051941 0.00608035 0.00408279
O 14.92563513 7.22673931 7.57952318 0.00262013 -0.00058964 0.00403506
O 14.66600355 1.10827555 9.05853014 -0.00020288 -0.00232300 -0.00735322
O 10.27785179 5.32504167 17.80918524 -0.00628871 0.00137457 0.00053893
O 14.41963184 2.82869123 23.19868014 0.00123221 -0.00057376 0.00144580
O 11.18454632 3.88544856 32.00397696 0.00166077 0.00690619 -0.00711918
O 9.91433905 10.15519869 17.96493717 0.00109784 0.00531093 -0.00381592
O 15.07130312 8.86934908 25.87504597 0.00742120 -0.00253873 -0.00384519
O 11.78251368 10.66389047 26.25069127 -0.00530662 -0.00177044 0.00007550
O 14.36430471 9.50076632 18.10999197 -0.00403947 -0.00040750 -0.00434198
O 15.23978090 3.03178496 31.67236605 -0.00342554 -0.00366254 0.00395809
O 10.06118523 4.15146764 23.85967985 0.00757199 -0.00144697 -0.00156115
O 15.02598275 1.46703106 0.61482956 -0.00251269 -0.00089700 -0.00575086
O 10.95838673 5.69499690 25.82586413 -0.00395142 -0.00088610 0.00115165
O 10.72421865 11.92192467 23.94125307 0.00187401 0.00076651 0.00138499
O 14.53000589 7.73165113 16.06630493 -0.00190229 0.00302349 -0.00295790
O 10.11428307 11.33829394 15.61998533 0.00106237 0.00548429 -0.00753043
O 14.41194810 7.23417626 23.85443368 -0.00253895 -0.00770632 0.00486934
O 14.89394697 1.19993706 25.39418545 -0.00208242 0.00035429 -0.00817502
O 11.42815960 5.08655506 1.21843741 0.00068756 -0.00046481 0.00104396
O 15.16833242 14.91739051 6.98931030 -0.00550659 -0.00031045 -0.00083103
O 10.50036269 16.54115571 15.41289783 -0.00060481 0.00109691 0.00248565
O 10.14118807 22.71001201 1.32550242 0.00193715 0.00046242 -0.00992506
O 15.58875241 21.98554970 9.69372455 -0.00211466 -0.00626602 0.00669191
O 10.89576839 22.69511124 9.65374070 0.00105598 -0.00555360 0.00064288
O 13.93728536 22.25553955 1.60028830 0.00369542 -0.00282190 -0.00128676
O 14.72051535 15.53948457 14.98233983 0.00147596 -0.00210244 -0.00621239
O 10.22711182 16.10675046 6.85871441 0.00217354 -0.00171209 0.00108505
O 15.12189910 14.02512551 17.24807758 0.00581861 -0.00039710 -0.00026435
O 10.46344276 17.46736828 8.95121512 -0.00378101 -0.00153609 -0.00367502
O 10.58818166 24.23752209 7.47176848 -0.00334468 -0.00697217 -0.00335995
O 14.41167239 20.53721603 32.55025645 0.00202232 0.00406409 -0.00329236
O 10.47954200 24.30105692 32.09832223 -0.00707149 0.00070835 -0.00192988
O 15.07342937 20.49658736 7.53313429 0.00512745 0.00676136 0.00140320
O 14.47530488 13.50141557 8.94746181 -0.00200071 -0.00117980 -0.00091267
O 10.62431718 18.20139140 17.49748716 -0.00138236 -0.00070310 0.00303556
O 14.93325385 15.70782604 23.53407162 0.00099145 0.00478394 -0.00061949
O 11.46904760 16.56722317 31.70501246 0.00567849 0.00406031 0.00413806
O 10.00363734 22.95955954 17.72368173 0.00279678 0.00415274 -0.00008593
O 15.60823749 22.09979710 26.34146868 0.00059661 -0.00336745 -0.00468773
O 11.13613817 23.03893437 26.04993718 -0.00436544 0.00304071 -0.00149576
O 14.40607842 22.10053047 17.82173924 0.00443525 0.00240858 0.00333361
O 15.76812360 15.42326047 31.72944940 0.00055915 0.00480159 0.00002473
O 10.23617402 16.61393923 23.64461168 -0.00282790 0.00169041 -0.00642518
O 14.88990925 14.09798042 0.77288792 -0.00127724 0.00397965 0.00139806
O 11.08974962 18.29342984 25.62327952 -0.00007038 0.00119206 -0.00099503
O 10.46169829 24.63761620 23.76830785 0.00501219 -0.00524186 0.00214633
O 14.28538833 20.55234072 15.76134559 -0.00147931 -0.00447707 -0.00132329
O 10.43056886 24.55253086 15.85476366 0.00685456 -0.00150903 -0.00023690
O 15.44418276 20.69313645 23.95939075 -0.00197405 -0.00137310 0.00910558
O 15.36799156 14.02111888 25.43105444 0.00499208 -0.00334498 0.00833598
O 10.68124901 17.70674136 0.88195203 -0.00302562 0.00083760 -0.00616626
O 23.27262718 2.48177534 6.75912824 0.00657016 0.00011336 -0.00071856
O 19.65007721 3.37770894 15.23032774 0.00691721 -0.01011401 0.00101095
O 18.68891226 10.44528794 1.37910384 -0.00167824 0.00155382 -0.00854429
O 23.93986105 8.93291955 9.39072262 0.00130976 0.00255570 -0.00428104
O 20.25772726 10.26215338 9.58333303 0.00532066 0.00078347 -0.00069645
O 23.26736858 9.27515432 1.29788979 0.00160169 0.00222645 -0.00754976
O 23.67625388 2.91787717 15.03962187 0.00013121 -0.00383909 -0.00437792
O 18.74665511 3.50839828 6.96224744 -0.00387148 -0.00385702 -0.00553580
O 23.35686762 1.36958580 17.13481142 0.00630652 -0.00269137 -0.00253959
O 18.91586283 4.85689109 9.12394897 -0.00294919 0.00307667 -0.00967233
O 19.17991388 11.50495672 7.42848109 -0.00067859 -0.00363103 -0.00934647
O 23.45003536 7.65603287 32.10088802 -0.00223613 -0.00739662 -0.00133400
O 19.65199699 11.65589122 32.23121030 0.00946185 0.00226743 -0.00680228
O 23.84425965 7.37998945 7.31809205 -0.00266658 -0.00353496 -0.00208981
O 23.46010285 0.88764762 8.97386942 0.00177197 -0.00094215 -0.00458671
O 18.96683722 5.00459340 17.31171785 -0.00057073 0.00215627 0.00464631
O 23.16257008 3.19398840 23.11392892 0.00141049 0.00094368 0.00188961
O 19.56267092 3.60493277 31.65362829 0.00246464 0.00488436 -0.00475534
O 18.47366745 10.21423524 17.93650590 0.00104195 0.00422079 -0.00191647
O 24.29150599 8.98658261 25.91886167 -0.00196397 0.00050643 -0.00181725
O 18.83092762 9.98762769 26.02157729 0.00229349 -0.00182267 0.00344494
O 22.62490643 8.74020116 17.74773333 -0.00607704 0.00646100 0.00410497
O 24.27226149 2.63200108 31.39227516 -0.00059076 -0.00375190 0.00169821
O 18.38589240 3.96128601 23.62696866 0.00419807 -0.00175684 0.00179340
O 23.65498004 1.06999277 0.56725007 0.00902917 0.00412136 0.00252137
O 19.01908760 5.33646143 25.60872669 0.00117736 -0.00612098 0.00106566
O 18.87413817 11.54259935 23.99691100 0.00211063 0.00208679 0.00275395
O 23.39512633 7.45819660 15.62080526 -0.00679940 0.00666876 0.00265285
O 19.17764283 11.63235887 15.59552781 0.00349669 -0.00010927 0.00128632
O 23.55269525 7.74803789 23.75401213 -0.00811604 -0.00521915 -0.00346655
O 23.55989441 1.67453642 25.19652195 -0.00422079 -0.00951927 -0.00001832
O 19.13144955 5.14238866 0.84561137 -0.00624108 0.00010588 -0.00336276
O 22.70874187 15.14933403 7.12152580 0.00437856 0.00516591 -0.00250910
O 19.57560322 16.50492441 15.62398356 -0.00135803 0.00300390 0.00086519
O 18.84902907 22.77491078 0.90573348 0.00695174 0.00458991 -0.00139349
O 24.36992392 21.46438911 9.25366190 -0.00799101 -0.00261299 0.00091313
O 20.02925299 23.24878856 9.41659620 0.00239947 0.00219584 0.00361620
O 22.75739219 21.93761837 1.13317123 -0.00121512 -0.00007519 0.00572279
O 24.06048104 15.17158458 15.30357516 -0.00469253 0.00238692 -0.00756466
O 19.02008575 16.54190546 6.93483769 0.00120446 0.00528185 0.00153684
O 23.14359279 13.69256738 17.33244378 -0.00073824 0.00382570 0.00055991
O 19.01327126 17.77264479 9.22843804 -0.00078676 -0.00017592 0.00240165
O 19.38357707 24.20269712 7.11714370 -0.00760901 -0.00084971 0.00047462
O 23.20717232 20.51796285 32.11303295 0.00492597 -0.00118380 0.00027930
O 18.91384063 24.20663041 31.68314010 -0.00218941 0.00216892 0.00564916
O 23.64128200 20.17022253 7.19243846 -0.00240955 0.00032076 -0.00460460
O 23.97040109 13.75911518 9.20913920 -0.00098624 0.00066481 0.00424583
O 19.09965776 17.98842636 17.72903721 -0.00414467 0.00316427 -0.00545642
O 23.13601497 15.91306377 23.30372954 -0.00062282 -0.00475063 0.00303606
O 19.45962611 16.55303387 32.02139902 -0.00386714 -0.00325351 0.00122176
O 18.58813386 22.80978611 17.58679847 0.00090476 -0.00108050 0.00639667
O 23.94736224 22.24032707 25.94738997 0.00212859 0.00044206 0.00350894
O 19.97800814 23.04920376 25.58403553 -0.00132455 -0.00583215 -0.00565300
O 23.67741595 21.64055989 17.68523806 0.00412341 -0.00527340 -0.00391244
O 23.99360573 15.53829517 31.49993712 -0.00084630 0.00131740 -0.00079080
O 19.07048156 16.73646355 23.88125210 -0.00243582 -0.00363690 -0.00438648
O 23.52106090 14.42139811 0.71129440 -0.00479772 0.00048367 -0.00126990
O 19.66009933 18.27292566 25.76364033 -0.00132994 0.00034569 0.00445897
O 19.16198345 24.61497173 23.82277174 -0.00366866 -0.00386709 0.00247405
O 23.26094301 20.19567036 15.47147567 0.00503736 0.00122397 -0.00041113
O 19.10060622 24.29962058 15.57969910 -0.00378451 -0.00066118 0.00366229
O 23.39210778 20.76528976 23.96402660 0.00932553 0.00144005 0.00476728
O 23.13829750 14.18418681 25.26891922 -0.00038083 0.00022977 0.00037411
O 18.93712605 18.39370886 0.94252837 -0.00061693 -0.00688670 -0.00021582
N 7.46740433 12.86598404 2.51142842 -0.00326297 0.00501956 -0.00278063
N 0.77606916 5.94008745 10.36748339 -0.00027410 -0.00021698 -0.00341282
N 3.50493644 25.30476908 5.56082209 0.00372822 -0.00150890 0.00225069
N 5.01297869 6.63880896 14.33902267 0.00112658 0.00171602 0.00229248
N 0.87736362 25.58544445 13.32659248 0.00660474 0.00600755 -0.00225749
N 7.49356777 6.46551022 6.36987165 0.00038781 0.00261786 -0.00405522
N 5.05888637 13.08144899 11.23849322 0.00044113 -0.00372420 -0.00298802
N 3.33745902 6.56003877 2.37553092 -0.00012228 -0.00144664 0.00724909
N 7.49727776 12.86218383 19.25390486 0.00761562 -0.00416436 0.00194868
N 1.48266989 6.71206129 26.98397952 0.00013345 -0.00493614 0.00857436
N 3.58330884 25.53216488 21.79907644 0.00113615 0.00712792 -0.00698376
N 5.29825545 6.56268885 31.12855042 0.00654544 0.00110266 -0.00385463
N 1.01152209 0.05345217 30.42514188 -0.00454963 0.00443657 -0.00127960
N 7.60746182 6.19667042 22.86016101 0.00225519 -0.00040991 -0.00233597
N 5.09802640 12.55053794 27.21170025 0.00118652 -0.00671152 0.00374982
N 2.72422639 6.47716629 18.84756751 -0.00290401 0.00701281 -0.00422409
N 7.30425678 0.21284110 1.99997195 0.00090713 0.00060103 0.00643042
N 0.81604891 18.64613068 10.59832592 0.00147688 0.00006760 0.00038563
N 3.09574652 12.52600090 6.07397351 -0.00380699 -0.00247459 -0.00338869
N 5.32030517 19.59412200 13.97821681 0.00013631 0.00059541 0.00371104
N 1.00590335 12.44026853 14.30645299 0.00312988 -0.00188186 0.00949777
N 7.58168689 19.18032789 5.50515565 -0.00324704 0.00130334 -0.00439014
N 5.49504196 0.14702954 10.44343935 0.00019806 -0.00104926 -0.00326204
N 3.41340062 18.89246418 2.11295616 0.00259508 0.00087389 0.00077405
N 7.28774270 0.09720089 18.70499541 -0.00514520 -0.00684052 -0.00070676
N 1.25989046 19.30949617 27.11428174 -0.00552652 -0.00211653 0.00827768
N 3.38792148 12.66430664 22.13334624 -0.00356055 0.00030769 0.00362249
N 5.20439165 19.31155469 30.17698436 0.00046264 0.00385473 -0.00253208
N 0.59334847 12.74780936 30.67915069 0.00245933 0.00109294 0.00149497
N 7.52728671 19.18032795 22.09033883 0.00677104 -0.00375845 0.00185508
N 5.15812112 0.37360740 26.80733717 0.00118707 0.00571197 -0.00072146
N 3.28741591 18.99364449 19.03321000 -0.00115426 0.00193998 0.00578192
N 15.95850251 12.58897241 2.12072758 -0.00421536 0.00580262 -0.00528469
N 9.42125730 5.93056101 11.35115513 0.00685462 -0.00478169 0.00026718
N 11.67757304 25.53261291 5.91363629 -0.00377220 -0.00085551 0.00004507
N 13.86418887 6.18400202 14.42479095 0.00127233 0.00930041 -0.00754036
N 9.63468477 0.14042929 14.08683314 -0.00596140 -0.00079199 -0.00163435
N 16.12742154 6.47455365 5.74634393 -0.00951472 -0.00011078 0.00577114
N 13.82679898 12.17560030 10.72877659 0.00235420 -0.00155995 -0.00332376
N 11.89942600 6.51269666 3.03887207 0.01216446 -0.00090037 -0.00481718
N 15.99527452 12.76292124 18.98935788 0.00179789 -0.00090380 0.00394122
N 9.56745531 6.54261248 27.40152726 -0.00164186 0.00001777 0.01012515
N 11.82902105 25.52452256 22.17997326 -0.00583234 -0.00301161 -0.00061422
N 14.03088793 6.83192035 30.85967994 -0.00042708 0.00358111 -0.00062357
N 9.46727165 25.56254502 30.54118453 -0.00455244 0.00161752 0.00331624
N 15.89665947 6.30241045 22.36191925 0.00653404 0.00271358 -0.00423414
N 14.25661828 12.90728365 27.06979318 0.00659626 -0.00347729 0.00250520
N 11.72614426 6.39083153 19.24458895 0.00517326 -0.00150721 0.00047394
N 16.05607762 0.05057760 2.21841343 -0.00437317 -0.00458818 -0.00092056
N 9.63834036 18.94593872 10.45085928 0.00323991 -0.00584334 0.00139194
N 11.68032251 12.72879158 6.10242432 -0.00041079 0.00212640 -0.00133625
N 13.47270138 19.31097692 14.07514443 0.00097482 0.00710395 0.00310834
N 9.51289662 12.65937524 13.83644074 -0.00044570 0.00019833 -0.00159951
N 16.02612360 19.43849346 5.66100720 -0.00292014 0.00635390 -0.00251013
N 13.54490531 0.15790959 10.74518800 -0.00182333 -0.00507236 -0.00184527
N 12.05733044 18.70155467 2.40389012 -0.00035892 -0.00152508 0.00085378
N 16.27895985 0.21822318 18.62744727 0.00707544 -0.00113374 0.00008472
N 9.67799317 19.29565085 27.20516667 -0.00722297 -0.00030784 0.00206491
N 12.15085000 12.71684737 22.37669133 0.00163788 0.00186979 -0.00330987
N 14.17210108 19.16712734 30.79791696 -0.00172817 0.00343673 -0.00720830
N 9.37149429 12.67886360 30.73659659 0.00075101 0.00156524 0.00324763
N 16.19917945 19.33306960 22.28661411 0.00105207 -0.00061512 -0.00114190
N 13.88885842 0.14538646 27.10783020 0.00021051 0.00209537 0.00125040
N 11.53823995 19.34308809 19.20750184 0.00567621 0.00112832 -0.00758785
N 24.60347288 13.11534133 2.34326765 0.00462582 -0.00164436 0.00825514
N 18.31622752 6.40816121 10.73245439 -0.00155038 0.00239353 -0.00188046
N 20.38549356 25.55751077 5.57451201 -0.00706807 0.00128206 0.00665857
N 21.88623105 6.62546304 14.03500797 -0.00152661 0.00132833 -0.00832079
N 17.96869944 25.45314799 14.02889216 -0.00061318 -0.00149293 0.00680227
N 24.72226997 6.14634115 5.59150113 -0.00530396 0.00130802 0.00567542
N 22.42081985 12.80414178 10.56309937 -0.00600282 -0.00526217 0.00544832
N 20.45587649 6.14066356 2.38700251 -0.00098537 0.00356527 0.00316875
N 24.61601320 12.81060471 18.83082579 -0.00087877 -0.00620636 0.00060708
N 17.98786497 6.65354628 27.23748467 -0.00094566 -0.00505671 -0.00749269
N 20.40540111 0.00105909 22.14254315 -0.00071651 0.00109729 -0.00319574
N 22.33377824 6.56557342 30.43790485 0.00401662 -0.00172897 0.00253901
N 17.98220842 25.57596634 30.09786910 0.00378119 -0.00408138 0.00079104
N 24.49253878 6.40988787 22.22175453 -0.00733162 0.00373384 -0.00108699
N 22.01852625 13.13703029 26.88446384 -0.00146690 0.01149327 0.00225279
N 19.92281749 6.36110931 18.88851078 -0.00111001 0.00392867 0.00527145
N 24.45270651 25.37733980 2.26453027 -0.00164183 0.00176141 -0.00172557
N 17.63856010 18.53952340 10.92902661 0.00167073 -0.00196969 0.00620176
N 20.27319862 12.90653984 5.90301479 -0.00103048 0.00482189 -0.00278380
N 22.24450331 19.03886354 13.73779145 0.00042428 0.00046699 0.00289730
N 17.74543397 12.36055135 14.00602744 -0.00743097 0.00124530 0.00438290
N 24.91495631 19.18838032 5.52708361 0.00235396 0.00827877 0.00396282
N 22.35969035 25.28108581 10.61582996 0.00286881 0.00541738 0.00911174
N 20.60026555 19.18994916 2.33981447 -0.00646522 0.00205665 -0.00418170
N 24.72405216 0.29445613 18.66267673 -0.00075024 0.00224684 0.00528572
N 18.25766377 19.27448580 27.33941926 0.00093084 0.00153813 0.00157432
N 20.38773140 12.58386252 22.57801612 0.00443177 0.00018994 0.00034353
N 22.55747821 19.20562098 30.28463569 0.00074982 0.00270889 0.00061291
N 18.32749785 12.78163926 30.72080316 -0.00439868 0.00267136 -0.00330683
N 24.66671741 19.43774761 22.63844109 -0.00566640 0.00801149 -0.00285930
N 22.49477933 0.30405293 26.63239695 -0.00269667 0.00075625 0.00134627
N 20.42285249 19.18587629 19.10725822 0.00480187 -0.00133340 0.00323019
C 7.70257407 0.66237277 4.30922337 -0.00391964 -0.00553488 -0.00437087
C 0.87721148 5.88437496 12.77006941 -0.00049149 0.00039258 0.00810471
C 3.36572443 12.25273473 3.71394367 0.00118050 -0.00721371 0.00200595
C 5.24524048 6.80747860 11.95410086 0.00610565 0.00206231 0.00191250
C 1.07265509 12.29226391 11.88402231 0.00075007 0.00493059 -0.00122329
C 7.48714485 6.95494330 3.94497647 0.00380751 -0.00825099 -0.00061816
C 5.32418951 0.50368887 12.85202933 -0.00040563 0.00388485 -0.00083493
C 3.37854932 6.23038665 4.75287133 0.00513060 -0.00224394 -0.00277438
C 7.47687616 1.46684026 5.39213707 0.00131886 -0.00269883 -0.00709582
C 1.32380858 5.40132462 14.01095031 0.00734401 -0.00181825 -0.00387019
C 2.83396779 11.82643672 2.54896402 0.00903531 0.00278733 -0.00393504
C 5.74980799 7.45532164 10.86816485 0.00086623 0.00049556 -0.00050441
C 1.45145382 11.61175535 10.77400631 -0.00371895 0.00218902 -0.00064457
C 7.23480022 7.70132967 2.85743684 0.00337007 0.00173250 -0.00200309
C 5.60524860 1.28363418 13.96419803 0.00084077 -0.00113753 -0.00363376
C 3.04658105 5.62354834 5.90013420 0.00163758 0.00616572 0.00202893
C 6.49591233 2.50689056 5.38447764 -0.00093793 -0.00482421 0.00601227
C 2.27953807 4.31315217 14.03966151 -0.00719258 -0.00515159 -0.00192214
C 2.04443806 10.63523766 2.53174630 0.00723347 0.00639076 -0.00760527
C 6.42572309 8.69197481 11.03176534 0.00108452 -0.00297026 -0.00515158
C 2.17796643 10.45079509 10.84488393 0.00296731 0.00220008 -0.00401021
C 6.29724366 8.86397324 2.98894531 -0.00299289 -0.00430049 0.00181458
C 6.31472176 2.47516673 13.84918149 -0.00555812 0.00049947 0.00472526
C 2.30342740 4.35090042 5.80081397 -0.00505171 -0.00165789 -0.00257836
C 6.05387759 2.92241356 4.10791269 0.00401206 -0.01062581 0.00341206
C 2.45351430 3.70402048 12.79632129 0.00093786 0.00697293 0.00430678
C 1.78600667 9.99120002 3.81399266 0.00301084 -0.00100615 0.00016524
C 6.63181199 9.26249048 12.27194113 -0.00057123 -0.00339530 0.00464902
C 2.41857914 9.90599012 12.09601604 0.00512911 -0.00312832 0.00320354
C 6.24146255 9.36972971 4.30210033 0.00644668 0.00219839 -0.00345587
C 6.58935290 2.99588478 12.57489962 -0.00144928 0.00018774 -0.00689569
C 2.08956676 3.73391340 4.57219558 0.00333316 0.01051580 0.00583593
C 6.29763496 2.16487022 3.06101107 -0.00157917 0.00584172 -0.00116451
C 1.92027744 4.06884805 11.63892004 -0.00513932 0.00466950 0.00678360
C 2.04373732 10.64646191 4.99471428 -0.00055449 -0.00789204 -0.00724468
C 6.16387573 8.59921983 13.41256690 -0.00460971 -0.00295991 -0.00032368
C 2.13151638 10.54569195 13.24366742 -0.00007958 0.00732251 0.00163626
C 6.57250642 8.56944285 5.41783505 0.00042662 0.00561879 0.00137238
C 6.30486796 2.26314604 11.38881395 0.00249112 -0.00148088 -0.00038121
C 2.41155588 4.41649897 3.41595268 -0.00190369 0.00423881 0.00618056
C 7.08607255 1.04587521 3.11417593 0.00216360 -0.00097824 0.00340115
C 1.20537710 5.31720524 11.56688175 -0.00233656 -0.00525678 -0.00070559
C 2.87122937 11.78846452 4.97282614 -0.00216642 -0.00353000 -0.00364999
C 5.40182628 7.40245129 13.23745994 0.01009159 0.00010222 0.00196137
C 1.43257637 11.76789171 13.15104178 -0.00169672 -0.00316648 -0.00393098
C 7.16370068 7.33600659 5.28778053 -0.00451042 -0.00251258 -0.00744845
C 5.68304922 1.01640942 11.57458491 -0.00449409 -0.00104427 -0.00289088
C 3.02689123 5.70840233 3.45677495 -0.00204252 -0.00249428 -0.00443344
C 6.68477784 0.31792214 0.82493334 0.00557160 -0.00330904 -0.01263475
C 1.59178133 6.18524191 9.35659364 0.00574143 -0.00048390 0.00049523
C 2.67038894 12.36032363 7.35380231 -0.00672299 -0.00336583 0.00007322
C 5.59769064 6.72362087 15.58437117 -0.00049979 -0.00688346 -0.00275859
C 1.60254277 12.32890189 15.46393976 -0.00256369 0.00466896 -0.00718141
C 7.04194286 6.69754927 7.62802943 0.00019706 0.00162021 0.00864599
C 6.04147699 0.43430982 9.18648214 0.00153645 -0.00116483 0.00227680
C 2.72288732 6.46674335 1.17461534 0.00794198 0.00168077 0.00264198
C 6.90751048 11.75292803 17.11141991 -0.00401928 0.00313829 0.00350662
C 1.57705703 7.49018761 8.64863857 0.00207394 -0.00807225 -0.00029319
C 3.19930355 0.96060411 7.58668970 0.00056406 0.00154722 -0.00530310
C 5.64117988 5.43983987 0.19403129 -0.00678156 -0.00565097 -0.01617020
C 1.32264438 1.16529735 32.55364114 -0.00020047 -0.00476529 -0.00315198
C 6.86047368 5.43607925 8.44863413 0.00443228 -0.00016745 -0.00487759
C 5.56452286 12.03670671 9.03713285 0.00712290 0.00163897 -0.00529957
C 2.56806212 7.34016849 16.62113883 0.00236774 0.00022535 -0.00441926
C 7.66935799 0.75760862 21.01591797 0.00138834 0.00130797 0.00455112
C 1.05939043 6.36039595 29.36302779 0.00550008 0.01053561 -0.00564762
C 3.44856449 12.04418721 19.80002256 -0.00052421 -0.00402739 -0.00178769
C 5.55936315 6.70232781 28.75850504 -0.00273206 0.00072885 0.00757640
C 0.73273291 12.55420684 28.32220411 -0.00048806 -0.00559466 0.00694100
C 7.68302956 6.57438676 20.46027397 0.00077640 -0.00831321 -0.00150387
C 5.27213828 0.52997307 29.18190083 -0.00281745 0.00454577 0.00888642
C 3.37390334 6.10653340 21.16629791 -0.00029356 0.00603589 -0.01011281
C 7.49053627 1.53663663 22.07115086 0.00768685 0.00525470 0.00298192
C 1.31098018 5.67394777 30.56152286 -0.00123674 0.00138921 0.00081887
C 2.92946491 11.31538575 18.79438317 -0.00183941 -0.00231342 -0.00945125
C 5.84966337 7.41145735 27.63695089 -0.00289140 0.00537109 0.00846875
C 1.23078010 11.97672911 27.17796102 0.00627045 0.00537766 0.01099232
C 7.09472214 7.10009885 19.30041947 -0.00035750 0.00997204 -0.00191229
C 5.74024493 1.08874631 30.37230007 0.00065450 -0.00430264 0.01181748
C 3.32743189 5.45087767 22.39970681 -0.00050034 -0.00707778 0.00081053
C 6.61409342 2.68019210 22.02205774 -0.00035565 0.00657896 -0.00112901
C 2.13885875 4.49365003 30.48722094 -0.00522451 0.00076862 0.00080074
C 1.82120408 10.42311396 18.89833031 0.00392735 -0.00630562 -0.00355139
C 6.58365405 8.58957685 27.68091997 -0.00559704 0.00495360 0.00053046
C 2.09206813 10.87086860 27.18844441 0.00122522 -0.00497222 -0.00559440
C 6.22601941 8.20839706 19.43980833 0.00037396 -0.00079854 0.00251194
C 6.61902509 2.21214022 30.30151403 -0.00359569 -0.00419442 -0.00040392
C 2.50341262 4.31549315 22.50070608 -0.00262632 0.00653635 0.00102844
C 6.34654723 3.04148176 20.72469585 0.00424435 -0.01460254 0.00033772
C 2.62104002 3.96468275 29.26570354 0.00433927 0.00431713 -0.00022880
C 1.43044504 10.13402495 20.20076900 -0.00147230 0.00301199 0.00003390
C 6.80499462 9.15810790 28.95860786 -0.00296611 0.00761063 0.00711917
C 2.31034362 10.33349985 28.46959829 0.00145797 -0.00509325 -0.00426082
C 6.24304453 8.88263690 20.67563561 -0.00169456 -0.00779738 -0.00339611
C 6.89247498 2.75071776 29.05824727 -0.00230599 -0.00278155 -0.00661903
C 1.90582311 3.84608771 21.32483948 -0.00631086 0.00206250 -0.00371725
C 6.61309385 2.31013779 19.56759033 0.00077590 -0.00146946 -0.00050220
C 2.31600702 4.69604271 28.13006477 0.00013048 -0.00274248 -0.00114362
C 1.94960896 10.82203269 21.28014068 0.00024767 0.00423205 -0.00163154
C 6.15306656 8.68258431 30.06609870 -0.00266945 -0.00310972 0.00202815
C 1.91615409 10.92515938 29.64333228 -0.00359268 0.00080334 0.00485616
C 6.79810979 8.31156214 21.81353853 0.00293295 0.00203487 0.01143893
C 6.48456036 2.16820532 27.91104049 0.00039561 -0.00214416 0.00538335
C 1.89637286 4.52738359 20.12329415 -0.00349166 0.00771693 -0.00166128
C 7.14713405 1.05143031 19.69782384 -0.00336020 0.00208577 0.00610955
C 1.63060249 5.89521598 28.18568288 0.00046712 0.00252792 0.00404771
C 2.93912194 11.85267954 21.08832251 -0.00129209 0.00317443 0.00077716
C 5.67541443 7.34276441 30.04321514 0.00021562 -0.00000438 0.00581764
C 1.06540280 12.06300597 29.59822074 -0.00044277 -0.00301591 -0.00251160
C 7.38753059 6.98664226 21.78100815 -0.00649750 0.00022152 0.00900879
C 5.64371447 1.03623968 27.92554828 0.00232338 0.00927009 -0.00257062
C 2.59255216 5.73334982 20.02691262 -0.00189047 -0.00569297 -0.00359939
C 6.83730344 0.21720795 17.42224676 0.00086635 -0.00217896 -0.00058217
C 2.03825622 6.44948698 25.80843423 -0.00796632 0.00008554 -0.00803227
C 2.77011080 12.72811180 23.34730318 -0.00444529 -0.00308644 0.00013183
C 5.67256080 6.75748722 32.41891633 -0.00153867 -0.00336430 -0.00247607
C 1.24941135 12.72750921 31.91383381 0.00487431 0.00274334 -0.00429870
C 7.29618617 6.56118967 24.10370122 0.00366717 -0.00499261 0.00079517
C 5.72989983 0.48084265 25.57975749 -0.00621667 0.00272279 -0.00522870
C 2.24590289 6.19853373 17.64787724 -0.00382805 -0.00168160 -0.00046606
C 7.02170505 11.88539223 0.40801285 -0.00445733 -0.00431595 0.00994140
C 1.93512721 7.47939240 24.77664988 -0.00206128 0.00046686 -0.00102567
C 3.16069704 1.10501602 23.84422726 -0.00087498 -0.00807790 0.00632128
C 5.41701881 5.52281623 16.38570881 -0.00265706 -0.00839552 0.00542238
C 0.98660469 1.36843632 15.31347738 0.00439135 -0.00367738 -0.00484886
C 7.46523890 5.50059762 25.15687957 -0.00446011 -0.00359699 -0.00316401
C 5.67353043 11.61426914 25.01359477 0.00087487 -0.00113030 -0.00646085