1920
Time=31000.00000001 pbc="T T T" Lattice="25.54678805 0.00000000 0.00000000 0.00000000 25.75307686 0.00000000 0.00000000 0.00000000 32.92802087" energy=-12252.08588123 virial="-45.34635333 3.30545066 -13.30975991 3.30545066 -71.42633301 -30.44515994 -13.30975991 -30.44515994 -151.20904182" stress="0.00017439 0.00018969 -0.00064736 0.00018969 -0.00101836 -0.00134117 -0.00064736 -0.00134117 -0.00487854" Properties=species:S:1:pos:R:3:vel:R:3
O 5.57266076 2.71159367 6.65996045 -0.00417081 0.00151968 -0.00138509
O 2.67569824 3.86621421 15.34966589 0.00112143 -0.00092174 -0.00176501
O 2.09873988 10.21504453 1.46941259 -0.00761947 0.00630567 0.00205413
O 6.88043249 8.99242598 9.68636336 -0.00703827 0.00009617 -0.00200083
O 2.62655567 10.00036378 9.95535003 0.00739552 0.00380249 -0.00352584
O 5.72300094 8.99124666 1.46281872 -0.00974830 -0.00407002 -0.00456893
O 6.73398234 2.59937008 14.87275817 0.00719821 0.00247588 -0.00391514
O 1.44470563 3.99444238 6.77424254 0.00468394 0.00203306 0.00866991
O 5.96185105 1.10037747 17.03887704 0.00240022 -0.00240618 -0.00235277
O 2.31647647 5.02156373 9.09880636 -0.00079953 0.00024015 -0.00194795
O 2.21070652 11.69881582 7.82297764 0.00216972 0.00069876 -0.00482021
O 6.22690135 7.43428676 32.37549188 0.00133282 0.00451356 -0.00177393
O 1.83874723 11.48573587 32.16047092 0.00163877 -0.01158929 0.00310490
O 6.26677025 7.80368395 7.59212706 0.00033597 -0.00106262 0.00331036
O 6.02108992 1.36649646 8.70672957 -0.00141041 0.00051760 -0.00461955
O 1.81146807 5.36543768 17.33994625 -0.00271840 -0.00899071 0.00567586
O 5.95201125 2.84909202 23.25200293 0.00098993 0.00275113 0.00201262
O 2.76782539 3.79277169 31.65620642 -0.00127515 -0.00104740 -0.00332876
O 1.63911919 9.99479122 17.78263781 0.00158364 -0.00527499 -0.00120256
O 6.68591403 8.99366968 26.15913522 0.00259410 -0.00355435 -0.00169274
O 2.65428487 10.25875114 25.87620397 0.00178026 0.00126055 0.00037935
O 6.32934210 9.12346482 17.51647290 0.00128163 -0.00118179 -0.00100062
O 6.19304122 3.12486789 31.15151140 0.00000594 0.00244714 0.00254064
O 1.84067579 4.05539108 23.50247358 -0.00200146 0.00615581 -0.00782286
O 6.90721048 1.86390883 0.35376823 0.00763845 -0.00103307 0.00062900
O 2.50860974 5.46588720 25.58607207 -0.00359190 0.00119462 0.00311522
O 2.00492135 11.67072256 23.70392910 -0.00661623 0.00181084 -0.00026718
O 6.67206066 7.40573246 15.77820461 -0.00915453 -0.00238337 0.00479756
O 2.18396490 11.68868960 15.93789391 -0.00168730 -0.00054538 0.00205711
O 6.39133948 7.92005885 23.86352418 0.00577724 -0.00071140 -0.00116455
O 6.41961421 1.05942058 25.05093833 -0.00012270 0.00223617 -0.00360877
O 2.23186942 5.38256851 0.56693424 -0.00345231 0.00624026 -0.00252146
O 6.06430546 15.82995258 7.10456465 0.00045027 -0.00837261 0.00020910
O 2.81024831 16.04966568 14.98438889 0.00045447 0.00140207 0.00025109
O 1.74429968 23.17573649 0.89113235 -0.00018790 0.00249007 -0.00563637
O 7.09389025 22.03754942 9.31243356 -0.00194619 0.00035343 -0.00273060
O 2.29878759 23.18673749 9.17010494 0.00135065 0.00581565 0.00352291
O 6.30346051 22.55404953 0.92921858 0.00196112 0.00117669 -0.00174982
O 6.69215074 15.70272067 15.53281367 0.00024190 0.00225643 -0.00285745
O 1.14367452 16.78856908 6.87113492 0.00700424 0.00078111 -0.00214931
O 6.75710095 14.02723064 17.41146642 -0.00344762 0.00294524 0.00696134
O 1.94368461 18.30389379 9.12320424 0.00109267 -0.00241696 0.00426223
O 1.88940433 24.59268999 7.23500093 0.00064462 0.00400366 -0.00525485
O 6.32254307 20.62889548 31.93222957 0.00278241 0.00221602 0.00048410
O 2.08489473 24.62810736 31.74071855 -0.00313476 0.00057068 -0.00089537
O 6.73834007 20.72657721 7.18940573 0.00021117 -0.00815698 0.00469968
O 6.22800164 14.09992105 9.19245133 -0.00500382 -0.00163695 -0.00397951
O 2.58568839 17.55747232 17.18840193 -0.00893238 0.00293249 -0.00507075
O 6.21128337 15.55171669 23.48714463 -0.00320117 0.00452824 -0.00046179
O 3.15676466 16.67832226 31.44634626 0.00453841 0.00024046 -0.00215753
O 1.48685673 22.91456595 17.46156784 -0.00132640 0.00364153 -0.00098068
O 6.94812284 22.39336009 25.77179479 -0.00314779 -0.00606772 0.00063923
O 2.60652549 23.04821624 25.62006840 0.00124146 -0.00266130 0.00116738
O 5.27803193 21.61623135 17.67048070 -0.00189186 -0.00215777 -0.00579379
O 7.08554003 15.45144137 31.82427457 0.00700260 0.00681257 0.00021689
O 1.58980472 16.51568988 23.46441486 -0.00037529 0.00177151 0.00037953
O 6.28419534 14.19703314 0.87968162 -0.00180899 0.00697858 0.00692866
O 2.11959871 18.07537479 25.40929189 -0.00569536 -0.00264723 0.00491993
O 2.10077163 24.58341443 23.53057110 -0.00048734 0.00335723 -0.00183929
O 5.91378224 20.59612728 15.28347773 0.00101986 0.00196257 -0.00481554
O 2.12259631 24.59663432 15.54031419 0.00026872 -0.00061522 -0.00170849
O 6.89936697 20.60878999 23.82594277 0.00071083 0.00937602 0.00285303
O 6.73535900 14.07868973 25.54673995 0.00159813 -0.00399509 0.00668395
O 3.03068914 18.02687437 0.77394737 -0.00053559 0.00013169 0.00612393
O 14.20473641 2.54780050 6.70609795 0.00258258 0.00163099 -0.00411818
O 11.05424433 3.99720575 15.35639130 -0.00023912 0.00038665 -0.00391026
O 10.03461843 10.23886846 1.66541712 -0.00027236 -0.00449790 0.00173368
O 15.25522607 8.90312693 9.63011014 -0.00022633 0.00015691 -0.00136287
O 11.28860998 10.03571622 9.93154692 0.00105143 -0.00522017 -0.00284565
O 13.87424904 9.02219804 1.43693016 -0.00044373 0.00436548 -0.00427402
O 15.43055024 2.37098350 15.05871164 0.00092471 -0.00057069 -0.00163764
O 9.95606713 3.88757145 7.11826715 0.00147432 0.00600063 0.00502946
O 14.59007244 1.09825007 17.08669371 0.00228317 0.00351038 -0.00152323
O 10.58938529 5.18222263 9.12419223 0.00437271 -0.00007145 -0.00396273
O 10.73179665 11.55398085 7.96878884 0.00046817 0.00191021 0.00426990
O 14.09399908 7.81743851 32.07245924 0.00471755 -0.00266196 0.00293857
O 10.46787309 11.79952198 32.57744480 -0.00056728 0.00338346 -0.00387033
O 14.58379943 7.53810831 7.53700537 -0.00094423 -0.00131066 0.00271552
O 14.87826880 1.35124778 8.88734373 -0.00088874 -0.00387817 -0.00840987
O 10.65148362 5.55251575 17.37931126 -0.00634193 0.00109211 0.00504762
O 14.81684386 3.05657480 23.13358005 -0.00446721 -0.00667674 -0.00316851
O 11.31667955 3.86973539 31.70935457 0.00058675 0.00074259 0.00318349
O 10.38315356 10.60356130 18.06281359 -0.00248723 0.00161780 0.00309483
O 15.43242499 9.26008205 25.96156171 -0.00064633 0.00697876 0.00776060
O 11.12274817 9.70608279 26.64081216 0.00099437 -0.00359375 0.00377022
O 14.41805380 9.10135992 17.61364262 -0.00432366 0.00084887 -0.00337768
O 15.67781144 3.10108897 31.24977896 -0.00115595 -0.00235743 0.00081987
O 9.73727906 3.77576710 23.15075962 -0.00400625 -0.00148103 0.00464500
O 15.26812836 1.39191944 0.38053677 0.00512115 -0.00814851 0.00124448
O 10.05641286 5.15506091 25.50218505 -0.00454508 0.00182727 -0.00181336
O 11.03885703 11.12216680 24.44403802 0.00156397 -0.00547687 0.00543298
O 14.75972755 7.36938264 15.74585648 0.00056150 0.00057752 -0.00477923
O 10.84066851 11.97341914 15.89847651 0.00166362 0.00092311 -0.00057694
O 14.43918673 7.92377607 24.09310741 0.00271903 0.00181128 -0.00248030
O 14.74302768 1.05396035 25.06300496 0.00238453 -0.00145607 0.00584458
O 10.75016246 5.02294073 0.95744320 -0.00222521 0.00391865 0.00174886
O 14.00411408 15.80411021 7.11917580 -0.00051048 -0.00007111 -0.00334989
O 10.80878586 16.96472139 15.51289176 -0.00404141 0.00314350 -0.00336125
O 9.75845920 23.40721860 1.01529621 0.00288622 0.00279821 0.00294839
O 15.52613144 22.16514085 9.94719272 -0.00208691 -0.00354498 -0.00088054
O 11.33220486 23.28151446 9.40048111 -0.00346243 0.00510276 0.00334009
O 14.71478820 22.47988081 1.56645356 -0.00452067 -0.00327410 0.00524145
O 15.54303504 15.27434949 15.82736401 -0.00358335 0.00122716 -0.00209377
O 10.36521967 16.47621720 7.15525686 -0.00110594 -0.00003762 0.00244609
O 14.65685438 13.92240066 17.92219693 0.00020003 0.00288312 0.00539523
O 10.14705480 18.17802496 9.15432675 0.00191466 0.00282849 0.00267691
O 10.95813503 24.36305236 7.07550232 -0.00071833 -0.00261163 -0.00222912
O 14.80527087 20.79528900 32.47149342 0.00417338 0.00087850 -0.00676164
O 10.45867959 24.61210401 31.83610592 0.00480129 0.00025405 0.00190463
O 15.20576785 20.68517395 7.67943873 0.00248742 0.00156361 -0.00383870
O 14.74887217 14.22616633 9.53716121 0.00090673 -0.00027831 0.00094185
O 9.90946560 18.33768702 17.57403515 -0.00263531 -0.00166138 0.00134546
O 14.23345380 15.12806867 23.99177343 -0.00685406 -0.00429188 0.00365463
O 11.41188378 16.83370113 32.21127343 -0.00302962 -0.00589091 -0.00245176
O 9.63083069 23.14474660 17.72397863 0.00745810 0.00022306 0.00501782
O 15.39887483 21.78395195 26.07695837 0.00077276 -0.00242954 -0.00106569
O 11.32504991 22.96114135 25.74048467 -0.00237966 0.00175044 -0.01131040
O 13.96901252 22.15827543 18.05228895 -0.00287181 0.00323512 -0.00058026
O 15.44418872 15.30114786 32.08646828 0.00170758 0.00031770 -0.00440330
O 10.50188406 16.35434932 23.60379558 -0.00026718 0.00108667 0.00530416
O 14.60849001 13.85313273 1.15922576 0.00438902 -0.00344340 0.00196004
O 11.17028490 17.97286896 25.84332714 0.00213782 -0.00078358 0.00056693
O 10.90327368 24.59480278 23.83631281 0.01002947 0.00465673 0.00166704
O 14.28176655 20.41270686 15.90133331 -0.00638704 -0.00664333 -0.00105678
O 10.11349943 24.73161445 15.74059124 -0.00431504 0.00641172 0.00429915
O 14.85385035 20.10460260 23.98679709 0.00480034 -0.00016147 -0.00461220
O 15.44794276 14.00091836 25.89139516 0.00616572 -0.00081274 -0.00182391
O 10.58316684 18.46314833 1.03374899 -0.00413331 -0.00061650 0.00268728
O 23.25679553 2.91113595 6.43686219 0.00178483 0.00139484 0.00145799
O 19.58151354 3.72908251 15.15375345 0.00466089 0.00105467 -0.00448616
O 19.13180866 9.75085457 1.59387487 -0.00190242 0.00180791 -0.00054101
O 23.96862757 9.10570658 9.62570728 0.00065734 0.00418849 -0.00030609
O 19.04282971 10.27985916 9.68070749 -0.00180551 -0.00468717 -0.00106773
O 23.28256094 9.09329622 1.25475027 -0.00324011 -0.00265884 -0.00155908
O 23.73524762 2.37534633 15.05244969 -0.00006047 0.00200107 0.00122243
O 18.47940988 3.97326411 7.45217763 -0.00103858 -0.00057712 0.00642701
O 22.93866536 0.88298993 16.86636085 0.00028251 0.00243014 -0.00348578
O 19.45309651 5.49168208 9.17218641 -0.00203237 -0.00187729 -0.00242542
O 18.92893307 11.96029267 7.67251119 0.00366707 0.00661949 0.00415096
O 23.62803900 7.45103594 32.12294609 0.00401409 0.00617202 -0.00214864
O 18.93302656 11.50002604 32.67275972 -0.00020114 -0.00695734 0.00275352
O 23.44790808 7.72919131 7.44532910 0.00491438 -0.00337857 -0.00031479
O 23.03420523 1.40706112 8.51244376 0.00050972 -0.00592540 0.00441649
O 19.37692579 4.91790407 17.39093735 -0.00518147 0.00591184 -0.00112020
O 23.23187929 3.11939675 22.73565137 0.00319612 0.00128920 -0.00390655
O 19.90196354 4.00233768 31.81500554 0.00452544 -0.00294010 0.00200247
O 18.81570631 10.00590399 17.92665267 0.00173405 -0.00115721 0.00674491
O 24.34826837 8.83685554 26.30573274 0.00264960 0.00900551 -0.00481207
O 19.84187154 9.97544623 26.61729806 -0.00907158 0.00021783 -0.00148847
O 22.90306750 9.08276120 17.57611154 -0.00118999 0.00364395 -0.00097859
O 23.69019928 2.74027898 31.31508408 -0.00231397 -0.00264537 0.00190165
O 18.65135944 3.91607542 23.71512049 -0.00185912 -0.00019525 0.00610097
O 23.00839319 0.80088869 0.28265197 0.00282311 0.00165253 0.00024578
O 19.26214325 5.21230842 25.74164526 -0.00303530 -0.00265430 -0.00244780
O 19.41204818 11.26009134 24.29662419 -0.01191664 -0.00216808 -0.00240101
O 23.46647516 7.21609297 15.79939282 0.00218452 -0.00053552 0.00180697
O 19.50836343 11.83354220 16.04100875 0.00436548 -0.00160623 -0.00093920
O 23.56705841 7.96510763 23.97895711 -0.00180374 -0.00374670 0.00006000
O 23.25716004 1.40964121 24.90402283 0.00401227 -0.00197543 -0.00457638
O 19.27916540 4.92882799 1.11670560 -0.00012595 0.00476244 0.00468563
O 23.05106193 15.85552780 6.83386233 0.00304033 -0.00446848 0.00293324
O 19.78660143 16.62948208 14.95208150 0.00308307 -0.00248970 0.00349085
O 18.49118914 23.11078618 1.29137853 -0.00004059 0.00105415 0.00018208
O 23.66198602 22.33073967 9.48877378 -0.00140174 0.00635954 0.00464883
O 19.88226745 23.37731023 9.01591402 0.00964225 -0.00220020 -0.00297587
O 22.83514956 21.84255585 1.28179682 -0.00452690 -0.00119766 -0.00436725
O 24.14760200 15.41742711 15.21968277 -0.00207809 -0.00653761 0.00076200
O 18.40585070 16.59565076 6.58159123 0.00187425 0.00454971 -0.00093881
O 23.54312955 14.21789239 17.28596140 -0.00146363 0.00718719 -0.00766391
O 18.91926340 18.07806568 8.65026948 0.00647019 -0.00547469 -0.00314398
O 18.84905103 24.80018954 7.16146223 0.00658748 0.00243772 -0.00063324
O 23.07176214 20.33568419 31.80389013 -0.00045603 -0.00551830 -0.00232947
O 19.09165465 23.88855821 31.72986301 -0.00619554 0.00272296 0.00047021
O 23.53446136 20.67415465 7.56278345 -0.00094445 -0.00807690 -0.00421999
O 23.27738623 14.09275676 9.11428233 -0.00039876 -0.00081190 0.00387377
O 19.29031081 18.08867804 17.06472892 -0.00178842 0.00350891 0.00428846
O 23.07123040 15.60977854 23.56757452 -0.00124111 0.00257857 0.00198598
O 19.57836029 16.11752287 31.53581528 -0.00296392 0.00577195 -0.00253664
O 18.17367675 23.08073385 17.37811590 -0.00248389 0.00190139 0.00258049
O 23.63948133 22.33901964 25.72757822 -0.00165535 -0.00249243 -0.00016888
O 19.73070493 23.01805204 25.22643704 0.00304167 -0.00083691 0.00103084
O 22.93622994 22.07026598 17.51293459 -0.00154937 -0.00771356 -0.00243788
O 24.34178488 15.53280309 31.56785511 0.00406489 -0.00399925 0.00457321
O 18.99166636 16.29642139 23.24435030 0.00059680 0.00133912 -0.00303129
O 23.34161939 13.99418956 0.88853534 -0.00462909 -0.00227083 0.00335045
O 19.03852816 17.85989475 25.31560053 0.00470441 0.00268859 0.01033693
O 19.05257953 24.68820928 23.33978637 0.00479360 0.00193111 0.00437695
O 23.48581864 20.40953742 15.62670806 0.00204992 0.00411715 -0.00139419
O 19.20187272 24.15892499 15.29553044 -0.00513548 0.00470963 0.00357124
O 23.36373999 20.59208352 23.69546129 0.00156931 -0.00175080 -0.00274890
O 23.39876923 13.83515301 25.59383179 0.00350357 -0.00036440 0.00343440
O 18.99055122 17.89722165 0.35341927 0.00490623 0.00572846 -0.00121877
N 7.47534589 13.08853366 2.52208660 -0.00543535 -0.00095060 0.00130150
N 0.97074428 6.08448366 10.61568956 -0.00471857 -0.00301617 -0.00326051
N 3.11754102 0.01490528 5.66619960 0.00680596 -0.00003384 0.00109150
N 5.27964462 6.37063459 14.26999492 -0.00500937 0.00206074 -0.00782989
N 1.03880960 0.05116588 13.94378744 0.00061976 -0.00321030 0.00186202
N 7.49854658 6.60967831 6.10402513 0.00850938 -0.00265886 -0.00504681
N 5.22746772 12.98124061 10.95921229 0.00392767 -0.00029672 -0.00085027
N 3.31762433 6.56538207 2.22775032 0.00109595 -0.00682861 0.00431679
N 7.72140261 12.62373242 18.92649549 -0.00325485 -0.00925243 -0.00059963
N 0.93093333 6.24053949 27.02896246 -0.00032700 0.00421252 0.00364216
N 3.24209327 0.02728054 21.90595018 -0.00649093 -0.00533387 -0.01059624
N 5.34689380 6.15467593 30.80873770 0.00291639 0.00148281 0.00060598
N 0.83071347 25.72337873 30.14621130 -0.00170851 0.00290517 -0.00036360
N 7.37277992 6.53700967 22.39647184 -0.00140096 -0.00186848 -0.00248089
N 5.38971352 13.12704616 27.04983668 -0.00150798 0.00431967 -0.00180447
N 3.27373778 6.46695803 18.68641359 -0.00086555 0.00046428 0.00788025
N 7.74918913 0.47451477 2.08969730 -0.00303193 0.00089665 0.00153981
N 0.83239483 19.35091165 10.92550093 -0.00603969 0.00419782 0.00256244
N 3.25829183 12.88040836 6.23798842 0.00653302 0.00032176 -0.00678526
N 4.81582796 19.54398266 13.58622180 -0.00370178 -0.00064522 -0.00062571
N 1.17697167 12.92429881 14.35246174 0.00059734 0.00664037 0.00337074
N 7.71067018 19.57799847 5.47687477 -0.00442517 -0.00345525 -0.00440416
N 5.25952125 25.71089776 10.27489355 -0.00051748 -0.00060168 0.00008472
N 3.65298652 19.35733240 2.54534432 0.00095390 -0.00317844 -0.01197442
N 7.41629178 0.14715623 18.65615690 0.00255767 -0.00433047 -0.00262845
N 0.85413557 18.97514767 27.04565844 -0.00037611 0.00506035 -0.00607756
N 3.44766394 12.72255567 22.33365457 -0.00191041 0.00322048 -0.00145633
N 5.40366005 19.47009117 30.20475707 0.00286314 -0.00321225 -0.00069290
N 1.13555132 12.78649925 30.47949804 0.00515875 0.00365912 0.00102943
N 7.74399572 19.46184983 22.07678346 0.00508704 0.00266305 0.00239038
N 5.25530333 25.63441665 26.67267042 -0.00400939 0.00044240 0.00278256
N 3.32004766 18.99564317 18.89125658 -0.00257700 -0.00070782 0.00045811
N 16.12839238 13.19980495 2.74172688 -0.00040007 -0.00012210 0.00509090
N 9.38879660 6.29518722 10.68461193 0.00360194 -0.00045487 0.00641654
N 11.84209708 25.68901050 5.51505343 0.00118743 -0.00799876 -0.00200138
N 13.58106712 6.26748328 14.14598949 0.00133005 -0.00088635 0.00217054
N 9.23391224 0.08776608 13.87478235 0.00266757 0.00607338 -0.00128444
N 16.04385047 6.65996093 5.94662685 -0.00867262 -0.00491707 -0.00598384
N 13.46636757 13.15528469 11.04526647 0.00048730 -0.00590843 -0.00007844
N 11.68019570 6.39178804 2.51988222 -0.00488771 -0.00376183 -0.00420794
N 16.27657382 13.03628662 19.30684992 -0.00269471 0.00431381 -0.00383355
N 9.52113593 6.53769957 27.21559509 -0.00844151 0.00229440 -0.00433691
N 11.96632656 25.64896301 22.08532340 0.00043701 -0.00164286 -0.00059612
N 13.78781460 6.39846110 30.34775115 0.00145704 -0.00046015 -0.00450155
N 9.60538489 0.08665881 30.14779469 0.00098641 0.00162961 0.00021945
N 16.05629660 7.12015312 22.62764203 -0.00404263 -0.00280191 0.00494609
N 13.98233635 12.85322000 27.32877576 -0.00289002 0.00642370 0.00586304
N 11.66808099 6.63063838 19.11540981 -0.00605377 -0.00210858 -0.00200485
N 16.02987535 0.07458338 2.14656684 -0.00578477 0.00318028 -0.00227332
N 9.09379954 19.31909165 10.82953470 -0.00458273 -0.00634643 0.00671055
N 11.55830533 12.81183932 6.35068755 0.00078623 0.00027913 0.00071661
N 13.63739624 19.20227941 14.14063653 0.00521806 -0.00415759 -0.01050808
N 9.60605341 13.09629603 14.30028531 0.00180483 0.00318642 0.00643510
N 16.10023385 19.49514654 5.99929959 0.00225077 -0.00199123 -0.00314531
N 13.71414978 25.73182817 10.30075334 0.00248756 -0.00470368 -0.00394053
N 11.95064738 19.23215985 2.75116203 -0.00118413 0.00115319 0.00089182
N 16.03042497 0.09576011 18.57125618 -0.00925789 0.00033509 -0.00729881
N 9.81728927 19.11942229 27.29755984 0.00214944 0.00480257 -0.00767480
N 11.99449606 12.57754452 22.92552114 0.00288679 0.00475656 -0.00416790
N 14.15491862 19.19084465 30.84171126 0.00020198 -0.00000619 -0.00323686
N 9.79143099 13.18681391 30.84097832 -0.00157379 0.00425402 -0.00287015
N 16.04059208 19.10928725 22.29104146 0.00105941 0.00168943 -0.00279832
N 14.06197649 25.66153570 26.99089595 -0.00393622 0.00182993 0.00073999
N 11.43206692 19.19753792 18.93445430 -0.00461142 0.00305044 -0.00303452
N 24.71414138 13.07918822 2.42513038 0.00501226 0.00446687 0.00162941
N 17.96982543 6.44512146 10.62787514 0.00187267 -0.00046100 -0.00176760
N 20.39546134 25.72356337 5.76676709 0.00820388 -0.00057648 0.00430701
N 22.10492573 6.44138355 14.09166219 0.00108107 0.00976442 -0.00044579
N 17.97080814 25.26945303 13.74588279 0.00286535 0.00129136 0.00005084
N 24.50465101 6.40144213 5.95151689 0.00663281 0.00015964 -0.00257001
N 22.33815262 12.86434630 10.79013455 -0.00322752 -0.00660564 0.00048932
N 20.29343784 6.27399950 2.67486279 0.00332143 0.00293574 0.00291171
N 24.77705211 13.10571057 18.83055437 0.00364291 -0.00184984 0.00223716
N 17.88551162 6.32475236 27.20010657 0.00146581 0.00202952 0.00108513
N 20.07446662 0.04886178 21.68910884 -0.00204972 0.00460731 -0.00771236
N 22.19827061 6.35401914 30.67859042 0.00016478 -0.00016590 -0.00373154
N 18.41884685 25.41084790 30.12763481 0.00256980 0.00226370 -0.00664081
N 24.74655594 6.83559017 22.36197738 0.00421730 -0.00198022 0.00617268
N 22.24760930 12.79547682 27.21666439 -0.00081126 -0.00064931 -0.00873917
N 20.37151340 6.22049202 18.92137593 0.00187277 -0.00106944 0.00105315
N 24.29469611 25.59645771 1.89591997 0.00562468 0.00759194 -0.00894073
N 18.18874081 19.33393334 10.46422778 0.00752062 -0.00867683 0.00387650
N 20.05891533 13.07452472 6.04559458 -0.00001505 -0.00148663 0.00139525
N 22.36839892 19.26602545 13.99050707 0.00412405 -0.00121263 -0.00337143
N 18.15696296 13.03938769 14.48526176 0.00344040 -0.00139539 -0.00730567
N 24.32674495 19.29125449 5.88408926 -0.00105605 0.00466006 -0.00460945
N 22.20423285 0.11823711 10.22317148 -0.00297563 -0.00104894 0.00829411
N 20.32875241 18.92515010 1.97175861 -0.00348615 -0.00309903 0.00097749
N 24.47679209 25.69044821 18.30888251 -0.00172259 -0.00550107 0.00305822
N 18.16654717 19.06234247 27.01055854 -0.00293019 0.00371821 0.00087419
N 20.34851950 12.56613880 22.67270369 0.00229048 -0.00026671 0.00589420
N 22.58059561 18.98618301 30.00163911 -0.00414072 -0.00060690 0.00659549
N 18.03594359 12.78617085 30.97108203 -0.00130408 0.00608722 0.00374132
N 24.60765093 19.46028466 22.11361449 0.00045463 0.00331407 -0.00232487
N 22.42091924 0.01673988 26.46348924 -0.00130352 -0.00109181 -0.00346469
N 20.25361260 19.32959112 18.79918904 -0.00361660 -0.00256643 -0.00060748
C 7.48469789 0.49756363 4.49643288 -0.00270229 0.00505522 -0.00178382
C 0.79535551 5.86444203 12.98388965 0.01013217 0.00163869 -0.00181274
C 3.10336901 12.82558042 3.83328810 0.00533945 0.00085702 -0.00358944
C 5.01038768 6.77471703 11.83203433 -0.00103657 0.00112808 0.00162846
C 0.88776977 12.49061480 11.99917539 -0.00263703 0.00277328 -0.00273898
C 7.46447438 6.78152779 3.70316831 0.00486207 -0.00055075 0.00581438
C 5.11924305 0.16503155 12.65273532 0.00139447 0.00473151 0.00346917
C 3.44095398 6.14490843 4.57639906 -0.00078129 0.00284755 -0.00260022
C 7.00416898 1.07495313 5.57648530 -0.01250103 -0.00298787 0.00537996
C 1.24834780 5.37935231 14.17436674 -0.00416153 0.00304682 0.00476798
C 2.93250520 12.09192948 2.68460138 0.00411442 -0.00419348 -0.00774397
C 5.34871565 7.48711468 10.72658560 0.00360017 -0.00043470 -0.00642323
C 1.32746688 11.78482735 10.89488235 0.00424580 -0.00046426 -0.00089361
C 7.12790473 7.37089254 2.52054759 0.00326493 0.00186092 0.00235923
C 5.48069828 0.91008048 13.84992609 -0.00009151 0.00265581 -0.00887309
C 3.04339638 5.49631679 5.68978001 0.01462017 -0.00777364 0.00210777
C 6.23570714 2.29106871 5.57746685 -0.00327569 -0.00048942 0.00732400
C 2.18489951 4.31339918 14.13842925 -0.00552249 -0.00196870 -0.00222943
C 2.24655021 10.81944488 2.63343882 0.00556853 -0.00357776 0.00287279
C 6.27028968 8.52155843 10.78125132 0.00279168 0.00709107 0.00598277
C 2.09073388 10.57506114 11.03396100 0.00102765 0.00119781 -0.00224791
C 6.36019659 8.55241802 2.57580371 0.00412032 -0.00128767 -0.01089886
C 6.24486354 2.08160716 13.75316374 0.00043423 0.00249106 -0.00408583
C 2.10726183 4.46989320 5.73633591 0.00080981 -0.00127036 -0.00662196
C 6.10816538 2.83948633 4.33576484 -0.00140720 0.00428626 0.00105349
C 2.37552258 3.57413287 12.95817503 0.00399917 -0.00706066 0.00097009
C 1.99786327 10.23757222 3.88462137 -0.00710679 0.00516907 -0.00492455
C 6.69899541 8.92542804 12.00967389 0.00670295 0.00139528 0.01294111
C 2.32848961 10.06882197 12.32371859 0.00308023 -0.00133023 0.00308007
C 6.13533021 9.20052456 3.82106406 0.00202241 0.00045431 -0.00219487
C 6.32973226 2.71631833 12.47624330 -0.00396248 0.00568499 0.00480982
C 1.93962838 3.86944709 4.45224744 -0.00682280 -0.00319797 0.00002993
C 6.59621956 2.33286955 3.15665548 -0.00419755 -0.00616614 0.00202323
C 1.97816366 4.14215421 11.74357441 0.00294937 0.00577437 0.00125511
C 2.32123633 10.86335224 5.05898912 -0.00387303 -0.00274754 0.00072930
C 6.40546852 8.25300804 13.18272094 -0.00380409 -0.00249008 0.00184069
C 1.89619366 10.82679786 13.37535275 -0.00093364 0.00233863 -0.00314825
C 6.70496684 8.65205860 4.98887251 -0.00227494 -0.00129141 -0.00133811
C 5.91514069 2.02979269 11.33689120 -0.00507026 -0.00138385 -0.00124862
C 2.30735100 4.49431813 3.24793306 -0.00114377 0.00816841 0.00598307
C 7.29835753 1.07669718 3.18817073 -0.00881464 0.00070837 -0.00218989
C 1.28487124 5.34663842 11.78339387 0.00055084 -0.00592369 0.00149625
C 2.87569829 12.14211615 5.05032905 0.00118794 -0.00360586 -0.00300125
C 5.54467692 7.16585924 13.12170143 -0.00821472 -0.00391033 0.00276709
C 1.29377415 12.07925672 13.26854948 -0.00466607 0.00134204 0.00477033
C 7.19748274 7.35338255 4.97391566 -0.00141105 -0.00094964 -0.00790086
C 5.45449077 0.71027952 11.40386329 -0.00185861 0.00615758 0.00109770
C 2.92881525 5.69139318 3.33963310 0.00002744 -0.00578549 0.00102423
C 7.27337594 0.74917200 0.81239245 0.00825213 0.00258541 -0.00322907
C 1.58980095 5.98178028 9.39706361 0.00720059 0.00366223 0.00251194
C 2.69666768 12.77108840 7.46032534 -0.00671196 -0.00027651 -0.00864223
C 5.91558002 6.51633557 15.42488370 0.00174962 0.00040400 -0.00269605
C 1.62710890 12.73028685 15.65400880 -0.00196532 -0.00093815 0.00395188
C 6.89116633 6.80289798 7.31019325 0.00822859 -0.00646750 -0.00170017
C 5.62889068 0.23381861 9.02352001 -0.00426008 0.00346223 -0.00399954
C 2.78562575 6.41282742 0.95613798 0.00179852 -0.00252603 0.00053637
C 7.46317628 11.79580410 16.75142063 0.00306380 -0.00100360 0.00146281
C 1.34743996 7.04456115 8.42885194 0.00327351 -0.00979806 -0.00504554
C 2.57013162 1.08221906 7.81278445 -0.00232814 -0.00048248 -0.00044466
C 5.56872947 5.25077147 0.15334935 -0.00647756 -0.00177360 -0.00386454
C 1.02002102 0.91074582 32.34276436 0.00085187 -0.00291013 -0.00596163
C 6.97331671 5.61916642 8.27622290 0.00247550 0.00641974 0.00207088
C 5.66565983 11.74570315 8.91066614 0.00142445 0.00145995 0.00090420
C 2.83236699 7.53429176 16.58646016 0.00200001 0.00141278 0.00211321
C 7.55522080 0.59561994 20.99343534 0.00984520 0.00682966 0.00722981
C 0.86507626 5.93886739 29.50678127 -0.01130719 -0.00076171 -0.00131405
C 3.50701815 12.34004210 19.91899696 -0.00553838 0.00371553 -0.00005167
C 5.11252592 6.68146952 28.47654233 -0.00083681 0.00621885 -0.00012302
C 0.99425708 12.47853556 28.14392285 -0.00119412 0.00019003 -0.00210813
C 7.64863467 6.76795578 19.97204545 0.00090901 0.00461165 0.00517721
C 5.20426082 0.36324363 29.07732245 0.00218348 0.00452721 0.00020308
C 3.52957685 6.21429704 21.08804957 -0.00262709 -0.01033777 -0.00224422
C 7.15454142 1.19484575 22.12724697 0.00197846 -0.00219720 -0.00256219
C 1.26396267 5.31935322 30.63448172 -0.00605114 0.00354301 0.00469758
C 3.06953487 11.64782519 18.82134796 -0.00488951 -0.00199511 -0.00227299
C 5.50460351 7.28470396 27.29438655 0.00514771 -0.00658842 0.00081849
C 1.32050259 11.82466606 26.99438737 -0.00349421 0.01268080 -0.00098031
C 7.38523718 7.34785755 18.71930794 -0.00389909 -0.00050424 0.00214711
C 5.37938131 1.24100211 30.14130287 -0.00737332 0.00044118 0.00554647
C 3.11700208 5.64078809 22.28522630 -0.00031100 -0.00703250 0.00813043
C 6.38151915 2.35282342 22.07803975 0.00341442 -0.00112621 0.00377589
C 2.13725369 4.19487346 30.56334162 0.01184612 -0.00101572 0.00202842
C 2.14425213 10.55398073 18.87545737 -0.00749563 -0.00480812 0.00320406
C 6.30048257 8.47950164 27.34294893 -0.00119373 0.00028339 0.00239988
C 2.11933589 10.71542596 27.01902187 0.00370707 0.00484679 0.00337030
C 6.63055414 8.57420897 18.68998082 -0.00148330 0.00194550 -0.00074602
C 6.02926921 2.40334353 30.01033767 0.00154118 0.00231943 0.00307207
C 2.33300166 4.52542654 22.29345016 0.00200417 -0.00421162 0.00331110
C 6.03974929 2.87106137 20.78074471 0.00108635 -0.00472824 -0.00596704
C 2.36290620 3.56770037 29.31255169 -0.00236886 -0.00576838 0.00263288
C 1.94806208 10.02898460 20.19630077 -0.00660280 0.00710538 0.00455858
C 6.63465566 8.97901022 28.61579000 0.00136443 0.00436578 -0.00270239
C 2.46911771 10.11815398 28.24463742 -0.00059592 -0.01105548 0.00341971
C 6.25125699 9.16206835 19.90074380 -0.00167544 -0.00034877 0.00154609
C 6.53197332 2.76339849 28.74251620 0.00045246 -0.00386168 0.00401231
C 2.07518529 3.83848198 21.04095763 -0.00389733 0.00215374 -0.00265689
C 6.39588355 2.14352014 19.66422977 0.00321708 -0.00206056 -0.00608881
C 1.86380130 4.17447305 28.08175400 -0.00130509 -0.00859438 0.00230683
C 2.33533061 10.74271732 21.31004205 -0.00544217 -0.00320666 0.00487592
C 6.27749909 8.27367221 29.80643596 0.00393657 0.00299360 -0.00409263
C 2.03180306 10.72056434 29.42190067 -0.00376073 0.00368917 0.00667317
C 6.55877482 8.54894507 21.11177585 0.00030717 0.00569075 0.00308892
C 5.99235661 2.00975436 27.64025259 0.00116789 0.00555945 0.01198470
C 2.34499060 4.53528514 19.89811263 -0.00448534 0.00608998 -0.00488248
C 7.05920335 0.93657438 19.75249467 -0.00462215 -0.00245057 0.00035202
C 1.20306224 5.44044394 28.17189378 0.00364257 0.00305719 0.00562265
C 3.12582133 11.94923336 21.17036779 0.00044530 -0.00234377 0.00610513
C 5.61694303 7.01400752 29.74544104 -0.00196911 0.00309072 0.00907368
C 1.42753476 11.99184822 29.35558493 0.00430897 -0.00412962 -0.00544931
C 7.19145432 7.29989959 21.20126292 0.00499117 -0.00149104 -0.00220541
C 5.47821801 0.73302056 27.77021343 -0.00073117 0.00165080 -0.00197959
C 3.00407844 5.75621911 19.89016303 0.00846129 -0.00189489 0.00418579
C 6.79322605 0.23311264 17.43684550 -0.00268674 0.00431046 -0.00036788
C 1.67451401 6.33103559 25.88714835 0.00135422 -0.00272224 -0.00476470
C 2.78267421 12.61716882 23.46683748 -0.00496439 -0.00108815 0.00085722
C 5.71045877 6.37441798 32.07044531 -0.01236086 -0.00003974 -0.00161821
C 1.62246606 12.61007726 31.73619598 0.00456052 0.00131062 0.00129583
C 6.75402721 6.80821964 23.57784862 -0.00374046 -0.00290294 0.00199525
C 5.77908672 0.02491844 25.44544185 0.00550662 0.01089315 0.00494375
C 2.55136231 6.31940464 17.56857918 -0.00448938 -0.00386588 0.00274199
C 7.10395062 11.90869580 0.53022081 -0.00825414 -0.00154066 0.00200179
C 1.48035852 7.57686386 24.96285822 -0.00619750 -0.00888282 -0.00612958
C 2.65476225 1.16338830 24.09563436 -0.00206552 -0.00447111 0.00327009
C 5.70388293 5.26362094 16.18873598 0.00234341 -0.00227617 -0.00323451
C 1.43090898 0.92653256 16.23484200 0.00064471 -0.00790276 0.00234093
C 6.85187135 5.59547832 24.48416150 -0.00319023 0.00190573 0.00013559
C 5.89405927 11.92623597 25.03659354 0.00662029 -0.00185113 -0.01099253