1920
Time=28000.00000000 pbc="T T T" Lattice="25.63777706 0.00000000 0.00000000 0.00000000 25.55981999 0.00000000 0.00000000 0.00000000 32.96095961" energy=-12251.75648057 virial="-51.30277311 -2.75751491 4.21970902 -2.75751491 -51.61168916 7.56632042 4.21970902 7.56632042 -65.32573811" stress="-0.00026765 -0.00006518 0.00015970 -0.00006518 -0.00019723 0.00037420 0.00015970 0.00037420 -0.00083665" Properties=species:S:1:pos:R:3:vel:R:3
O 5.74924760 2.81219644 6.99709828 -0.00031080 0.00143245 -0.00004904
O 2.30758862 3.50466012 15.22885807 0.00273113 -0.00015196 -0.00292942
O 1.39549280 10.32670671 1.40920480 0.00619358 0.00062558 -0.00023652
O 6.83571877 8.83420409 9.05077788 0.00265905 -0.00122936 -0.00117300
O 3.05087034 10.03764247 9.67870607 -0.00254571 -0.00469140 0.00017781
O 6.19525298 9.34014293 0.72344119 -0.00177620 0.00365106 0.00503174
O 6.71667236 2.81929940 15.28097336 0.00298954 -0.00333859 0.00215089
O 1.50066745 3.63906445 6.94131406 -0.00054304 0.00219849 -0.00452780
O 6.67003562 1.39155531 17.51805631 0.00215071 -0.00136554 0.00496436
O 1.82181071 4.87947126 9.09049866 0.00223848 0.00221900 -0.00228137
O 2.69504759 11.59585385 7.61397667 -0.00299517 -0.00124132 -0.00712821
O 6.37579972 7.60183887 31.80017587 0.00204178 0.00499455 -0.00274396
O 1.91238587 11.26593665 31.98209918 0.00474153 -0.00500257 0.00040914
O 6.04394783 7.70864387 6.89654973 0.00107289 -0.00387688 -0.00356908
O 6.23551184 1.36150211 8.98416487 -0.00332923 -0.00340946 -0.00184764
O 2.48005901 5.36505087 17.09905478 0.01107025 -0.00367794 0.00719032
O 5.60555705 2.57927856 23.61087952 -0.00039364 -0.00023978 -0.00275761
O 2.34236450 3.80187331 31.88781161 0.00031235 0.00229377 0.00514328
O 1.07439284 10.40424989 17.63318093 0.00638851 -0.00101774 -0.00071028
O 7.38013245 8.45303896 25.66785521 0.00424515 -0.00456301 -0.00199637
O 2.57489484 9.52537777 25.83114995 -0.00576495 -0.00265038 -0.00315415
O 5.85141420 8.95662356 17.43612516 -0.00366991 -0.00022703 -0.00212241
O 6.47120020 2.75179368 31.84447002 0.00009727 0.00024751 -0.00228004
O 1.42592106 3.98814540 23.35385811 0.00432285 -0.00088076 0.00115670
O 6.38983640 1.18213672 0.88643285 -0.00851552 0.00149902 -0.00089668
O 2.29448786 4.87314345 25.60324811 0.00126208 -0.00008753 -0.00046432
O 2.56306302 11.08565640 23.66426913 0.00121865 -0.00351337 -0.00257337
O 6.48264087 7.66601498 15.42354184 -0.00378080 -0.00368110 0.00305033
O 1.86411877 11.55083984 15.52576755 0.00179641 -0.00555262 0.00594429
O 6.29355843 7.21165923 23.72882132 -0.00050200 0.00334566 0.00239028
O 6.57353657 1.23944306 25.62473866 -0.00035751 0.00411017 -0.00199583
O 2.05127763 5.54416908 0.90584410 -0.00044962 -0.00375847 -0.00639609
O 6.16171938 15.26720219 6.85181627 -0.00185188 -0.00925765 0.00310654
O 2.65123729 16.64824926 15.65552950 -0.00105396 0.00316155 -0.00173790
O 1.74182992 22.92819590 1.52904298 0.00223497 -0.00267727 -0.00178406
O 6.90692867 21.81932700 10.09603118 0.00161162 -0.00062146 0.00497436
O 2.96717351 23.26773485 9.62446012 0.00121900 -0.00424266 -0.00348534
O 6.17501811 22.19980602 1.88510333 0.00279740 -0.00865372 0.00716324
O 6.46743269 15.93906472 15.20865232 0.00323374 0.00499901 -0.00408221
O 1.23520607 16.77599725 7.13657616 -0.00011918 -0.00094927 0.00582522
O 6.43108578 14.06652122 17.17130276 -0.00337574 -0.00704291 -0.00573775
O 2.16847258 18.13477242 9.42984027 -0.00457819 -0.00316841 0.00586900
O 1.90254001 24.36107069 7.51310929 -0.00483945 0.00717038 0.00022548
O 6.17530552 20.58220853 32.65710764 0.00814398 -0.00497277 -0.00100937
O 2.03402541 24.26208969 32.27878329 -0.00023040 0.00151389 -0.00041009
O 6.90320587 20.46143213 7.96282439 -0.00114464 0.00053702 0.00309307
O 6.66440154 13.88933293 9.41678008 0.00136355 0.00207465 0.00080648
O 1.83512595 18.30175949 17.53856247 0.00464143 -0.00158552 0.00614215
O 6.23104138 15.61479047 23.30362327 0.00419729 -0.00013146 -0.00170212
O 2.57157649 16.53260900 32.01012517 -0.00062934 0.00007534 0.00631062
O 1.85603024 23.09701527 17.81400736 0.00323288 0.00017341 -0.00265129
O 6.97487600 21.85095694 26.38641417 -0.00581446 0.00044627 0.00089992
O 2.53752673 22.51766812 26.17960399 -0.00613245 0.00548649 0.00325703
O 5.72658535 22.12806391 18.40044478 -0.00186454 -0.00154392 -0.00191926
O 6.69926111 15.37139837 31.54022873 -0.00856181 -0.00829666 -0.00221503
O 1.46534061 16.47004260 23.45501181 0.00215374 0.00022190 -0.00358777
O 6.18974803 14.07308984 0.62602050 0.00303123 0.00147661 0.00435161
O 2.34786397 17.70857543 25.65061543 -0.00175066 0.00001344 -0.00057034
O 2.00618917 24.20401987 24.10468435 0.00199163 0.00025428 -0.00190172
O 6.26363395 20.57134851 16.34728730 0.00236589 0.00113390 0.00222658
O 2.40464108 24.63852364 15.79296968 -0.00171845 -0.00013289 -0.00404146
O 6.22586307 20.23980419 24.43026790 0.00001772 -0.00023560 -0.00334858
O 6.29955825 14.01302858 25.27018148 0.00050731 -0.00036579 -0.00223593
O 2.09047920 18.10590822 1.03204018 0.00868095 -0.00043274 -0.00519864
O 14.48251792 2.72001830 6.85398191 0.00505610 -0.00123923 0.00255082
O 11.34304546 3.45590305 14.59401416 -0.00208448 0.00281165 0.00757227
O 10.04442277 9.70108549 1.43846228 0.00229027 0.00288912 0.00680579
O 15.93064324 9.32666632 9.16728829 -0.00058689 0.00053544 -0.00313546
O 10.88219059 10.78025784 8.81798078 -0.00175313 0.00254725 -0.00190314
O 13.91333971 8.74814018 0.78188246 -0.01012862 -0.00125918 -0.00229293
O 15.78155282 2.12087823 15.19835831 -0.00314024 -0.00892870 0.00298933
O 10.16862829 4.16300242 6.84252720 0.00446105 0.00517991 -0.00103467
O 14.66835337 1.19348025 17.05727554 -0.00058945 -0.00414546 -0.00090179
O 11.03161062 5.64885584 8.81061829 -0.00128144 0.00251399 0.00134798
O 10.16583781 12.48510335 6.94597442 0.00232336 0.00157955 -0.00011654
O 14.85576707 7.45764997 31.69837213 0.00315015 -0.00309045 0.00394877
O 10.06324807 11.22616895 32.22839615 -0.00548448 -0.00047634 0.00239786
O 15.41091011 7.68063276 7.06681504 0.00500466 0.00104580 0.00051204
O 15.42103609 1.36182787 8.94183415 0.00212945 -0.00599877 0.00205393
O 10.72458788 4.92903928 16.72340515 0.00618471 -0.00272569 0.00393298
O 14.40051206 2.67583644 23.18982510 0.00459087 -0.00332869 -0.00020725
O 10.86997535 3.06672580 31.33547085 0.00292125 -0.00478106 -0.00485420
O 10.24559164 9.64668706 17.29156399 -0.00497144 -0.00163999 0.00469841
O 15.70954389 9.04361664 25.67753045 0.00096806 0.00402385 0.00446141
O 11.39754227 9.95110031 25.78702666 -0.00332637 -0.00467646 -0.00153996
O 14.21543115 9.04550032 17.31611424 -0.00119636 0.00444891 0.00572376
O 15.36021619 2.49885722 32.00635130 -0.00091339 -0.00390084 0.00265006
O 10.60813024 3.84559653 23.06979229 -0.00261546 0.00251258 0.00436264
O 14.28894275 0.96175628 0.90614917 0.00220021 0.00163427 -0.00491538
O 11.18084268 5.07803721 25.30864874 -0.00273822 -0.00356967 0.00557867
O 10.88019809 11.33332712 23.52393950 -0.00372215 0.00119446 0.00290576
O 15.01706948 7.72236518 15.09934905 0.00342307 0.00610185 -0.00132601
O 10.36435638 11.26053954 15.36474306 0.00404820 0.00531903 0.00066309
O 15.32302826 7.76963664 23.22790511 -0.00133892 -0.00032293 0.00047912
O 14.60627158 1.58933748 25.56797448 -0.00361812 0.00037326 -0.00165234
O 10.56543891 4.80540946 0.44905779 0.00159534 0.00401891 -0.00582379
O 14.56404181 15.78179365 6.75295187 -0.00186324 -0.00085681 -0.00335767
O 11.00325143 16.17775359 15.25031570 0.00096222 0.00110196 0.00134447
O 10.21109002 22.80411655 1.53198817 -0.00408593 -0.00439751 0.00077169
O 15.10064829 22.33956614 9.98045835 0.00093905 0.00312508 -0.00149107
O 11.36954505 23.20554445 9.68622591 -0.00472778 -0.00377892 0.00135008
O 14.73009949 22.08971727 1.34048693 0.00867780 0.00535343 -0.00072993
O 15.34175201 15.42495378 15.15763053 -0.00508828 -0.00328807 0.00554285
O 9.76523172 16.72611233 6.98679217 -0.00140867 -0.00073843 0.00225086
O 15.46078925 13.89769487 17.41782139 0.00472352 0.00249854 0.00519406
O 10.39295336 17.92931259 9.15403679 0.00279458 0.00215852 0.00762696
O 10.84956056 24.63354474 7.59733894 -0.00383843 -0.00267996 0.00527732
O 15.15076493 20.62739251 32.15905947 0.00078663 0.00265729 0.01117552
O 10.80865601 24.61973235 32.36197649 0.00277815 0.00311296 -0.00015527
O 14.98533761 20.73468177 7.67645130 0.00741977 0.00396630 0.00093172
O 14.79912673 14.25495232 8.75533662 0.00115619 0.00153500 0.00397632
O 10.69053429 17.54427652 17.44945632 0.00182869 0.00124163 -0.00090733
O 14.84763223 15.62225989 23.57760005 -0.00139259 -0.00092503 -0.00326394
O 11.11120206 16.20860786 31.87129117 0.00275849 -0.00142111 0.00139021
O 10.17605883 22.78789214 17.51413581 0.00233759 0.00071857 -0.00156109
O 15.31247328 22.03648505 25.94980987 0.00241658 0.00076747 -0.00132258
O 11.11572063 23.17535888 26.20702434 -0.00480640 0.00648684 0.00315587
O 14.35648039 21.74652937 17.85940905 -0.00416628 -0.00354046 0.00338487
O 15.34418217 15.08851070 31.67243175 -0.00234454 0.00664193 0.00147260
O 10.19821300 16.66915913 23.91012717 -0.00319718 -0.00013795 -0.00642965
O 15.36150085 13.72102918 0.82029890 -0.00161189 -0.00352847 0.00050822
O 10.88749104 18.18248587 25.71119649 0.00316541 0.00226541 -0.00284432
O 10.49548507 24.40433911 23.97444650 0.00086413 -0.00430721 -0.00354792
O 14.80539269 20.12756660 16.05909727 0.00171245 0.00156306 0.00297328
O 10.54618702 24.53756416 15.67890767 -0.00579258 -0.00217829 0.00002463
O 14.60587460 20.59125588 24.04802518 -0.00101341 0.00195514 0.00460355
O 14.91595713 13.96274274 25.55263572 0.00166398 0.00241887 0.00588886
O 11.01546036 17.85499708 0.93411558 0.00094682 0.00728926 0.00199693
O 22.63084421 2.29376265 6.94745092 0.01223408 0.00255493 -0.00380897
O 19.61052462 3.53121399 14.77517707 -0.00215050 0.00109968 0.00374382
O 18.88852399 9.84525483 1.44233128 -0.00345259 0.00091086 -0.00372885
O 24.32021110 8.84705406 9.26016567 -0.00471958 0.00582590 -0.00227928
O 19.62301931 10.05570472 9.36944508 -0.00491487 0.00757352 0.00134876
O 22.60405125 9.07160961 1.17305984 -0.00109152 0.00606312 -0.00339540
O 23.56437545 2.61028813 15.25087425 0.00370255 0.00109192 0.00660673
O 18.89778899 3.29016692 6.69091803 0.00365024 -0.00785663 0.00156267
O 23.66481354 1.04013599 17.40751187 -0.00181060 -0.00414147 -0.00107708
O 18.81544946 5.00226787 8.54894593 -0.00107056 -0.00114803 0.00107629
O 19.73404430 11.70437655 7.44231197 -0.00462330 -0.00326390 -0.00222279
O 23.67089429 7.64476744 32.16116487 0.00127869 0.00422979 0.00407279
O 19.10209105 11.46273979 32.04559575 -0.00303414 0.00121674 0.00518833
O 23.31925808 7.57891021 7.21196224 0.00431121 0.00291017 -0.00366146
O 23.70610642 1.20547055 9.00626085 0.00366769 -0.00247226 0.00091244
O 19.36185582 5.00818220 17.04615631 0.00030795 -0.00006534 -0.00157923
O 22.83722929 2.56968835 23.56473692 0.00079043 -0.00025069 -0.00318841
O 20.05935932 3.97173463 31.32192330 0.00080952 -0.00425826 0.00032142
O 18.85575624 9.85230975 17.81035172 0.00207476 0.00310449 0.00169680
O 23.99373369 8.82910819 25.83122769 0.00349827 0.00126415 0.00367677
O 20.18917346 10.18588240 25.81426642 0.00087638 0.00327262 -0.00128976
O 23.01603342 9.19351534 17.61472477 0.00149136 -0.00397943 -0.00377715
O 23.89440995 2.57777493 31.77294872 -0.00493538 -0.00309828 -0.00268881
O 18.50114163 3.57906439 23.11034489 0.00099690 -0.00093611 0.00032576
O 23.68066192 1.23934852 0.87399965 0.00091082 0.00035309 -0.00619265
O 18.74532163 4.96120692 25.27142028 0.00431286 -0.00850290 0.00325394
O 19.54494675 11.74686232 24.06294416 -0.00302284 0.00120354 -0.00228937
O 23.01623420 7.68488380 15.33580944 -0.00644221 0.00221283 0.00312590
O 18.99931747 11.36875832 15.61501452 -0.00344812 0.00344801 0.00192529
O 23.53533618 7.21451957 23.78184689 0.00012986 -0.00411298 0.00138286
O 23.55200214 1.21313022 25.60811875 -0.00127012 0.00140568 -0.00429066
O 19.44658516 4.97829900 0.64288497 0.00673338 -0.00097816 -0.00108703
O 23.18297691 15.63730143 6.92844623 -0.00180726 0.00752910 0.00133019
O 19.54602160 16.52183483 15.39901306 0.00109216 -0.00471310 0.00287741
O 18.84577761 23.08193719 1.23885786 -0.00549789 -0.00310053 0.00167052
O 24.08707499 21.83507719 9.89574554 0.00146756 0.00856032 0.00581572
O 19.85895585 22.85809719 9.86459836 -0.00109961 0.00340174 -0.00569553
O 22.99915059 21.78163838 1.84035505 0.00149542 0.00019910 0.00323996
O 23.51564357 15.94439685 15.26774776 0.00001283 -0.00114275 0.00732148
O 18.82895860 16.82667645 6.91905671 -0.00104980 0.00500959 -0.00158224
O 23.65046274 14.35485624 17.25798899 -0.00017300 0.00232747 -0.00519380
O 19.09749936 18.01760348 9.13597005 -0.00260029 -0.00477744 0.00664503
O 19.61067282 23.90254481 7.53104761 -0.00587831 -0.00741225 -0.00334811
O 22.85210712 20.10176881 32.86398425 -0.00059819 0.00224015 -0.00053089
O 19.18853172 24.52647680 32.23446389 0.00178301 -0.00524585 0.00278910
O 23.78778210 20.31727497 7.84177041 -0.00497669 0.00093308 0.00237936
O 23.87267205 14.12185930 8.95152206 -0.00744303 0.00084843 0.00317013
O 19.22684372 17.73796015 17.72906262 0.00354793 -0.00768968 0.00118916
O 23.32326569 15.66195897 23.37013056 0.00161634 -0.00164944 -0.00718571
O 19.71068171 16.38849898 31.76793718 -0.00466361 -0.00054363 0.00292035
O 18.32474831 22.08652450 18.46249342 -0.00499462 -0.00179982 0.00117655
O 23.49429130 22.31790135 26.85040754 0.00335274 0.00338308 -0.00082614
O 19.27652791 23.00309121 26.02189899 -0.00016912 -0.00812401 0.00636864
O 22.72280390 21.67224535 18.51759208 0.00330461 -0.00521073 0.00067961
O 24.10766826 15.54171957 31.70582426 -0.00936107 -0.00246398 -0.00860132
O 18.79661747 16.47066031 23.93917383 0.00196948 0.00344083 0.00314051
O 23.51580623 14.02755670 0.79604431 -0.01148586 -0.00427063 0.00140842
O 19.29628504 18.16304617 25.74681255 0.00721786 0.00869462 -0.00309355
O 19.22360576 24.55814636 24.14089571 -0.00412872 0.00533979 -0.00432617
O 23.30142732 20.69700046 16.07290829 0.00441537 -0.00078025 -0.00382622
O 18.72411387 23.81867010 16.18086981 0.00467467 -0.00107080 0.00639342
O 23.66145465 20.29262622 24.65600826 -0.00019168 0.00440087 0.00191874
O 23.55011921 14.10294987 25.48745368 -0.00002465 -0.00038433 -0.00292060
O 19.48787857 17.98820241 0.84522321 0.00338376 0.00190486 -0.00250409
N 7.53764893 13.01677810 2.03789205 -0.00095434 -0.00524364 0.00029444
N 0.96090992 6.22568403 10.65435936 -0.00057958 -0.00194570 -0.00464363
N 3.08853715 0.04608975 6.16169155 0.00126138 0.00203680 -0.00761405
N 5.18602151 6.55124858 13.83603513 0.00407334 -0.00172875 -0.00263951
N 0.80726828 25.24699874 14.26949551 0.00560320 -0.00595115 -0.00387348
N 7.56055226 6.80194348 5.48924030 0.00522438 -0.00168052 0.00752700
N 5.44483132 12.71843588 10.89441393 -0.00956990 -0.00656216 -0.00344629
N 3.51825624 6.32847318 2.55585875 0.00034806 -0.00571139 0.00499670
N 7.82782842 13.04224623 18.65161266 0.00027158 -0.00243914 0.00068229
N 1.16538070 6.22878551 26.99406780 0.00147436 0.00378081 0.00447239
N 3.48930003 25.30124133 22.71049303 0.00251082 0.00102078 -0.00355650
N 5.12371198 6.45187257 30.36152786 -0.00006866 0.00286684 -0.00313300
N 1.08940706 25.49803114 30.62880334 -0.00152839 -0.00207784 -0.00826416
N 7.66981754 6.36789733 22.08777726 0.00029309 0.00438232 -0.00249442
N 5.43095707 12.75228302 26.96721081 -0.00209575 -0.00027911 0.00404790
N 3.20537369 6.57092738 18.82140317 -0.00353316 0.00552387 0.00084153
N 7.67966474 0.25192512 2.56172706 0.01085018 -0.00078236 -0.00856263
N 0.97638276 19.21493886 11.01847451 -0.00270871 0.00181362 0.00249651
N 3.45120598 12.92766819 5.84537641 0.00824565 0.00007774 -0.00350502
N 5.27477601 19.20887613 14.71998467 0.00685352 -0.00437288 0.00328809
N 0.81611421 12.72640199 13.89744775 0.00636413 -0.00537832 0.00378441
N 7.74981389 19.20580550 6.33400459 0.00237716 -0.00430970 -0.00122881
N 5.29363463 0.05633575 10.67061025 -0.00201165 -0.00071912 0.00645221
N 3.53567743 18.97725200 2.59320141 -0.00298937 -0.00555254 -0.00081979
N 7.33403366 25.49481308 19.16101088 0.00337853 -0.00148216 -0.00214483
N 1.25563657 18.91528140 27.21807992 0.00178363 0.00385169 -0.00390140
N 3.36322786 12.46171042 22.02637299 -0.00375505 0.00610999 0.00729103
N 5.54392864 19.13014097 31.01994660 -0.00359501 0.00024706 -0.00273017
N 1.07566869 12.60887617 30.24250676 0.00359046 -0.00338348 -0.00120055
N 7.34527790 19.14243123 22.76132533 0.00572507 0.00117540 0.00146480
N 4.91659272 0.36586043 27.08727176 -0.00736826 0.00011739 -0.00253233
N 2.96218042 19.45923783 19.14678422 0.00205345 -0.00248507 -0.00128147
N 16.09641912 12.49258434 2.59397391 0.00142772 0.00134882 0.00505791
N 9.56303272 6.49295177 10.29064558 -0.00218445 0.00826814 -0.00306002
N 11.83797017 0.25207454 5.87607049 0.00307631 -0.00296978 -0.00019725
N 13.85698700 6.58876168 13.51458546 -0.00080026 0.00486709 0.00756081
N 9.60411760 0.36216405 14.13267603 0.00926471 -0.00288092 0.00019316
N 16.28422827 6.67778455 5.19784285 -0.00202020 0.00081745 -0.00128056
N 13.66223513 13.08112508 10.35299382 -0.00405093 0.00445824 -0.00491228
N 11.60343394 6.17447814 2.01354745 -0.00573681 -0.00065952 -0.00720202
N 16.22328833 12.54972532 19.11421847 0.00197033 -0.00306462 0.00270628
N 9.60604052 5.99406853 26.75082112 -0.00021049 0.00233901 -0.00477811
N 11.74702075 25.26752261 22.29263700 -0.00542179 -0.00021960 -0.00401373
N 13.47094533 6.52187098 30.18440145 0.00190048 -0.00059852 -0.00285737
N 9.29111312 25.51422403 30.95189001 -0.00231465 0.00281788 0.00638117
N 16.36154370 6.52821942 21.67056272 0.00030262 0.00367437 0.00830370
N 13.87559399 12.62528898 27.01428285 -0.00369897 -0.00156524 -0.00584384
N 11.84627127 6.27893454 18.24371165 0.00103818 0.00111226 0.00554912
N 15.97571059 0.15640413 2.25263086 -0.00491320 0.00053559 0.00071512
N 9.64759365 19.20851756 10.89208197 -0.00149513 -0.00231193 -0.00624307
N 11.88169037 13.08720959 5.50201209 0.00098970 0.00485335 0.00157048
N 13.77851256 19.10721496 14.29720943 -0.00482816 0.00202645 -0.00137714
N 9.31100841 12.66025138 13.88098453 0.00271361 -0.00136265 -0.00819248
N 16.25514732 19.59809593 6.11232573 0.00164751 -0.00707461 0.00324954
N 14.05206113 0.18651537 10.38877830 0.00067997 -0.00201003 0.00808473
N 12.00752177 19.12001984 2.54283128 0.00027459 -0.00466239 0.00161329
N 15.38758746 25.36203794 18.64976973 0.00060614 0.00409588 0.00103076
N 9.70500183 19.06666429 27.42260851 0.00328188 0.00406314 0.00409529
N 12.14432289 12.30275237 21.80948323 0.00186980 -0.00179071 -0.00398873
N 13.85420575 19.52248548 30.57926598 0.00296850 0.00241207 0.00002838
N 9.41798837 12.41871818 30.37710254 0.00186466 -0.00019555 -0.00365824
N 16.22002064 19.65132737 22.63209646 -0.00566747 -0.00279144 0.00485148
N 13.73735799 0.23097995 27.20225351 0.00108327 -0.00560899 -0.00087095
N 11.34230630 19.07792875 19.07291756 -0.00740314 -0.00534955 -0.00192489
N 24.70635624 12.94365652 2.40698520 -0.00289674 -0.00071590 -0.00377994
N 18.05716797 6.31797981 10.21631887 -0.00233500 0.00121404 0.00131773
N 20.21139116 25.51737138 6.01429959 0.00279531 0.00211027 -0.00555414
N 21.98185169 6.56947453 13.63204768 -0.00417112 0.00099863 -0.00409313
N 18.14208088 25.23921266 14.51982747 0.00197142 -0.00751128 0.00167293
N 24.47520674 6.34547124 5.63355326 -0.00369140 0.00012635 -0.00359131
N 22.56293357 12.92496904 10.56208516 -0.00730739 0.00080803 -0.00669140
N 20.45116462 6.25236648 2.23267823 0.00060443 -0.00643671 -0.00579345
N 24.52070160 12.92221740 18.81551535 0.00255277 0.00139399 -0.00615038
N 18.09759725 6.44545696 26.85606895 -0.00982425 0.00202306 0.00060662
N 19.97007258 0.17520045 22.39304119 0.00490067 0.00298262 0.00725096
N 22.44805197 6.52847734 30.55339837 0.00636085 -0.00255296 0.01590449
N 17.94144364 0.02699227 30.67889081 -0.00789063 -0.00175709 -0.00583122
N 25.04449304 6.52670502 22.07504931 -0.00374484 -0.00589879 0.00217288
N 22.55522085 12.73964346 27.04568861 -0.00057530 0.00019629 -0.01405030
N 20.66528257 5.99905184 18.64865136 -0.00555363 0.00189853 -0.00586568
N 24.88166072 0.16208887 2.51353443 0.00869712 0.00724922 -0.00335835
N 18.15719905 19.30421700 10.72849139 -0.00260410 -0.00118835 -0.00318785
N 20.48062167 12.97007746 5.70810688 -0.00296966 -0.00190008 0.00251421
N 22.37251111 19.28140634 14.54273210 0.00185394 -0.00366161 0.00072916
N 17.96497676 12.64638541 13.99030232 0.00402121 -0.00042121 -0.00647811
N 24.83207419 18.92569225 6.24909755 0.00259165 0.00250236 0.00042048
N 22.58946547 25.53071989 10.49841210 -0.00358689 0.00396381 -0.00505471
N 20.51720449 19.32577640 2.39610204 0.00375701 -0.00108655 0.00083781
N 24.34474701 25.23541077 19.06632138 0.00543159 -0.00052423 0.00535854
N 17.92973780 19.18090699 27.28049935 0.00398415 -0.00755414 -0.00163356
N 20.57072967 12.70528918 22.30788199 0.00084064 0.00175055 0.00063897
N 22.53444135 18.78389402 30.98299030 0.00261933 0.00004653 -0.00015103
N 17.95527116 12.57534414 30.36591605 -0.01073773 0.00408686 0.00284297
N 24.69338689 19.18278290 22.96007985 0.00344753 0.00222804 -0.00914837
N 22.33724601 25.51834133 27.18229016 -0.00471308 0.00232034 -0.01205167
N 20.34614051 19.09260024 19.21747227 0.00204550 -0.00196013 0.00230381
C 7.58320153 0.46801796 4.91614356 0.00144455 -0.00136906 0.00768198
C 0.68615883 5.87846365 12.94802808 0.00517522 0.00163408 0.00572146
C 3.29479076 12.59278094 3.47361343 0.00153638 -0.00267101 -0.00438780
C 5.04403292 6.84645090 11.53760757 0.00822080 0.00277012 0.00237460
C 0.98212002 12.31677832 11.60351832 -0.00185224 -0.00184416 0.00361980
C 7.42606756 6.87496424 3.12014678 -0.00601985 0.00169388 -0.00353225
C 5.07668353 0.43354937 13.07691688 -0.00171699 -0.00598943 0.00284909
C 3.31216007 6.01663162 4.92709155 -0.00240495 -0.00228116 0.00190640
C 7.14003675 1.08853402 6.04796713 -0.00427391 -0.00757332 -0.00558449
C 1.10195559 5.24907282 14.15364679 -0.00397532 -0.00038139 0.00540004
C 2.78108958 12.01772995 2.36093204 -0.00826016 0.00351072 -0.00316666
C 5.38532363 7.37753399 10.32305359 0.00313713 -0.00423315 0.00603533
C 1.36083655 11.51921167 10.55633269 -0.00285573 0.00772129 -0.00262070
C 7.16627246 7.51152722 1.86534821 0.00657539 0.00894744 -0.00317024
C 5.43096643 1.13292173 14.23949923 -0.00595598 -0.00149887 -0.00624670
C 2.90580350 5.31629696 5.99981582 -0.00236088 0.00486750 -0.00236586
C 6.24412462 2.18102955 5.89125968 -0.00659046 0.00520703 -0.00998484
C 1.85233290 4.04561806 14.07788441 -0.00467936 -0.00534327 -0.00367846
C 2.12629570 10.77087986 2.45292436 0.00075280 -0.00029516 -0.00202893
C 6.41674150 8.35668374 10.27503852 -0.01198962 -0.00604706 0.00388804
C 2.28438498 10.42373209 10.71380785 0.00046935 -0.00162190 -0.00092143
C 6.50791415 8.70734474 1.87949134 -0.00381486 0.00405131 -0.00074095
C 6.17566527 2.29869978 14.16417519 -0.00011699 -0.00370116 -0.00341446
C 2.13348112 4.12261960 5.83967457 0.00298307 0.00027045 -0.00143481
C 6.02126215 2.77685098 4.63239230 -0.00126650 -0.00735986 -0.00376461
C 2.06073800 3.46322843 12.81215707 -0.00200620 0.00609645 0.00117688
C 2.16399169 10.10970784 3.72288439 -0.00425342 0.00608451 -0.00077992
C 6.93351296 8.83870766 11.47623559 -0.00157289 -0.00033533 -0.00326843
C 2.19568744 9.78238678 11.93706137 0.00366103 -0.00157925 0.00584765
C 6.34040396 9.43777047 3.11333369 0.00750724 0.00050970 -0.00306057
C 6.44267549 2.86754893 12.86592142 -0.00487089 -0.00241548 0.00444087
C 1.81197576 3.67672036 4.54423823 0.00639626 0.00467718 -0.00118459
C 6.48581479 2.16266910 3.48112984 0.00251288 0.00341768 0.00601902
C 1.72354120 4.07014083 11.65446895 0.00279939 -0.00368267 -0.00257722
C 2.49716182 10.77105340 4.88187297 -0.00189069 -0.00380008 0.00559071
C 6.49739529 8.38489465 12.73384007 -0.00283972 -0.00054180 -0.00719226
C 1.81580257 10.53809724 13.09467955 0.00137611 -0.00114659 -0.00275911
C 6.63740698 8.83450678 4.28260597 0.00017323 -0.00149019 -0.00372664
C 6.12073073 2.18319079 11.72808684 -0.00091683 0.00099564 0.00579027
C 2.27905502 4.42155598 3.43906145 0.00118856 -0.01031221 0.00238450
C 7.23500356 0.93439775 3.61904118 -0.00052506 -0.00093918 0.00389736
C 1.16802109 5.38727340 11.72968009 0.00318482 0.00121057 0.00355706
C 3.12533862 12.08660697 4.78649453 -0.00366259 -0.00759356 -0.00239937
C 5.55203728 7.31497612 12.77825674 -0.00310279 -0.00351310 -0.00467213
C 1.15442205 11.81833736 12.90467212 -0.00426490 -0.00804841 0.00487417
C 7.14435725 7.48118146 4.33020611 0.00327995 0.00071374 -0.00128638
C 5.51829891 0.91277912 11.78865706 0.00339000 0.00412781 -0.00313407
C 2.97368307 5.65959563 3.60324214 0.00280148 -0.01044341 -0.01407389
C 7.04247086 0.21714106 1.32601574 -0.00865802 -0.00146389 -0.00110558
C 1.53564300 6.00066741 9.46689032 -0.00173557 0.00049773 -0.00249236
C 3.12854382 12.66198501 7.09674782 -0.01014060 -0.00083246 0.00530316
C 5.77695115 6.71156398 15.08504660 -0.00067930 0.00306697 -0.00553481
C 1.23864020 12.56802913 15.16941916 0.00134231 0.00335042 0.00704718
C 6.85028409 6.80810514 6.60388522 -0.00040656 -0.00824083 -0.00165130
C 5.78807064 0.30864733 9.41230800 0.00425832 -0.00150976 0.00473241
C 2.84273169 6.36998148 1.32669389 0.00179645 0.00165206 0.00519167
C 7.19901227 11.85937372 16.65826002 0.00307204 0.00036112 0.00808445
C 1.81461065 7.22258186 8.64733891 -0.00204934 0.00466289 0.00337396
C 2.62328315 0.98916335 8.28273703 0.00576120 -0.00982440 0.00318601
C 5.46213163 5.54408141 32.61781832 0.00083135 0.00520502 0.00394091
C 1.44694449 0.98211729 32.74003952 0.00385981 -0.00044868 0.01031283
C 7.00027655 5.58418777 7.50743686 -0.00721211 -0.00836645 0.00222004
C 6.33903390 11.59259911 8.82713453 -0.00209603 0.00271357 -0.00125896
C 2.78042265 7.68920290 16.69195981 0.00396406 0.00573309 0.00073306
C 7.61799483 0.38429609 21.51266350 0.00285081 0.00303485 0.00114237
C 1.16469278 6.23195597 29.46099173 -0.00878080 -0.00236273 0.00463369
C 3.44746741 12.10582801 19.69004741 0.00101626 0.00696137 0.00053525
C 5.30029910 6.44397926 27.87778943 -0.00140808 0.00160868 0.00182674
C 1.08102076 12.10410178 27.86671059 -0.00864071 -0.00450547 0.00210085
C 7.72860259 6.68261117 19.64021721 0.00325441 -0.00288343 -0.00603505
C 5.03880677 0.30223147 29.57171087 -0.00287250 -0.00246220 -0.00417195
C 3.51875992 6.03687496 21.15066478 -0.00003631 0.00274193 0.00676995
C 7.13700134 1.04192299 22.63732489 -0.00323206 -0.00357318 0.00166969
C 1.35984022 5.55930568 30.62996883 -0.00194918 0.00618444 0.00897513
C 2.94136045 11.55807856 18.53725831 0.00068650 0.00012790 -0.00757023
C 5.73696938 7.05314589 26.71497694 -0.00616532 -0.00323703 -0.00002536
C 1.43308508 11.27785506 26.83559464 0.00204770 0.00493896 0.00331629
C 7.40620199 7.48749537 18.55645778 0.00327186 0.00025051 0.00494497
C 5.36334501 0.95368719 30.72021976 -0.00008000 0.00225556 -0.00207324
C 3.06499285 5.49203922 22.33526245 -0.00465349 0.00470289 0.00593043
C 6.31107558 2.16046555 22.54833190 0.00295438 -0.00074941 0.00367294
C 1.91685277 4.28277055 30.73752432 0.00891635 -0.00144353 0.00374647
C 1.91866210 10.57300039 18.62987090 0.00326671 -0.00073040 0.00420168
C 6.75862850 8.07840943 26.78899965 -0.00246391 0.00002557 0.00092019
C 2.32469745 10.25437439 26.93459441 0.00447454 -0.00586428 0.00395973
C 6.35245603 8.39656327 18.58154749 -0.00329257 0.00424474 -0.00818073
C 6.06078150 2.22476658 30.72096087 0.00499074 0.00070486 -0.00145374
C 2.23044320 4.37731447 22.25821985 -0.00336418 -0.00316924 0.00292492
C 6.12191395 2.73557933 21.30836605 0.00491474 -0.00532266 -0.00423915
C 2.12341957 3.65851073 29.49773028 -0.00521078 -0.00903906 -0.00574082
C 1.66427916 10.03254092 19.92800655 -0.00180105 -0.00252368 -0.00231471
C 7.06264202 8.63473120 27.98714894 0.00497645 0.00532970 0.00361274
C 2.66259630 9.88232588 28.22308004 0.00261234 0.00903552 0.00295920
C 5.95258754 8.81785631 19.83982138 0.00590923 -0.00044904 -0.00430825
C 6.35841357 2.77768907 29.45659823 0.00232303 0.00106336 0.00601266
C 2.06307370 3.77248125 21.01466202 -0.00068423 0.00297364 0.00099121
C 6.62308827 2.10660243 20.15031626 0.00787952 0.00032442 -0.00162540
C 1.92626581 4.22632297 28.27126818 -0.00129543 0.00506354 0.00146862
C 2.26311705 10.48319348 21.03830949 0.00122771 -0.01077721 -0.00064969
C 6.58182904 8.07052978 29.12425586 0.00051102 -0.00101777 0.00456814
C 2.24637607 10.65795228 29.33748031 0.00257235 0.00267985 0.00008347
C 6.55604086 8.29344127 20.98731727 0.00163896 0.00270009 -0.00018080
C 5.97114722 2.13594775 28.30908456 -0.00606896 -0.00032211 0.00702030
C 2.46114216 4.33713562 19.80204978 0.00327968 0.00412297 -0.00115239
C 7.20315349 0.82704218 20.25081780 -0.00055189 0.01028476 0.00871185
C 1.42768846 5.55719896 28.22191181 0.00069343 -0.00065858 0.00156857
C 3.02403178 11.69717648 20.92075332 0.00314777 -0.00112648 0.00067328
C 5.69220153 7.00435832 29.12802877 -0.00032194 0.00052643 0.00048140
C 1.46299966 11.79728641 29.15542090 -0.00353051 0.00397584 -0.00842770
C 7.27203988 7.07639814 20.92546665 -0.00993031 -0.00236776 0.00110385
C 5.29787722 0.94442746 28.31658774 0.00263525 0.00334713 0.00429920
C 3.13571565 5.63113443 19.88088594 0.00303856 0.00585568 0.00042939
C 6.99927509 0.25334205 17.92446825 -0.00168265 0.00689965 -0.00448703
C 1.63561091 5.88893198 25.80812082 0.00741431 0.00436233 -0.00420582
C 2.96052325 12.16653724 23.34201103 0.00076599 0.00275115 -0.00018579
C 5.60309824 6.62135486 31.60670389 -0.00024793 0.01192616 -0.00358064
C 1.57171804 12.44780123 31.53500526 0.00206612 -0.00276089 0.00219432
C 7.09106628 6.34662755 23.28167569 -0.00100331 -0.00147804 0.00006462
C 5.82640206 0.33125616 26.04395605 -0.00071751 0.00161600 -0.00179752
C 2.77515407 6.43374072 17.55351292 -0.00307322 -0.00002062 0.00300190
C 6.93131050 11.95239449 32.84405114 -0.00037277 -0.00224475 -0.00185797
C 1.50506415 6.87512361 24.65763150 0.00806572 -0.00751738 -0.00079975
C 2.35744944 1.02316517 24.45619861 0.01289275 -0.00552393 0.00729536
C 5.52354850 5.47965767 15.99310637 -0.01101352 -0.00107663 -0.00015170
C 1.27703939 1.02234899 16.21944988 -0.00356748 -0.00408397 0.00170487
C 7.38645756 5.08290772 23.97350382 -0.00890580 0.00253699 -0.00274244
C 6.05139703 11.61484740 24.92079792 0.00655580 0.00529637 0.00691004