2000
Time=80000.00000008 pbc="T T T" Lattice="31.38929561 0.00000000 0.00000000 0.00000000 29.89151463 0.00000000 0.00000000 0.00000000 23.63124168" energy=-12042.29488420 virial="-38.79683902 -0.79982814 -15.22661335 -0.79982814 -23.69488157 11.27086333 -15.22661335 11.27086333 -1.10406597" stress="0.00057650 0.00008673 -0.00065436 0.00008673 0.00124009 0.00052294 -0.00065436 0.00052294 0.00272551" Properties=species:S:1:pos:R:3:vel:R:3
C 30.62004472 3.54448549 1.71393377 -0.00142414 0.00051016 0.00011733
C 2.60090961 0.89972924 2.79498400 0.00298990 -0.00007579 -0.00571319
C 30.81097049 3.46046439 6.59452660 0.00095368 0.00219038 -0.00765927
C 2.63440019 0.49630710 7.70908652 0.00237921 0.00083583 -0.00257489
C 30.96793626 3.49245522 11.36184045 0.00086569 -0.00229493 -0.00179722
C 2.44762803 0.26870535 12.51138508 0.00623379 -0.00357304 -0.00679439
C 30.60466148 3.47449975 15.92427446 0.01004095 -0.00239638 -0.00632242
C 2.41326342 0.52769231 17.22854626 -0.00947555 -0.00208252 0.00225813
C 30.84120614 3.61395921 20.74754320 0.00303047 0.00337338 -0.00232693
C 2.57433546 0.37355680 21.79172824 -0.00575024 -0.00474654 0.00103630
C 0.01517056 8.94340753 1.63447343 -0.00165453 0.00852709 0.00832971
C 3.28258576 6.17705296 3.14257155 0.00616683 -0.00275622 0.00693530
C 31.13191702 9.27294004 6.58440077 0.00113060 -0.00579818 0.00627807
C 2.79432075 6.21174962 7.79101665 -0.00127955 0.00134001 0.00373040
C 31.24376088 8.99254349 11.29227354 0.00260812 0.00287231 0.00150117
C 2.89115497 5.85437475 12.67793687 0.01040251 -0.00278366 0.00216904
C 31.12049084 9.31577552 16.01980233 0.00493571 -0.00451521 -0.00387306
C 2.99314004 6.02566034 17.26552170 0.00118740 -0.00118252 0.00301640
C 31.30469559 9.21963329 20.61310385 -0.00860376 0.00295042 -0.00141721
C 3.15223467 6.07157724 22.14876679 0.00286858 -0.00772392 0.00662937
C 0.24937144 14.91501694 1.88964170 -0.00297118 -0.00505740 -0.00011247
C 3.37229734 11.82471604 3.14251314 0.00683396 0.00076615 0.00821597
C 0.06616739 14.79229760 6.48475582 -0.00594747 0.00203046 -0.00184052
C 3.48606415 11.84837743 7.72052185 0.00332714 -0.00114061 -0.00195304
C 0.18475633 14.76394350 11.04829616 0.00053194 0.00001993 -0.00123270
C 3.23387681 11.82431033 12.57435118 0.00153638 -0.00376704 -0.00234254
C 0.02587176 14.88862500 15.99634785 -0.00504319 0.00522209 -0.00273663
C 3.27007049 11.95526790 17.23420975 -0.00116767 -0.00509952 0.00009103
C 0.13081989 14.64304010 20.76164670 -0.00123725 -0.00414485 0.00096814
C 3.47453510 11.88916881 22.10751633 -0.00115621 0.00011260 -0.00133664
C 0.42447191 20.34112844 1.56068709 0.00181729 0.00692628 -0.00721770
C 3.89409386 17.52370954 3.01766481 0.00475535 0.00671621 0.00484613
C 0.31850733 20.34772363 6.18878132 -0.00094661 -0.00158114 0.00826367
C 3.50688810 17.46280633 7.71651385 0.00155491 -0.00113859 -0.00162426
C 0.52130861 20.50006288 11.38129879 0.00010830 -0.00041636 -0.00096786
C 3.60557285 17.49702604 12.47923243 -0.00063148 0.00112161 -0.00130813
C 0.45318239 20.34127067 15.95419790 0.00249881 0.00111939 0.00662244
C 3.48569867 17.59301238 17.23247840 0.00081667 -0.00046626 0.00298328
C 0.34566925 20.13519213 20.54193486 -0.00030759 0.00051040 0.00567206
C 3.96126950 17.56578112 21.91224577 0.00020506 0.00585700 0.00668267
C 0.07598571 27.03830159 1.62027741 0.00214712 -0.00105881 0.00090313
C 3.34266267 24.21462551 3.01918268 0.00153029 0.00548416 -0.00726320
C 31.23414739 26.90235686 6.47369254 0.00385066 -0.00682072 0.00517760
C 3.05137197 23.88276661 7.66213103 0.00581172 0.00293849 -0.00250199
C 0.11487144 26.64606062 11.21933477 -0.00472571 0.00004081 -0.00297222
C 3.33990013 23.94107474 12.45222621 0.00871809 -0.00472279 -0.00348934
C 31.28053730 26.59975637 15.90558761 0.00409247 -0.00353873 -0.00306934
C 3.04926308 23.81232999 17.34000230 0.00359991 0.00760910 0.00433676
C 0.01782615 26.92591122 20.57831723 -0.00092205 0.00222694 0.00360475
C 2.98966423 23.65408291 22.16785551 -0.00423977 0.00351119 0.00242568
C 6.33392408 3.46998252 1.93179645 0.00148708 0.00198548 -0.00344105
C 9.38488593 0.28140253 2.94181283 -0.00196673 -0.00287490 -0.00194697
C 5.97551596 3.38008898 6.32477877 -0.00164878 0.00854084 -0.00115796
C 9.15707006 0.03239401 7.57736777 -0.00570059 -0.00950340 -0.00178058
C 6.06535175 3.17535482 10.96216882 -0.00294699 -0.00082762 -0.00171873
C 9.20445800 0.06041153 12.44220905 0.00365064 0.00442943 0.00344219
C 6.03265214 3.17106132 15.90380967 -0.00163033 -0.00057437 -0.00473824
C 9.04991298 0.34660713 17.03651285 0.00150381 -0.00147067 -0.00129437
C 6.12829541 3.54885927 20.82062672 0.00432075 0.00219357 -0.00334538
C 9.26717040 0.08802089 21.62532687 0.00322347 0.00594193 0.00528521
C 6.52636986 8.92089897 1.68205198 0.00112485 0.00513589 -0.00242688
C 9.55276643 5.86259788 2.97486387 -0.00436812 0.00129696 0.00163494
C 6.27852807 8.87926401 6.58059796 0.00110100 -0.00035961 0.00363976
C 9.48179288 5.74947165 7.64427978 0.00473929 0.00226069 0.00314928
C 6.43251041 8.66545740 11.24372142 -0.00014227 -0.00060249 -0.00097697
C 9.49712267 5.96061427 12.36397442 0.00742675 0.00586479 0.00599248
C 6.36256698 8.89349549 15.98388072 -0.00673025 0.00278400 -0.00770149
C 9.39498966 5.78939611 17.24668672 -0.00353461 0.00065549 0.00522402
C 6.51927713 9.00066787 20.66253762 -0.00695455 -0.00518053 -0.00084710
C 10.04426587 6.02255334 21.88016621 -0.00998247 0.00151630 -0.00092404
C 7.14680289 14.40872094 1.77304964 0.00271363 -0.00671888 0.00229290
C 9.95465141 11.63569492 3.02378100 -0.00856485 0.00437811 0.00215819
C 6.90445371 14.44746493 6.41590853 0.00221525 -0.00294757 0.00212550
C 10.04958768 11.50034817 7.91146391 0.00361028 0.00867105 0.00524618
C 6.95484667 14.30174425 11.18673948 -0.00279271 0.00115818 0.00676740
C 9.83087505 11.14717958 12.41742351 0.00466467 -0.00678758 0.00243559
C 6.74634866 14.44351581 15.84297575 -0.00427395 0.00522568 0.00222549
C 9.92850652 11.32157427 17.17883576 0.00581455 -0.00562940 0.00286952
C 6.78721681 14.63579477 20.53703342 -0.00238318 -0.00375958 0.00112667
C 10.16711646 11.48936886 21.94855422 0.00211576 0.00430278 0.00122616
C 6.38272617 21.10751366 1.69569247 -0.00316623 -0.00299121 -0.00435065
C 9.34647478 17.97495166 3.17953019 -0.00251115 0.00093345 -0.00579895
C 6.20974113 20.81686245 6.33603976 -0.00233477 0.00040578 0.00449490
C 9.49945772 18.13598617 7.64138553 -0.00799417 0.00158137 0.00182169
C 6.25932977 21.00732309 11.10636462 -0.00722875 -0.00232760 0.00176026
C 9.64538099 17.95060547 12.50170147 0.00054293 -0.00279724 -0.00295130
C 6.23672193 20.75073516 15.83095993 -0.00717614 -0.00316584 0.00166726
C 9.44495595 17.45869392 17.37261877 -0.00266304 0.00011264 -0.00190694
C 6.39580975 21.08204969 20.44080248 0.00047485 -0.00030151 -0.00814834
C 9.55413330 18.15561482 21.97145584 0.00402863 -0.00465577 -0.00644671
C 5.58383301 27.70227231 1.82367962 -0.00225585 -0.00170741 -0.01182286
C 8.89821104 24.64143424 3.10873602 -0.00249072 0.00238801 -0.00733332
C 5.79548044 27.15621195 6.32607248 -0.00519163 0.00151775 -0.00096518
C 9.32752006 24.39584197 7.71964238 0.00245315 0.00595110 0.00307009
C 5.99677243 27.36456553 11.04224412 -0.00188343 -0.00638481 0.00211820
C 8.72701879 24.45359876 12.24426324 0.00205850 0.00213105 -0.00254842
C 5.65034562 27.35982390 15.79713260 0.00340587 0.00005617 -0.00001197
C 9.04256158 24.71698829 17.11940992 -0.00151306 -0.00514040 0.00480729
C 5.60884577 27.45990945 20.65531088 0.00839874 -0.00053060 0.00227408
C 8.68983451 24.59036340 21.99383044 -0.00050711 -0.00410699 0.00335623
C 12.79647720 2.79814019 1.58041382 0.00078778 -0.00161669 0.00370845
C 15.92623599 29.81382496 2.95366544 0.00119620 -0.00211744 0.00953449
C 12.76113152 2.78377517 6.37168401 0.00171220 0.00219064 -0.00046015
C 16.15947275 29.83012391 7.71543100 -0.00171258 -0.00345212 -0.00342887
C 12.64245591 2.81953042 10.96619828 0.00269512 0.00382721 -0.00289866
C 16.08238242 29.78452792 12.45362768 -0.00293837 0.00670843 -0.00837358
C 12.61059454 2.90432781 15.52425085 0.00221329 -0.00382488 0.00008565
C 15.68345927 29.79796424 17.16006002 -0.00016238 0.00313206 0.00199690
C 12.72806224 2.69763247 20.28411057 -0.00128291 -0.00095980 0.00311794
C 15.82836765 29.66086030 21.92914966 0.00388495 -0.00214883 0.00153615
C 13.32344479 8.46500803 1.80217130 0.00427351 -0.00052507 -0.00420913
C 16.37637136 5.59779767 3.04048875 0.00073603 0.00052062 -0.00010172
C 13.20001965 8.43094499 6.32705536 0.00031511 0.00374034 -0.00270455
C 16.03337413 5.51855209 7.68278119 0.00425880 -0.00146010 0.00011481
C 12.84940313 8.18443229 11.10139252 0.00742824 -0.00083423 -0.00051266
C 16.45334120 5.58801255 12.32032350 0.00295108 0.00483171 0.00343105
C 13.20635765 8.21122182 16.02526747 -0.00436948 0.00273947 0.00590574
C 16.14384656 5.17082378 16.92352297 -0.00737615 -0.00273755 0.00182954
C 13.27171243 8.13321096 20.79254691 0.00160343 0.00678886 0.00464646
C 16.43764608 5.32303677 21.84684974 -0.00752226 -0.00080924 -0.00025540
C 12.67496711 15.08462406 1.75619185 0.00244063 -0.00476395 0.00434610
C 15.89494084 12.04592582 2.97254818 -0.00193223 -0.01760310 0.00075639
C 12.61728717 15.24341909 6.44737898 -0.00092513 -0.00283737 -0.00138736
C 15.69039883 11.65619782 7.65166765 -0.00794590 0.00451836 0.00552457
C 12.41953577 15.08975668 11.27078059 -0.00200046 -0.00029986 0.00415236
C 15.45862002 11.74951517 12.44192493 -0.00197335 -0.00192673 0.00138179
C 12.45096628 14.84070110 15.96171055 -0.00509024 -0.00335234 -0.00248892
C 15.74401894 11.59621831 17.19698260 0.00427656 0.00114290 -0.00089576
C 12.53257723 14.82545199 20.76700298 -0.00054401 0.00157671 0.00077472
C 15.57503125 11.84752648 21.97060443 0.00289870 -0.00400928 -0.00239623
C 11.94273870 21.72124984 1.64239892 0.00309620 -0.00272210 -0.00092914
C 15.22973828 18.50677197 3.00263227 -0.00534012 -0.00374812 -0.00022010
C 12.05988781 21.67592106 6.14933208 0.00162509 -0.00178905 -0.00297078
C 15.34580799 18.57661605 7.64280466 0.00036910 -0.00612530 0.00105316
C 12.49620054 21.40503046 11.06797158 -0.00385911 0.00172229 -0.00967204
C 15.26206461 18.31793169 12.48707497 0.00077545 -0.00643430 -0.00666676
C 12.03954647 21.71829160 15.93824920 -0.00277448 0.00099514 0.00345561
C 15.02355898 18.72185263 17.24234842 0.00458738 -0.00443066 0.00300490
C 12.25143785 21.73679715 20.66582032 0.00875707 0.00621515 0.00639287
C 15.11454628 18.52226127 22.07280268 0.00045176 -0.00614022 0.00296875
C 12.37863000 27.29571060 1.74110401 0.00468562 -0.00245877 0.00555869
C 15.52285606 24.15898711 2.96494860 0.00413170 0.00001853 0.00397887
C 12.57088703 27.03012597 6.33643380 0.00062935 0.00390851 0.00039455
C 15.56234657 24.03400471 7.65027271 -0.00164726 0.00006743 -0.00024094
C 12.31300260 26.99997241 10.99691324 -0.01134435 -0.00435230 0.00101835
C 15.51936958 24.13992158 12.29152080 -0.00013533 -0.00369276 0.00199077
C 12.26654315 27.27409575 15.71546266 -0.00134030 0.00252956 0.00362213
C 15.56112571 24.35928728 17.02297198 -0.00110770 0.00237605 0.00203757
C 12.35549336 26.96550125 20.59438206 0.00334637 0.00001945 -0.00227645
C 15.42139724 24.14763913 21.95934284 0.00015381 -0.00072853 -0.00500754
C 19.58484320 2.25744360 1.76987559 0.00174975 0.00578245 0.00423282
C 23.10540117 29.17874042 3.08843319 0.00239557 0.00260249 -0.00997602
C 19.61825595 2.34650244 6.31134551 -0.00968037 -0.00134905 -0.00769498
C 22.46349752 29.23439813 7.74218818 -0.00306957 0.00287304 0.00298885
C 19.44417593 2.51581711 11.05636173 0.00615584 -0.00279955 -0.00099741
C 22.49866830 29.51463352 12.50758652 -0.00056510 0.00100296 0.00019416
C 19.33778873 2.25987844 15.71390850 -0.00160397 -0.01112617 -0.00010804
C 22.51865775 29.30159517 17.18805919 -0.00254908 0.00160268 0.00037066
C 19.34762754 2.38338218 20.41828748 0.00122784 0.00763098 0.00257796
C 22.32869052 29.44199635 21.94219258 0.00123229 0.00033332 -0.00455889
C 19.04697631 8.76041446 1.64472049 -0.00079969 0.00192599 0.00266375
C 22.22418679 5.76001643 3.12650471 0.00503384 -0.00195155 0.00267133
C 18.94848887 8.76472004 6.38052164 -0.00022435 0.00277762 0.00439724
C 21.76301852 6.25828326 7.89280445 -0.00455214 -0.00478328 -0.00485042
C 18.83162147 9.00315842 11.19665052 0.00357602 0.00111088 0.00920902
C 22.06853004 6.07523444 12.44004072 -0.00691638 0.00200828 -0.00245834
C 18.88925746 9.02614480 15.85390075 -0.00546365 0.00149455 -0.00306804
C 21.71613511 5.77297962 17.12438326 -0.00007547 0.00245433 0.00437022
C 19.03871890 8.61862125 20.53375449 -0.00286561 0.00154950 -0.00003544
C 22.08154167 6.05570406 21.89584417 0.00008786 0.00720538 0.00336090
C 18.21760960 15.45885867 1.67300051 0.00595887 0.00018151 -0.00386013
C 21.30345448 12.46945120 3.19917883 0.00167716 0.00327303 -0.00299778
C 18.17367453 15.45724729 6.42778299 -0.00022812 -0.00480477 0.00328305
C 21.22051806 12.35267833 7.84123669 0.00433824 0.00106564 -0.00427944
C 18.21094953 15.38873716 11.04628743 0.00147425 0.00033662 0.00488087
C 21.34474428 12.56518048 12.55940114 -0.00180458 0.00149961 0.00318629
C 18.29425663 15.56017895 15.78926899 0.00560212 0.00099161 0.00792770
C 21.14272107 12.68545041 17.25504683 -0.00279380 -0.00830779 -0.00289857
C 18.29306604 15.60015299 20.62280659 -0.00769360 0.00941164 -0.00012729
C 21.18829604 12.34342874 22.03417601 -0.00237100 0.00323662 0.00048973
C 18.90282226 21.02795213 1.70999194 0.00048025 -0.00291605 0.00039332
C 21.69303117 17.90505969 3.02047319 -0.00586427 -0.00269498 -0.00510218
C 18.76232280 21.21534829 6.26330840 -0.00044120 0.00486019 0.00019140
C 21.78265735 18.08607407 7.61712636 -0.00294704 -0.00264630 -0.00903243
C 18.72200409 20.95006904 10.98717440 -0.00239700 -0.00595235 -0.00611951
C 21.80137141 17.95938942 12.50507963 0.00237315 -0.00201469 0.00101164
C 18.51710025 21.43635821 15.73555793 -0.00021644 0.00017302 -0.00261432
C 21.46984736 18.12079164 17.32605783 0.00223462 0.00131736 -0.00429199
C 18.53067096 21.34994063 20.55997853 0.00673831 -0.00150870 0.00278182
C 21.96419408 18.13041997 21.96691834 -0.00422247 -0.01213740 0.00333044
C 18.82993600 26.44970706 1.63384421 0.00144934 -0.00046238 -0.00126859
C 22.32443809 23.72551180 2.97356746 0.00518826 -0.00242654 0.00146902
C 19.28618884 26.73735033 6.21509189 -0.00799616 0.00133487 0.00160199
C 22.37696979 23.61773455 7.49001907 0.00862623 -0.00445019 -0.00252494
C 18.92509254 26.74203819 11.05754962 0.00602561 -0.00114474 0.00587804
C 22.15538517 23.71303096 12.31199404 0.00426307 -0.00558759 -0.00165868
C 19.19584371 26.81310800 15.81839398 0.00125007 -0.00705252 0.00093794
C 22.31633109 23.69502182 17.09108567 0.00911782 0.00589891 0.00387797
C 19.21500175 26.71241664 20.39651921 -0.00186685 -0.00614270 -0.00465721
C 22.14458336 23.61396184 21.82555680 -0.01201712 -0.00391752 0.00615324
C 24.83188915 2.88359951 1.93501518 0.00132431 0.00700512 0.00138997
C 28.35426099 0.11047150 3.15114792 0.00146360 -0.00750422 -0.00243009
C 25.33412598 2.93423206 6.73922010 0.00285216 0.00105730 -0.00485341
C 28.06321796 29.71455355 8.05169858 -0.00439390 0.00172567 0.01415998
C 25.02900870 2.93797389 11.28948101 0.00240939 -0.00058603 0.00351225
C 28.22369139 0.05927812 12.65603682 0.00005995 -0.00273947 -0.00382324
C 24.87812211 2.96269672 16.21753570 0.00722824 -0.00729372 -0.00549811
C 28.04532478 0.08620371 17.34577303 -0.00454886 -0.00058708 -0.00120098
C 25.04006901 2.88740114 20.85074162 0.00244195 -0.00343578 -0.00034880
C 27.97771697 0.12232109 22.06248531 0.00587738 -0.00585754 -0.00091252
C 24.58628276 9.42707763 1.72637088 -0.00222081 0.00906776 -0.01167918
C 27.98235876 6.44133814 3.11930542 -0.00087947 -0.00098418 0.00347810
C 24.52194009 9.60419496 6.33941690 0.00572943 -0.00582752 0.00027416
C 27.71508383 6.19407347 7.86514833 -0.00431812 0.00074473 0.00044037
C 24.43248158 9.50881295 11.15417541 -0.00515337 -0.00242552 0.00055734
C 27.63255345 6.52784177 12.57956084 0.00253689 0.00482209 0.00474989
C 24.59193879 9.47523770 15.85352738 0.00066153 -0.00257258 0.00666184
C 27.37996824 6.49710800 17.36745341 -0.00192017 -0.00225960 0.00141456
C 24.58483160 9.76587400 20.51090439 0.00096881 0.00176189 -0.00398444
C 27.58221204 6.31512322 22.02086804 -0.00634963 0.00109999 0.00488964
C 25.06875901 14.80857643 1.84884931 0.00031326 -0.00327200 0.00037089
C 28.09591320 12.23405571 2.99340637 -0.00797862 -0.00486238 -0.00546274
C 24.59884376 15.09977581 6.56194697 -0.00056015 0.00148808 -0.00013514
C 27.94768845 12.09794749 7.71518388 0.00070254 -0.00357698 0.00351326
C 24.83699812 15.07909740 11.14418814 -0.00084698 0.00131291 0.00009220
C 27.83338824 12.12299844 12.56965034 -0.00230540 -0.00561470 0.00691204
C 24.76934147 15.21842575 16.28822758 -0.00578110 0.00201075 0.00182430
C 27.89583419 12.14087726 17.33322674 -0.00791394 -0.00239296 -0.00605765
C 24.69376899 15.20651210 20.64885094 -0.00192553 0.00021803 0.00531620
C 28.24554634 11.95539630 22.12124867 -0.00104185 -0.00363934 -0.00163124
C 25.45463855 20.60030678 1.78899967 0.00289183 -0.00046195 0.00251002
C 28.32236816 17.70260731 3.14820584 0.00487844 0.00144179 0.00353892
C 25.19839851 20.52387351 6.43313805 -0.00488178 -0.00361496 -0.00665598
C 28.38719513 17.77009985 7.87532691 0.00258913 -0.00202846 0.00535858
C 25.19157548 20.54041679 11.05284640 0.00510155 0.00093963 -0.00194055
C 28.39698651 17.68180266 12.39381062 -0.00364948 0.00073707 -0.00022070
C 25.16007055 20.45730918 15.94995278 0.00278028 0.00555230 -0.00229158
C 28.51456636 17.69249311 17.12523449 0.00575868 0.00727725 -0.00508678
C 25.23219419 20.71104269 20.46592964 -0.00143964 -0.00592697 0.00415834
C 28.42840894 17.59185658 21.96489762 -0.00328496 0.00060524 -0.00969924
C 25.78794819 26.54176609 1.67810469 -0.00479092 -0.00201603 -0.00112797
C 28.89014549 23.41402427 2.79422077 -0.00304817 -0.00832404 -0.00029420
C 25.93682963 26.38414129 6.40234436 -0.00334529 -0.00051019 -0.00426209
C 28.55699612 23.19179170 7.81665744 -0.00299059 -0.00034089 -0.00624517
C 25.48842606 26.49965805 11.12522528 0.00668844 0.00768138 0.00501768
C 28.58058942 23.22606278 12.36812188 0.00254854 0.00396681 0.00712187
C 25.90799193 26.26667945 15.70700578 0.00078210 -0.00964877 -0.00504612
C 28.76986928 23.35508294 17.07712419 -0.00272297 -0.00234837 0.00919846
C 25.73552803 26.41518980 20.49842116 -0.00423844 -0.00199780 0.00442092
C 28.86861303 23.47889237 21.74197799 0.00732162 -0.00440337 -0.00485356
N 0.11984870 4.26581531 0.97028848 -0.00230690 -0.00190864 -0.00033509
N 3.85286865 5.15524496 3.80990144 -0.00705849 0.00481783 0.00375288
N 5.42458475 2.76740426 1.17431890 -0.00364113 -0.00310576 -0.00141509
N 1.67615814 1.60734314 3.54224347 -0.00308903 -0.00905937 0.00028025
N 0.23024921 4.32473146 5.93015111 -0.00114686 -0.00166341 0.00281152
N 3.30055785 5.14342097 8.53912512 0.00322752 -0.00102027 0.00188952
N 5.34161761 2.44767919 5.51415391 0.00420943 -0.00056052 -0.00542943
N 1.84699107 1.40012543 8.38512623 0.00481359 -0.00270055 -0.00314611
N 0.07353405 4.35910296 10.49243181 -0.00189501 0.00375929 0.00380877
N 3.46568369 4.81939574 13.40655754 0.00041515 0.00105219 -0.00677227
N 5.16335865 2.50530120 10.27281810 0.00494694 0.00863888 0.00352351
N 1.68087285 1.13484478 13.23942267 -0.00384758 -0.00276381 0.00075625
N 0.14975831 4.26718409 15.36738287 0.00314185 -0.00020453 0.00843635
N 3.69371148 5.12111162 17.98208778 0.00192639 -0.00253213 -0.00030402
N 5.41443729 2.19132437 15.16638346 -0.00153983 -0.00955959 0.00218867
N 1.66549989 1.29407457 18.07210141 0.00605466 -0.00164597 -0.00162652
N 0.06713055 4.54753310 19.89918176 -0.00304161 -0.00077797 -0.00338392
N 3.91846098 5.41152259 23.02892503 -0.00357346 -0.00450352 -0.00665901
N 5.39694840 2.63063909 20.13799626 -0.00367585 0.00543260 0.00711881
N 1.80511325 1.18799542 22.59116849 -0.00155837 -0.00565270 -0.00524462
N 0.54428139 10.01595356 0.96371532 0.00002005 0.00225558 -0.00542400
N 4.04080629 10.90781934 3.86761112 0.00431309 0.00222241 0.00039362
N 5.88940468 7.98951570 0.98553169 -0.00009366 -0.00335159 -0.00034047
N 2.42528100 6.95161617 3.82313890 0.00016947 0.00268505 0.00602301
N 0.55619783 10.17710069 5.93451602 0.00130547 -0.00320416 -0.00558070
N 3.79422258 10.75837875 8.47863194 0.00222937 0.00254116 0.00368823
N 5.61495675 7.92535623 5.79256445 0.00098575 0.00164938 0.00581027
N 2.28505649 7.20250530 8.47096575 0.00156874 0.00371283 -0.00265804
N 0.49456131 9.93379173 10.51805340 -0.00056744 0.00106911 0.00305663
N 3.86937208 10.92861602 13.36061118 -0.00676675 0.00145766 0.00282593
N 5.64301039 7.89419360 10.45708559 -0.00435086 -0.00397849 0.00779137
N 2.35929882 6.87391690 13.37459561 -0.00239178 0.00120113 0.00239069
N 0.61687461 10.06815402 15.32884230 0.00101474 0.00376065 -0.00116972
N 3.83985800 10.93382424 17.90240765 0.00253670 0.00374981 -0.00642871
N 5.67868358 7.94877941 15.34797375 0.00569633 -0.00128003 0.00284510
N 2.42884549 7.10192123 17.89313421 -0.00779788 -0.00109801 -0.00150431
N 0.79173695 9.96765022 19.83517135 0.00479500 0.00339550 -0.00895348
N 4.01608609 10.85883487 22.84133121 -0.00012795 -0.00053027 -0.00112682
N 5.64698732 8.13531083 19.99166867 -0.00032107 -0.00097259 0.00075638
N 2.27624368 6.97414488 22.66892385 0.00012346 -0.00121705 0.00205457
N 0.45928657 15.78197164 0.96351691 -0.00285110 -0.00256527 -0.00581216
N 4.42588691 16.61832042 3.91580126 0.00548376 -0.00357765 0.00188162
N 6.42735042 13.57815808 1.02199128 -0.00255599 -0.00310764 0.00048377
N 2.76563293 12.82795618 3.83433677 0.00443408 -0.00843880 -0.00099104
N 0.97277142 15.52861790 5.89269383 0.00400115 -0.00135110 0.00587807
N 4.42038302 16.69568708 8.40454009 -0.00065393 0.00156710 -0.00000887
N 6.29300499 13.49811533 5.65424003 -0.00140944 -0.00253629 -0.00092936
N 2.97325591 12.95212886 8.32434272 -0.00367746 0.00285948 -0.00520571
N 1.05180704 15.44807768 10.34750435 0.00125814 0.00570732 0.00171215
N 4.32770117 16.51438631 13.18637243 0.00135242 -0.00666473 0.00123990
N 6.18930328 13.35026618 10.57470421 0.00139123 0.00044089 0.00600387
N 2.62415895 12.83046788 13.24315834 0.00614757 -0.00409801 -0.00165005
N 0.62143719 15.91067842 15.26486882 0.00527622 -0.00015819 0.00010601
N 4.44221843 16.91710669 17.95582069 0.00177383 0.00226477 -0.00548331
N 6.05114425 13.47175115 15.08319713 0.00567908 -0.00564433 0.00135931
N 2.72434575 12.94250323 17.94168931 -0.00612017 0.00251045 0.00167978
N 1.01519418 15.63441753 20.24595725 -0.00155282 -0.00114138 -0.00026982
N 4.87573404 16.90552478 22.61615251 0.00229038 0.00152942 -0.00059106
N 6.03859909 13.74588190 19.82552644 -0.00184677 -0.00282921 -0.00147318
N 2.90007714 12.88613526 22.89474862 -0.00072338 0.00133922 0.00365273
N 1.31367983 21.13257759 0.91251668 -0.00527478 0.00126348 -0.00550187
N 4.11515011 23.29047664 3.63002528 0.00318997 0.00441931 -0.00245392
N 5.48877088 20.43961796 0.95456551 0.00033395 -0.00951113 0.00603610
N 2.85235747 18.27065659 3.59138512 -0.00507979 0.00102932 0.00071149
N 1.00132578 21.27156059 5.44042963 -0.00128173 -0.00438008 0.00607768
N 4.11475902 23.30014606 8.23526949 -0.00171176 -0.00195333 -0.00391667
N 5.43916133 20.32673303 5.39175103 0.00396532 -0.00131280 -0.00349334
N 2.78650952 18.35690473 8.45120758 0.00599999 -0.00315176 -0.00079364
N 1.17039345 21.39709190 10.59493534 0.00064485 0.00394959 0.00418745
N 4.25701631 23.22972280 13.11498109 -0.00636566 -0.00648724 0.00819660
N 5.41603008 20.20860631 10.33445989 0.00064415 0.00051991 0.00649263
N 2.65505654 18.21543522 13.15600772 -0.00592791 0.00060229 -0.00042738
N 1.39406606 21.05168698 15.23171114 -0.00812690 0.00511408 0.00304695
N 4.00456406 23.17906555 18.06200850 0.00342470 -0.00076597 0.00036281
N 5.37448029 20.05139905 15.05207776 -0.00099390 -0.00130856 0.00341122
N 2.62641795 18.31718735 18.04160163 -0.00495207 0.00933677 -0.00330315
N 0.94501995 21.20702629 19.94835327 -0.00833981 -0.00162132 -0.00044848
N 4.17134376 23.25128248 22.67940275 0.00267783 0.00029062 0.00136015
N 5.46769319 20.34558714 19.83415717 -0.00709730 0.00063891 -0.00020777
N 3.16499291 18.36490325 22.60948167 0.00441202 -0.00361682 -0.00147134
N 0.81235916 27.94451447 0.91944005 0.00096628 0.00524595 0.00237569
N 3.35501179 29.87950847 3.47176890 0.00227357 0.00367325 -0.00161716
N 5.21200950 26.55789537 1.23232787 -0.00283453 -0.00346170 -0.00055544
N 2.39639477 24.85388091 3.73138597 -0.00204684 0.00230195 -0.00214207
N 0.89421964 27.54201075 5.86775841 -0.00148557 0.00191409 -0.00076681
N 3.37335462 29.53399661 8.43812121 -0.00059934 -0.00026045 -0.00197059
N 4.96284188 26.24584247 5.66473037 0.00010426 0.00132405 -0.00259804
N 2.15322162 24.39216839 8.55176941 0.00685033 -0.00024254 0.00678977
N 0.73210187 27.61401286 10.52274760 -0.00017997 -0.00502579 -0.00313032
N 3.29555956 29.44468885 13.29497590 0.00328728 -0.00064384 0.00422262
N 5.21278502 26.42164384 10.42457831 -0.00507358 -0.00115417 -0.00053627
N 2.40672572 24.54962401 13.23083782 0.00125684 -0.00306180 0.00725992
N 0.70651536 27.56273074 15.31590158 0.00185084 0.00407366 -0.00878082
N 3.39516424 29.69393000 17.86850770 0.01188770 0.00116223 -0.00767025
N 4.64265946 26.73677098 15.10315230 0.00096822 0.00614369 0.00501452
N 1.99784533 24.27524198 18.10472939 -0.00248787 -0.00040085 -0.00277118
N 0.80440646 27.73013388 19.90267434 -0.00195139 0.00254351 -0.00148630
N 3.58490304 29.59677653 22.45219875 -0.00037317 -0.00044131 -0.00899103
N 4.89845139 26.47208011 20.00877900 0.00230648 0.00235945 -0.00100253
N 2.16858063 24.28835452 23.03103569 0.00138536 0.00309461 0.00133810
N 7.14411710 4.26639158 1.16287742 -0.00011056 -0.00074892 -0.00485808
N 10.24506786 4.86959920 3.49462589 0.00260303 0.00056794 -0.00016039
N 11.92686448 1.94427329 0.94992961 -0.00354266 0.00265046 -0.00389970
N 8.60827788 1.02082107 3.74366686 -0.00295504 -0.00193368 0.00090965
N 6.92986758 4.14396839 5.72068872 -0.00216526 0.00006068 -0.01042168
N 10.11298735 4.81627855 8.40997285 0.00031055 0.00262638 -0.00211057
N 11.99699322 1.87663678 5.65843068 -0.00018386 0.00566556 -0.00048044
N 8.62875077 1.16158130 8.15653675 0.00656344 -0.00027292 0.00332084
N 6.88356704 4.04428063 10.29383694 -0.00434210 0.00539877 -0.01137031
N 10.25847897 4.95385782 12.84338945 0.00419939 -0.00610822 0.00493848
N 11.98695172 1.91010473 10.14239668 -0.00124848 0.00535261 -0.00371405
N 8.55822126 1.03499158 13.08155066 -0.00277971 -0.00254814 -0.00240313
N 6.53249408 4.17276869 15.13781865 -0.00766063 -0.00345928 0.00326700
N 10.27781130 5.03616682 17.91766792 -0.00093021 0.00767053 0.00253004
N 11.66303102 2.08109970 14.92673869 -0.00245486 -0.00146502 0.00378077
N 8.54938815 1.33703964 17.80202410 -0.00170217 -0.00414364 0.00080392
N 7.04794797 4.25166156 20.11121444 -0.00318391 0.00505908 0.00118759
N 10.65501286 4.94665720 22.51597374 -0.00528289 0.00276769 0.00008202
N 11.88795467 1.81138006 19.68331496 0.00501576 -0.00010369 -0.00209630
N 8.81603609 1.11427094 22.39503874 0.00006374 -0.00335968 -0.00353557
N 7.50361007 9.58708707 1.06915086 0.00312966 0.00098901 0.00347227
N 10.65427284 10.64563578 3.62120827 0.00020922 0.00610943 -0.00703249
N 12.57859849 7.52563515 1.17859934 -0.00266373 0.00463015 -0.00300667
N 8.99390393 6.76837601 3.75819941 0.00151212 -0.00277617 -0.00215987
N 7.08230768 9.72986008 5.85045746 0.00102260 0.00122654 -0.00760018
N 10.83082053 10.75221529 8.74910275 -0.00096897 0.00139350 0.00052398
N 12.43659119 7.56813049 5.61591790 0.00574744 0.00359706 0.00202670
N 8.82201363 6.68624463 8.37518545 -0.00137809 0.00778479 0.00736296
N 7.29700949 9.50452843 10.61637667 0.00153364 0.00005665 -0.00106041
N 10.61402699 10.43665825 13.24574766 0.00412363 -0.00115839 -0.00751634
N 11.98635249 7.46832102 10.37475692 -0.00073853 0.00567132 -0.00169530
N 8.85481374 6.75242519 13.24530342 0.00384304 0.00137446 -0.00313008
N 7.05143997 9.77679861 15.13813856 0.00046355 -0.00258405 -0.00004217
N 10.79731741 10.72072511 18.00419948 0.00098974 0.00042984 -0.00104345
N 12.27137920 7.45396606 15.38280669 -0.00110543 -0.00302224 -0.00068418
N 8.85988573 6.84700282 17.86619295 0.00440260 0.00520822 0.00244422
N 7.35562082 9.79421117 19.92627500 0.00078601 -0.00129439 -0.00152801
N 10.88999616 10.62938604 22.68437936 0.00301730 -0.00240577 -0.01005118
N 12.55761014 7.38343461 19.96821130 0.00235753 -0.00517124 -0.00165720
N 9.40741127 6.83667754 22.74914899 -0.00371843 -0.00722437 0.00441014
N 8.09833447 15.16774872 1.08897852 -0.00100937 -0.00925374 0.00782906
N 10.36841029 17.30635773 3.84554590 0.00327796 -0.00001522 0.00004792
N 11.90377405 14.27630530 1.00969777 -0.00031925 -0.00739119 -0.00608613
N 9.26535288 12.37280477 3.91502297 -0.00364448 -0.00374653 0.00449313
N 7.56927555 15.38591335 5.68563463 0.00379706 0.00535819 -0.00597359
N 10.33549837 17.49550680 8.50047728 0.00128983 -0.00298654 -0.00789624
N 11.86726654 14.39219039 5.68144521 -0.00394257 0.00212308 -0.00233124
N 9.20271163 12.38573007 8.52979459 -0.00247941 0.00689769 0.00827289
N 7.63982224 15.09911232 10.35653243 -0.00652632 -0.00384614 -0.00007810
N 10.41112299 17.04657135 13.23428055 -0.00775029 0.00399759 0.00301094
N 11.52923043 14.38660412 10.47136835 0.00073950 0.00932704 0.00224163
N 9.01636423 12.07596234 12.93505963 0.00196585 0.00269054 -0.00522598
N 7.55453289 15.19522705 15.09451547 -0.00234831 -0.00255215 0.00162024
N 10.48167069 17.02875645 18.15189189 0.00162029 -0.00442187 0.00009795
N 11.55010276 13.98630676 15.35820352 -0.00196594 -0.00652892 0.00292761
N 9.08309546 12.15977436 17.89555665 0.00211463 -0.00802803 0.00698549
N 7.71846521 15.31998092 19.86734795 0.00179158 -0.00054743 0.00159656
N 10.56928344 17.57783357 22.73444527 0.00009630 -0.00148281 -0.00491196
N 11.60268332 14.03790310 20.15405761 -0.00261919 0.00145037 -0.00397216
N 9.51559428 12.43372795 22.69901147 -0.00212819 -0.00726186 -0.00085586
N 7.22141452 21.93581116 0.91293007 0.00871189 0.00234695 -0.00022717
N 9.64503009 23.73578473 3.74790617 0.00081943 0.00568193 -0.00047028
N 11.32821757 20.79572538 0.83384614 -0.00352509 0.00188793 0.00042951
N 8.57542423 18.76756748 3.96958396 0.00255458 -0.00384336 -0.00185822
N 7.12339102 21.71934185 5.87868615 0.00630008 0.00314904 -0.00063891