2000
Time=93000.00000001 pbc="T T T" Lattice="31.21721051 0.00000000 0.00000000 0.00000000 30.23122788 0.00000000 0.00000000 0.00000000 23.59915699" energy=-12041.66720510 virial="-54.45384483 -50.59005932 4.81083122 -50.59005932 -76.26628446 -29.69078124 4.81083122 -29.69078124 -107.09886878" stress="-0.00033393 -0.00222319 0.00026955 -0.00222319 -0.00122027 -0.00135698 0.00026955 -0.00135698 -0.00199209" Properties=species:S:1:pos:R:3:vel:R:3
C 30.71712206 3.73245958 1.53783971 -0.00161329 -0.00459213 -0.00100899
C 2.46762579 0.96103621 2.85805127 -0.00301280 0.00510202 0.00258415
C 30.44202471 3.61952697 6.45289244 0.00156748 0.00006915 0.00148685
C 2.70808884 0.65462237 7.58771136 0.00205828 0.00482287 0.00438418
C 30.67974768 3.68471837 11.21552339 -0.00069545 -0.00362634 -0.00680733
C 2.44243883 0.34012310 12.50334016 -0.00314799 -0.00170651 -0.00124305
C 30.62818511 3.95951634 15.83026436 0.00002835 -0.00015034 -0.00820662
C 2.63104595 0.59438590 17.08444849 -0.00738329 0.01182323 0.00383467
C 30.81305818 3.63265450 20.50668537 0.00331750 -0.00306651 0.00030137
C 2.53146048 0.49140371 21.66538901 -0.00185497 0.00950268 0.00545809
C 30.79542209 9.30248681 1.62304840 0.00094500 -0.00243547 0.00346543
C 2.89063879 6.30805888 3.02954865 -0.00494223 0.00418969 -0.00030472
C 31.04088730 9.40785492 6.28504254 -0.00084739 -0.00565518 -0.00453080
C 2.77128003 6.37640930 7.63921831 0.00026095 0.00428052 0.00598331
C 30.84689807 9.10961265 11.04983812 0.00671723 0.00390138 0.00214330
C 2.78043170 6.16845331 12.45823693 -0.00279035 -0.00831275 0.00306626
C 0.00287435 9.42538226 15.87308234 -0.00314606 -0.00163422 -0.00054847
C 2.86091451 6.03394365 17.29522110 -0.00388478 -0.00693293 -0.00303060
C 30.78442273 9.49291737 20.42779928 0.00082052 0.00086408 0.00085309
C 3.00467664 6.48801626 21.83061071 -0.00002565 0.00193885 -0.00078413
C 0.28746117 14.68447608 1.79229932 0.00152809 -0.00237472 0.01468975
C 3.50995266 11.82560699 3.14980048 -0.00194061 -0.00008256 -0.00283372
C 0.16195694 14.81516457 6.28252454 -0.00046132 0.00678246 0.00397023
C 3.53052353 11.76836452 7.92287194 0.00611384 0.00116716 0.00546069
C 0.17597417 14.72334073 11.09657726 -0.00143499 -0.00058808 0.00349136
C 3.30239644 11.90393901 12.68523491 -0.00829586 -0.00706351 0.00329786
C 0.36090459 14.77606817 15.73926907 0.00528566 0.00794748 -0.00450538
C 3.63741757 11.68567072 17.38095086 0.00232233 0.00311748 -0.00127877
C 0.26189150 15.00092070 20.61368471 0.00071932 -0.00331947 -0.00757386
C 3.27231548 11.98376252 22.16478872 0.00462853 0.00130793 -0.00039723
C 0.56751818 20.53635593 1.58135495 -0.00130593 -0.00390467 0.00696612
C 3.66420422 17.30259006 3.02855634 0.00597622 -0.00094219 0.00039587
C 0.65921347 20.46623321 6.34392311 0.00273874 0.00020869 -0.00128845
C 3.81465348 17.36839304 7.69027246 -0.00677187 -0.00234265 0.00243592
C 0.86872369 20.60573278 11.12672177 0.00111783 0.00124040 -0.00034857
C 3.50124007 17.42460220 12.43900141 0.00781572 -0.00707161 -0.00096091
C 0.80604438 20.36261383 15.72211839 -0.00373001 0.00302476 -0.00071772
C 3.86625644 17.73900149 17.19159955 -0.00140568 -0.00277749 -0.00765557
C 0.78213742 20.62173805 20.60223457 -0.00245550 0.00839997 -0.00282252
C 3.77209607 17.26317676 21.98733907 -0.00118268 0.00561860 0.00144727
C 31.05018991 27.06937058 1.70681969 0.00220995 -0.00025466 0.00560492
C 3.18791967 24.10898920 3.04661851 0.00352128 0.00479496 0.00237883
C 0.01335560 26.92776121 6.36805021 -0.00130258 0.00845401 -0.00549228
C 3.13402218 24.11558465 7.73806295 0.00606626 -0.00017013 0.00596303
C 0.02263622 27.16727651 11.24077806 0.00523976 -0.00185837 0.00061286
C 3.15888223 24.19858653 12.42581759 -0.00009377 -0.00308911 -0.00340993
C 31.09790757 26.93963383 15.93143716 -0.00509414 -0.00153622 0.00018070
C 3.25546692 24.12719747 17.22801395 0.00298459 0.00313763 0.00118141
C 0.17155712 27.13740911 20.46111258 -0.00587851 -0.00690889 -0.00523893
C 3.18344240 23.82746409 22.07393219 -0.00708440 0.00271610 0.00267280
C 6.16888993 3.20199624 1.72021286 -0.00054269 0.00048290 -0.00046663
C 8.94089949 0.49515947 3.01804581 -0.00076239 0.00387574 0.00243541
C 5.85365926 3.38992849 6.28490999 -0.00071953 0.00015319 -0.00052879
C 9.15264974 0.03316794 7.75400820 0.00094367 -0.00267271 0.00075092
C 6.08841207 3.41706466 11.07312696 -0.00650075 0.00831152 -0.00221190
C 9.34763088 0.06352654 12.45440188 -0.00041665 0.00300209 0.00304028
C 5.98630250 3.32875889 15.90220712 -0.00183577 -0.00195553 0.00138475
C 9.03310424 0.03470273 17.11513771 0.00637828 0.00252909 0.00109675
C 6.01722869 3.20545237 20.62213816 0.00129619 0.00869958 -0.00001459
C 9.18176111 0.11400394 21.93369588 -0.00195776 0.00048651 -0.00087063
C 6.60451714 8.66777743 1.83166323 0.00014735 0.00455033 -0.00373696
C 9.74098209 5.98893310 3.02177147 -0.00184086 -0.00412178 -0.01021728
C 6.16516910 8.67632162 6.39605138 -0.00147859 -0.00326099 0.00314869
C 9.69890488 5.99225217 7.72652058 0.00041386 -0.00011467 0.00018322
C 6.56454526 8.68743148 11.40174948 -0.00099835 0.00175588 0.00508582
C 9.51144660 5.75070808 12.33513914 0.00750788 -0.00286546 0.00277755
C 6.59218493 8.45183566 16.01886551 -0.00288547 0.00336167 -0.00273948
C 9.49615810 5.40756720 17.16860706 0.00497571 -0.00586715 -0.00413866
C 6.53755243 8.93848107 20.91711736 0.00077690 0.00075438 0.00157814
C 9.47815353 5.61979993 21.96591650 0.00241917 0.00221426 -0.00348146
C 6.99707833 14.46498364 1.90156673 0.00396864 -0.00208578 0.00143598
C 9.96823870 11.27562304 3.12722676 -0.00308758 0.00095900 0.00290595
C 7.08068405 14.54718350 6.46812616 -0.00124936 0.00744558 -0.00112837
C 10.03259844 11.39537481 7.72959489 0.00283370 -0.00606654 0.00256082
C 6.83866714 14.52146283 11.13515795 -0.00341661 0.00575414 0.00314008
C 9.97437643 11.49407497 12.37461316 0.00458202 0.00079957 -0.00188257
C 6.96672431 14.59100229 15.86203780 0.00364109 -0.00055592 -0.00605034
C 9.92266826 11.53213000 17.09965839 -0.00441912 -0.00351843 -0.00117526
C 6.85408427 14.50849178 20.54295369 0.00039894 -0.00790034 -0.00970308
C 9.93670128 11.52710782 21.98857321 0.00584681 0.00535843 0.00005317
C 6.27561294 21.03774728 1.69009099 0.00087276 0.00343848 0.00174049
C 9.33891042 18.23542890 3.06494084 0.01355906 -0.00456398 0.01036510
C 6.34655948 20.95911129 6.50339741 -0.00064806 0.00094303 0.00238537
C 9.76949158 18.26744615 7.88914083 -0.00263159 -0.01281451 0.00527703
C 6.34154966 21.12085966 11.10077022 0.00250994 -0.00660010 0.00691208
C 9.39761635 18.40729914 12.47307579 0.00369537 -0.00693351 0.00451329
C 6.28237351 21.05295995 15.95608437 -0.01169675 -0.00357721 0.00040337
C 9.46584105 18.24003368 17.18909763 -0.00290662 -0.00170848 0.00389844
C 6.53294333 21.17857650 20.59925783 0.00517720 0.00087589 0.00258831
C 9.21157537 18.18386350 21.95217196 0.00185490 -0.00333891 -0.00171508
C 5.59815773 27.99912775 1.76352630 -0.00421157 -0.00443129 0.00032444
C 8.76006183 24.84264064 2.91895203 -0.00024883 -0.00059040 -0.00208826
C 5.44320489 27.81952970 6.32091666 0.00162844 0.00234090 -0.00115414
C 8.90333263 24.91873437 7.72026268 -0.00001537 0.00050609 0.00484843
C 5.56716736 27.91110626 11.10323737 -0.00251158 0.00070500 -0.00034236
C 8.90534744 24.66055415 12.45268882 -0.00353218 0.00061474 0.00062141
C 5.59218224 27.77466714 15.87980751 0.00503699 -0.00309012 -0.00168539
C 8.75296339 24.76567282 17.24568957 0.00162926 -0.00763196 -0.00412070
C 5.71947314 27.70571289 20.63952479 0.00867508 -0.00018408 0.00550123
C 8.66256220 24.88389299 21.75968194 0.00296594 0.00732637 0.00527762
C 12.71480878 2.64357074 1.68373382 -0.00816373 0.00305409 -0.00460357
C 15.86829034 30.05986872 3.07652686 -0.00059890 -0.00738051 0.00016427
C 12.73249367 2.82153711 6.36626435 -0.00072533 0.00102693 -0.00086925
C 15.70517629 30.08645988 7.71684836 -0.01141722 0.00462604 -0.00169895
C 12.75607281 2.89413111 10.91033293 0.00024737 0.00038331 0.00000739
C 15.68716082 30.21913375 12.41041762 -0.00573576 -0.00162885 0.00090813
C 12.72305922 2.81280634 16.04429338 -0.00080767 0.01021701 -0.00770785
C 16.06022736 30.05568542 17.07916407 -0.00021554 -0.00116103 -0.00028794
C 12.87110815 2.90526771 20.53745009 0.00908935 0.00653059 -0.00537109
C 15.56951138 30.20460796 21.80756982 -0.00005210 0.00078299 0.00634015
C 13.08108527 8.35626434 1.73930704 0.00126289 0.00205933 0.00197171
C 16.19779061 5.50017264 2.97640764 -0.00691619 0.00610629 -0.00233797
C 13.23018257 8.58013386 6.48720471 0.00139961 -0.00029760 -0.00826973
C 16.15848810 5.52112462 7.67003958 0.00627119 0.00428842 0.00058628
C 13.09181564 8.35091451 11.02740179 0.00343395 0.00229287 0.00344413
C 16.07861447 5.49408058 12.40199951 0.00286902 0.00256387 0.00443838
C 13.14829093 8.44884372 15.93656352 0.00485697 -0.00037375 -0.00138412
C 16.39607298 5.48272307 17.08809431 -0.00068487 0.00298365 -0.00050612
C 13.10919919 8.20095223 20.55486132 0.00317817 -0.00197995 -0.00366400
C 16.33922192 5.29834792 22.01936129 0.00500772 -0.00590494 -0.00199641
C 12.56615316 15.22401702 1.81489362 -0.00354518 0.00108699 -0.00696138
C 15.75584139 11.78294146 3.13504392 0.00269249 0.00584742 -0.00568409
C 12.27070411 15.12860389 6.54274777 -0.00569410 0.00355311 0.00038537
C 15.69599476 12.18852398 7.86043169 0.00523292 0.00278282 0.00043912
C 12.39489422 15.19756222 11.34662402 0.00306097 0.00143949 -0.00866018
C 15.52486899 11.69972941 12.62202409 -0.00372332 -0.00416047 0.00436849
C 12.54436520 15.29933569 15.97591649 0.00380213 0.00351812 0.00259651
C 15.54304397 12.09861899 17.40605986 -0.00994217 -0.00575768 -0.00105973
C 12.11420888 15.01268217 20.71122352 0.00237199 -0.00323588 0.00129582
C 15.30657284 11.94359321 22.16075018 0.00187544 -0.00017609 0.00084476
C 11.93249257 21.89954930 1.82016155 -0.00172941 0.00933462 0.00822485
C 14.92135687 18.75310657 3.07144468 0.00564240 0.00117438 0.00337542
C 11.88699734 21.76093011 6.28947531 -0.01146009 0.00646809 0.00013969
C 15.08747547 18.72143444 7.79161541 -0.00286217 -0.00228673 0.00662335
C 11.89106357 22.08204725 10.97232060 -0.00136924 0.00185070 -0.00312821
C 15.25727680 18.93000122 12.49317599 0.00915788 0.00795014 -0.00129202
C 11.98079831 21.70206626 15.78406877 -0.00245496 0.00533316 0.00039503
C 14.78283667 18.65935227 17.23070589 0.00476610 0.00612458 0.00407641
C 12.16122652 21.71300968 20.54549539 0.00436139 -0.00006089 0.00381443
C 15.16454390 18.88308157 21.74582152 0.00059642 0.00009505 0.00088639
C 12.12813064 27.67353494 1.61451458 -0.00254470 -0.00264503 -0.00637740
C 15.38234354 24.42762119 3.06852154 -0.00846029 0.00059591 -0.00090410
C 12.20077891 27.54666919 6.42012917 -0.00483658 0.00068353 0.00415173
C 15.51694871 24.65408216 7.84781932 0.00430883 0.00505335 0.00109972
C 12.25968675 27.64260951 11.06003013 -0.00313173 -0.00401761 -0.00082626
C 15.54475344 24.42102113 12.49212923 0.00648425 -0.00611409 0.00833744
C 12.33140613 27.38963361 15.65077758 0.00174720 -0.00285214 -0.00003250
C 15.38220404 24.31337660 17.22929066 -0.00001940 -0.00331868 0.00116165
C 12.27080934 27.56034249 20.42847080 0.00755898 -0.00276509 0.00481676
C 15.34766513 24.61490293 21.92091237 -0.00312889 0.00334819 0.00531089
C 19.43179217 2.37215653 1.73947129 -0.00577192 0.00803548 0.00050179
C 22.45970466 29.71479893 2.91674001 -0.00680994 0.00541427 0.00383080
C 19.55068265 2.40375950 6.50967991 0.00346721 -0.00426425 -0.00313024
C 22.29706509 29.65948308 7.71360702 -0.00201007 -0.00106569 0.00552513
C 19.20527097 2.68547826 11.19170571 -0.00159938 -0.00024947 0.00039592
C 22.30336637 29.54761043 12.42859889 0.00308904 -0.00230633 0.00544774
C 19.47729345 2.24203915 16.02326385 0.00058765 0.00432599 -0.00768772
C 22.47291817 29.62060985 17.21345595 -0.00389889 -0.00010562 -0.00278062
C 19.55963399 2.34639147 20.74337056 -0.00184984 0.00101874 0.00582037
C 22.25146148 29.50031863 21.99290328 -0.00080711 -0.00032054 -0.00248255
C 18.61470079 8.91925912 1.60512609 -0.00275578 0.00363636 -0.00327569
C 21.55690692 5.97566131 2.96661550 0.00018781 0.00195493 -0.00630719
C 18.84338048 9.09931686 6.46891603 -0.00776904 -0.00524730 -0.00556290
C 21.78437755 5.83287863 7.63743054 0.00227105 0.00450650 0.00332955
C 18.87229759 9.34774428 11.27965954 -0.00180890 0.00400935 0.00979347
C 21.87270499 6.23956438 12.41230154 0.00460250 -0.01480149 -0.00013363
C 18.75214886 8.96401792 15.96118394 -0.00325022 0.00210713 -0.00860489
C 21.91120005 6.26552280 17.07954135 -0.00159889 0.00141063 -0.00329185
C 18.36004171 8.76478881 20.68566962 0.00058431 0.00230967 -0.00068858
C 21.69602627 6.03846641 21.80811858 0.00310658 -0.00320387 -0.00011670
C 17.87060858 15.71473951 1.64625087 -0.00380901 0.00729199 -0.00070640
C 21.33814877 12.70003656 2.95052489 0.00100747 -0.00210020 -0.00661322
C 17.87357126 15.75686466 6.29935373 -0.00494043 0.00586164 -0.00054413
C 21.33019444 12.79634634 7.66375164 -0.00225440 -0.00958935 -0.00230478
C 18.02923365 15.68910350 11.19476717 -0.00495827 -0.00677268 -0.00120882
C 21.37247012 12.65888446 12.48023792 0.00137552 -0.00473994 -0.00366882
C 17.89066234 15.62859085 15.82823596 0.00077983 -0.00261814 0.00586688
C 21.10414406 12.70698613 17.24768782 -0.01257899 -0.00316958 -0.00387688
C 18.00671209 15.73494322 20.54252538 -0.00127434 -0.01285547 0.00194811
C 20.98730831 12.62901406 21.84739278 0.00181753 0.00184640 0.00028653
C 18.40700028 21.57596987 1.57015246 -0.00197836 0.00402831 0.00588428
C 21.43154839 18.23595676 2.96992582 -0.00347606 -0.00151754 0.00328346
C 18.47047037 21.45819482 6.28510023 -0.00033690 -0.00897813 -0.00054656
C 21.77003306 18.07398887 7.69025401 -0.00303376 0.00821052 -0.00044769
C 18.36329955 21.56442094 11.08515115 0.00380006 0.00013977 0.00148750
C 21.60339344 18.06717785 12.40412001 -0.00210300 0.00468809 0.00507105
C 18.61685410 21.32429272 15.74777578 -0.00702181 0.00526662 0.00057013
C 21.73609875 18.20861341 17.00885446 -0.00321028 -0.00415308 0.00178104
C 18.47191225 21.52010331 20.41314458 -0.00464687 0.00144872 -0.00505049
C 21.38171937 18.43436718 21.64435509 0.00474576 0.00305939 -0.00525494
C 18.81766121 27.15036997 1.57275037 0.00114818 0.00431747 -0.00740323
C 22.32412059 24.28024114 2.93183705 0.00324570 0.00143129 0.00475132
C 18.92977730 27.14562878 6.34941431 0.00203654 0.00398684 -0.00086608
C 21.81540961 24.00557321 7.77720562 0.00088568 -0.00040655 -0.00013860
C 18.77729536 27.06475631 11.20395218 -0.00264360 -0.00090014 0.00430522
C 22.03576121 24.16084004 12.47186752 -0.00231972 -0.00420686 -0.00413707
C 18.71769354 26.92573870 16.02222745 -0.00388045 0.00180757 -0.00147880
C 22.05814726 23.98364447 17.10092329 0.00180313 0.00128967 0.00203007
C 18.78899475 26.87684162 20.51159947 0.00037900 0.00669515 -0.00338095
C 21.96553893 23.86767208 21.82135597 -0.00395093 -0.00585175 0.00040007
C 24.87402339 3.37124883 1.70175972 0.00480728 -0.00136600 -0.00011365
C 28.01663411 0.05127190 2.87095938 -0.00199799 0.00399397 -0.00203874
C 24.82472487 2.98824975 6.52312187 -0.00795349 0.00698321 -0.00117364
C 28.23940718 0.10730830 7.73373525 -0.00096895 -0.00275984 0.00884049
C 25.05831918 2.72070997 11.25233278 0.00172354 0.00050373 0.00323927
C 28.40346474 0.07296073 12.39646220 -0.00185325 0.00232864 0.00248762
C 25.04138568 2.88857530 16.00182174 -0.00663064 -0.00208982 -0.00140865
C 28.26392297 0.22521970 17.00446404 -0.00047551 0.00619824 0.00019176
C 25.00714812 3.27537438 20.58882889 0.00077953 0.00065073 0.00851787
C 28.28333391 0.04282301 21.77415877 0.00039813 0.00452102 0.00023581
C 24.26076773 9.64217282 2.02313477 0.00362674 -0.00457994 -0.00168064
C 27.65451816 6.61950964 3.15100323 0.00273886 -0.00809105 0.00119177
C 24.30046344 9.29768963 6.39310742 -0.00000291 0.00156294 0.00512460
C 27.60765340 6.59308098 7.73813728 0.00249419 0.00510244 -0.00099271
C 24.01842563 9.59455395 11.09535329 0.00489883 0.00113580 0.00480549
C 27.44105821 6.39159957 12.43523672 -0.00300543 -0.00202924 -0.00027957
C 24.27280187 9.77389219 15.93251437 0.00470748 -0.00432950 -0.00377197
C 27.41908032 6.59160731 17.06951583 0.00143361 -0.00371830 0.00645987
C 24.38255673 9.77197322 20.60502646 0.00107633 -0.00411534 0.00207301
C 27.39839342 6.83006203 21.82626900 0.00185169 0.00061316 -0.00395395
C 24.44117869 15.19879040 1.71879092 0.00415252 -0.00447553 0.00245522
C 27.44395553 12.44109196 3.13806112 -0.00583563 -0.00073154 0.00254310
C 24.61373428 15.33601001 6.55554872 -0.00268897 0.00554870 0.00928457
C 27.75536849 12.37006384 7.80471131 -0.00855763 0.00580849 -0.00095688
C 24.92520671 15.45288338 11.16700545 0.00470519 0.00053480 -0.00356479
C 27.84721479 12.46016389 12.36617382 0.01292323 -0.00175285 0.00797768
C 24.93997356 15.51101859 15.83786749 -0.00159902 -0.00175519 0.00122354
C 28.03469378 12.31145463 17.11024670 0.00008037 -0.00639625 0.00273463
C 24.81942096 15.46576613 20.62813722 0.00777160 0.00733076 0.00845194
C 27.57742501 12.44904055 21.96891359 0.00006854 0.00300117 0.00206716
C 25.15016873 20.89667649 1.59160878 -0.00409882 -0.00325278 0.00134533
C 28.08890387 17.79012290 3.22543128 0.00092116 0.00146098 0.00833139
C 25.12400218 20.85220766 6.31386147 -0.00304239 0.00377764 -0.01035128
C 28.42588542 18.01501593 7.76289722 -0.00167330 0.00280304 0.00208761
C 25.00316859 20.80972813 11.14171014 -0.00078742 0.00348223 -0.00336997
C 28.65329606 18.22955405 12.57545427 0.00339144 0.00558605 -0.00968730
C 25.07514952 21.03795922 15.77657844 -0.00630606 0.00723864 -0.00001521
C 28.34065007 18.04038076 17.29515293 -0.00619422 -0.00169293 -0.00773153
C 24.93761788 20.97081608 20.52637291 0.00150439 -0.00424923 -0.00102705
C 28.29201106 17.88955805 22.09015118 -0.00097058 0.00088673 -0.00070183
C 25.62254834 26.61182919 1.56839437 0.00172903 -0.00486480 -0.00312946
C 28.81792570 23.70376430 2.80563036 -0.00081369 -0.00197495 0.00730586
C 25.77320286 26.42010952 6.44209310 -0.00116538 -0.00022624 -0.00373522
C 28.80982531 23.52388213 7.68154023 0.00088768 0.00055718 0.00287383
C 25.75831566 26.52976699 11.20570803 -0.00360876 0.00769235 0.00194190
C 28.74018170 23.56099053 12.38938626 -0.00320947 0.00266484 0.00422306
C 25.70941822 26.75912578 15.85155888 0.00062958 -0.00156735 -0.00035784
C 28.85273809 23.60926320 17.03950653 0.00252720 0.00519879 -0.00106546
C 25.62775354 26.74727174 20.63042506 -0.00338271 0.00364566 0.00280120
C 28.60811631 23.32523256 21.73333187 -0.00301527 -0.00043406 -0.00475690
N 0.42988319 4.41037157 0.83945055 0.00461050 0.00427736 -0.00081865
N 3.47719630 5.32459755 3.78229919 0.00057029 -0.00145922 0.00108781
N 5.26928962 2.54308696 0.96817552 0.00031756 0.00297172 -0.00276419
N 1.76143510 1.83739767 3.58475404 -0.00268718 -0.00102948 -0.00698043
N 0.00923615 4.41837223 5.70314524 0.00020531 -0.00297594 0.00017269
N 3.38928207 5.47519356 8.33341606 -0.00272568 -0.00974210 -0.00181125
N 5.18174828 2.38533669 5.66160176 -0.00213899 0.00170633 -0.00816855
N 1.95480068 1.60386675 8.27730689 -0.00207855 0.00353413 0.00061471
N 0.27068326 4.44261635 10.43930691 0.00082253 -0.00243007 -0.00309990
N 3.31853099 5.16787018 13.23325025 0.00102862 0.00295058 -0.00686292
N 5.14636925 2.64577959 10.38992318 0.00363513 0.00038858 -0.00014088
N 1.88556129 1.39808714 13.21278119 0.00267480 0.00097142 -0.00032018
N 0.24592770 4.58705219 14.93313850 0.00059768 -0.00220105 0.00293062
N 3.61169504 5.16741812 18.00626500 -0.00127971 -0.00409165 0.00132862
N 5.41951922 2.22170028 15.31995417 -0.00044497 0.00104972 -0.00813198
N 1.84555556 1.45429041 17.79707321 0.00215390 0.00036551 0.00300200
N 0.24383512 4.64399989 19.91525547 0.00116800 0.00487785 0.00316603
N 3.81049076 5.66172522 22.62980796 -0.00128129 0.00204545 0.00323628
N 5.33771020 2.24505971 20.00157757 -0.00396470 0.00175951 0.00284165
N 1.76173203 1.40532316 22.21056703 0.00056180 -0.00324483 -0.00035697
N 0.28766850 10.14900624 0.80671392 0.00530280 -0.00327125 0.00007397
N 4.03722968 10.86764639 3.97007737 0.00395279 -0.00274223 0.00429175
N 5.82020238 7.71980009 1.20389513 0.00285666 -0.00090646 -0.00049792
N 2.30621685 7.37231256 3.70994532 -0.00357142 -0.00046737 -0.00015984
N 0.50308021 10.25736467 5.46184540 0.00036925 0.00198579 -0.00344425
N 4.08382298 10.71372451 8.59030838 -0.00384710 0.00172893 -0.00036540
N 5.44827338 7.95355536 5.48961469 0.00181869 -0.00621939 0.00196688
N 2.12234815 7.33245430 8.40844314 -0.00398871 0.00325387 0.00009434
N 0.26700460 10.07765526 10.31715358 0.00078020 0.00351713 0.00031829
N 4.02723503 10.93618421 13.31521130 -0.00102756 0.00168745 -0.00264723
N 5.69216517 7.96757049 10.60538525 -0.00322518 0.00367983 0.00592730
N 2.26527653 7.25065528 13.12382587 0.00324884 -0.00318555 0.00257560
N 0.58294351 10.37091776 15.10527613 0.00454038 -0.00493604 0.00095782
N 4.24461270 10.69780008 18.12637305 -0.00317109 -0.00514709 -0.00105057
N 5.82972166 7.67139919 15.19199309 0.00507088 -0.00092215 -0.00319610
N 2.31045663 7.09292359 17.88055527 0.00998701 -0.00156349 0.00543307
N 0.49069881 10.33706015 19.83476953 0.00059372 0.00124944 0.00927969
N 3.89017899 11.00454716 22.81921869 -0.00167248 -0.00021657 -0.00111261
N 5.72132681 8.03490807 20.25070156 -0.00580206 -0.00268191 0.00292840
N 2.17547741 7.38278916 22.51777246 -0.00784328 -0.00241283 0.00295295
N 1.02866206 15.51557965 1.06097373 0.00041899 0.00237153 0.00395736
N 4.52534559 16.68213397 3.79649949 0.00062814 0.00697733 -0.00394951
N 6.42335900 13.48240706 1.22317179 -0.00177657 0.00099371 0.00314525
N 2.90468797 12.91891418 3.71220750 0.00245083 0.00712660 0.00145637
N 0.91701085 15.71258668 5.63914776 0.00086109 0.00477058 0.00488858
N 4.75182061 16.60306561 8.31080913 -0.00621138 0.00185661 -0.00234269
N 6.32961845 13.69790185 5.77177247 0.00767717 0.00020333 0.00182550
N 2.96430617 12.74162986 8.70306290 -0.00015385 -0.00019564 -0.00407603
N 0.93675712 15.49631241 10.27953928 0.00345814 0.00200318 -0.00075395
N 4.37573880 16.61903853 13.07966739 0.00248239 0.00090084 -0.00877158
N 6.04179547 13.61655248 10.44232812 -0.00730955 0.00237761 0.00388688
N 2.72148455 12.77549526 13.52811998 0.00604028 -0.00175022 0.00036277
N 1.14600638 15.61841252 14.99522767 0.00134323 0.00165022 0.00696864
N 4.67173884 16.84038110 17.82978924 -0.00679766 -0.00544301 0.00498842
N 6.32666524 13.64564857 15.11066270 0.00727782 0.00085424 -0.00698856
N 2.81988572 12.54279467 18.08462020 -0.00305215 -0.00828700 0.00299157
N 0.74440150 16.07760403 19.86948375 0.00842328 0.00441378 0.00874328
N 4.76049097 16.73227544 22.75408235 -0.00051073 -0.00189937 -0.00571807
N 6.18068399 13.54713971 19.89727208 -0.00184340 -0.00418517 0.00155306
N 2.88849519 13.07557118 22.84415325 -0.00463031 -0.00336215 -0.00344196
N 1.36660875 21.49518383 1.02331403 0.00361189 0.00076231 0.00129693
N 4.25150225 23.76174686 3.83820660 -0.00551723 0.00422802 -0.00321057
N 5.39964539 20.26606331 0.95664958 -0.00131777 0.00369232 0.00114935
N 2.92182322 18.22956409 3.63456080 0.00172082 0.00186086 0.00523958
N 1.49124684 21.23841903 5.51588213 0.00155460 0.00025456 -0.00161435
N 4.14865795 23.42019031 8.38474158 0.00250488 -0.00042894 0.00176239
N 5.43218949 20.26754154 5.79893581 -0.00009264 0.00249554 0.00612390
N 2.94571655 18.14914356 8.54119521 -0.00148302 -0.00410325 -0.00350183
N 1.81497996 21.15186405 10.36414547 0.00044663 -0.00209536 0.00000693
N 4.11253623 23.70139216 13.25553036 -0.00978215 -0.00330077 -0.00278905
N 5.56435625 20.20326777 10.52833561 0.00272380 0.00408388 -0.00005967
N 2.89701526 18.35286641 13.28209012 0.00091783 -0.00146996 0.00112944
N 1.50003921 21.40946530 15.15927891 -0.00537672 0.00115849 0.00163477
N 4.32161517 23.45617595 17.78464620 -0.01466726 0.00523388 0.00024524
N 5.29066801 20.49207734 15.23615014 0.00178389 -0.00034092 0.00246938
N 2.96567552 18.37563246 17.94348951 -0.00352495 0.00000166 -0.00548628
N 1.84519637 21.10431757 19.86143704 0.00192158 -0.00251255 -0.00208999
N 4.21029722 23.51753221 22.90817240 0.00059795 0.00186716 -0.00416963
N 5.72066800 20.23048274 19.92327732 -0.00116562 -0.00460460 -0.00653793
N 2.73514926 17.85133591 22.70608512 0.00697620 -0.00544576 0.00406924
N 0.77911392 27.69435490 0.88306825 -0.00343182 -0.00372641 0.00160699
N 3.03382769 30.11684561 3.50177741 0.00141981 -0.00030277 -0.00465143
N 4.74071525 27.15506927 1.01666453 0.00103343 -0.00075334 0.00257275
N 2.03523561 24.27560074 3.67731164 -0.00213244 0.00131293 -0.00137234
N 0.78601549 27.75262975 5.56872748 0.00017391 0.00656149 0.00457002
N 3.41208362 30.06671401 8.43603597 0.00639198 -0.00527051 -0.00620476
N 4.73532197 26.86311864 5.61488124 0.00207247 -0.00363841 0.00407805
N 2.20847376 24.69571024 8.50461404 -0.00459185 0.00042468 -0.00043968
N 0.83505991 27.95675502 10.45113089 0.00223390 0.00057449 0.00374289
N 3.16985826 29.75193591 13.26621555 0.00531509 -0.00343220 -0.00646656
N 4.66329714 27.14232712 10.39233199 -0.00134991 0.00089567 -0.00307737
N 2.28469095 25.02665845 13.06591398 -0.00362592 -0.00141346 0.00446723
N 0.88128366 27.59381840 15.26488159 -0.00299176 -0.00871908 0.00325998
N 3.36351733 29.92226126 17.86583436 -0.00606457 -0.00525583 -0.00050529
N 4.79107285 26.95890569 15.17456574 -0.00286491 0.00295950 0.00410204
N 2.43605298 24.69464090 18.11057044 -0.00208225 -0.00427205 -0.00263161
N 0.81592618 27.90276800 19.51837502 -0.00702854 0.00096197 0.00210807
N 3.40539313 30.18681835 22.54575391 -0.00005734 -0.00348790 -0.00221111
N 5.07869493 26.80977388 19.88930882 -0.00291910 -0.00379703 0.00052572
N 2.13649007 24.47519631 22.62903603 0.00201210 -0.00053277 -0.00278892
N 7.12044408 3.98802468 1.09803138 -0.00922719 0.00032602 -0.00222088
N 10.35868076 4.93670477 3.65362996 -0.00224786 0.00476041 -0.00380364
N 11.92669828 1.71626862 1.04720460 -0.00335666 -0.00377069 -0.00012080
N 8.40309293 1.41489505 3.86770402 0.00390045 -0.00107776 0.00138191
N 6.55614082 4.31529101 5.56432554 0.00105529 -0.00113812 0.00278809
N 10.08974373 4.80176281 8.21764442 0.00087488 -0.00429899 -0.00325871
N 11.97953925 1.95694148 5.62133133 -0.00128419 0.00034193 0.00384939
N 8.49139756 1.04295904 8.39418855 -0.00218691 0.00068743 -0.00651219
N 6.85287342 4.24554498 10.27716364 0.00419506 0.00244401 0.00637823
N 9.93572093 4.80505863 13.17764098 0.00696612 -0.00125301 0.00836051
N 11.93023712 1.93029830 10.35270286 0.00188182 -0.00539660 -0.00748605
N 8.58803813 0.86080838 13.20020319 0.00251426 -0.00653617 0.00415486
N 6.81721060 4.08745899 15.14708078 -0.00192458 0.00459707 -0.00222551
N 10.09858178 4.51941445 17.97614589 0.00379033 -0.00076160 -0.00077656
N 12.04806362 1.91893756 15.22560236 0.00625948 0.00837819 0.00441686
N 8.37723650 1.00889769 17.77106009 0.00088211 0.00174831 0.00612189
N 6.77081409 4.01936222 19.87158901 -0.00058269 0.00101588 0.00187058
N 10.32855921 4.84087573 22.63068081 0.00215255 -0.00116840 0.00242878
N 11.81537154 2.35592105 19.88426062 -0.00657251 -0.00325901 -0.00756916
N 8.56253217 1.15234239 22.56307318 -0.00018223 0.00490656 0.00020664
N 7.13501188 9.68156173 1.13734641 0.00038148 -0.00117003 -0.00198291
N 11.02149481 10.65501715 3.63787983 0.00288804 0.00156853 -0.00732417
N 12.21502794 7.67572890 0.95888929 0.00313256 -0.00233080 -0.00227340
N 9.12736995 6.82715380 3.90585640 -0.00348133 0.00491806 0.00261505
N 7.07310521 9.51338402 5.87042186 0.00067517 0.00318236 -0.00120859
N 10.65606304 10.29232646 8.26139319 -0.00033103 -0.00248246 0.00016598
N 12.40518644 7.74666999 5.84362672 0.00070134 -0.00341531 -0.00051215
N 8.99575157 6.76725730 8.53841898 -0.00136625 -0.00297408 0.00097705
N 7.29614153 9.58408710 10.66914046 0.00277753 0.00060548 0.00268364
N 10.72844571 10.60303210 13.05619053 -0.00172411 0.00147691 -0.00038779
N 12.29003977 7.62142854 10.21358003 -0.00420808 0.00391411 -0.00676289
N 9.01536364 6.86470821 12.96885628 -0.00700545 -0.00285070 -0.00097716
N 7.21253519 9.46862763 15.32915087 0.00610385 0.00275956 -0.00081676
N 10.60204980 10.59619045 17.77689780 -0.00133616 0.00469329 0.00081528
N 12.48968307 7.48715529 15.23418854 -0.00133899 -0.00026770 0.00456288
N 8.73760736 6.39715582 17.83131519 -0.00463771 0.00135127 -0.00315408
N 7.43427672 9.44873729 20.04918875 0.00473174 0.00268775 -0.00052144
N 10.71154278 10.81228718 22.78043239 -0.00166588 -0.00100761 0.00253628
N 12.32205288 7.43253994 19.73494003 -0.00104829 -0.00251784 0.00398042
N 8.86590091 6.57041477 22.73290408 -0.00636243 -0.00715942 0.01006460
N 7.90671966 15.15204498 1.20560552 -0.00378206 0.00416202 0.00101260
N 10.38088500 17.82650033 3.78843043 0.00399273 -0.00168440 -0.00504218
N 11.71520075 14.38232077 1.15660187 0.00292806 -0.00258061 0.00767993
N 9.09247172 11.72833979 4.04591103 -0.00278981 -0.00056881 -0.00490066
N 7.82149122 15.46826622 5.72895799 -0.00460234 0.00182923 0.00712759
N 10.75965981 17.63731665 8.60551301 -0.00006621 0.00306005 -0.00040254
N 11.67478481 14.25547478 5.70154885 0.00702246 -0.00358464 -0.00541294
N 9.31381531 12.23351386 8.55792410 -0.00027237 -0.00351796 0.00163884
N 7.66793404 15.34610254 10.42740591 0.00478779 0.00003260 -0.00160950
N 10.31762038 17.74844741 13.26214030 0.00598500 0.00496404 0.00039421
N 11.59512708 14.39866963 10.57331924 0.00286912 0.00194060 -0.00249441
N 9.35211364 12.32965118 13.22560084 -0.00366500 -0.00721841 0.00613373
N 7.77126661 15.54467383 15.22395892 0.00096483 -0.00303108 -0.00175741
N 10.21177789 17.57147159 18.05517247 0.00187601 0.00076232 0.00004697
N 11.66258947 14.45268119 15.33423897 0.00139411 0.00388523 0.00079176
N 9.10351348 12.24129468 17.88033805 -0.00022404 -0.00181178 0.00219793
N 7.53911491 15.34285862 19.70485465 0.00283428 0.00499090 -0.00010160
N 10.07072485 17.40232784 22.65207934 -0.00307988 0.00350839 -0.00226589
N 11.29676505 14.26169783 19.94216262 0.00468672 -0.00196178 -0.00060607
N 9.08243258 12.38757784 22.60269344 -0.00650679 0.00066069 0.00248968
N 7.15502803 21.78093732 0.99073772 0.00216087 0.00208145 -0.00031533
N 9.60697938 23.96040076 3.52917965 -0.00526904 -0.00050153 -0.00716530
N 11.23487234 20.95960883 1.17010352 0.00162210 -0.00312527 0.00260473
N 8.18205084 18.56448971 3.72173884 0.00678751 -0.00227954 -0.00420382
N 7.21333449 21.65929036 5.76404684 -0.00176470 0.00534823 -0.00731662