2000
Time=66000.00000006 pbc="T T T" Lattice="31.40799284 0.00000000 0.00000000 0.00000000 30.04227056 0.00000000 0.00000000 0.00000000 23.70231227" energy=-12039.13844752 virial="-100.80830498 4.75594188 2.86528477 4.75594188 -95.57537365 12.28132714 2.86528477 12.28132714 -109.28242002" stress="-0.00243778 0.00023973 0.00009437 0.00023973 -0.00214245 0.00048778 0.00009437 0.00048778 -0.00227759" Properties=species:S:1:pos:R:3:vel:R:3
C 30.56252018 3.58881116 1.74416488 -0.00582404 -0.00152715 0.00024943
C 2.35750451 0.43481033 3.06336230 -0.00260270 0.00045331 0.00161338
C 31.01335283 3.44332760 6.50352348 -0.00072105 0.00076220 -0.00414545
C 2.65172836 0.68124211 7.89867837 -0.00310365 -0.00578854 -0.00152205
C 30.49728141 3.60702319 11.05104078 -0.00098836 0.00091730 0.00463949
C 2.45523648 0.36579695 12.80186772 -0.00566790 0.00494907 -0.00044145
C 30.78372780 3.76763243 15.85032099 -0.00381744 -0.00364256 0.00295107
C 2.66048515 0.49603729 17.40752441 0.00108865 0.00258095 -0.00095255
C 31.09003386 3.55250832 20.67942904 -0.00436353 -0.00420784 -0.00124582
C 2.55736336 0.59635837 21.93871052 -0.00003861 0.00700432 0.00283655
C 30.94087145 9.36982301 1.64202576 0.00162031 0.00289024 0.00367365
C 3.02844467 6.12971208 3.04156176 0.00249836 -0.00228191 -0.00334377
C 31.22194086 9.27573916 6.27580642 0.00183729 0.00376485 0.00539474
C 3.01221983 6.28441726 7.77322819 0.00455725 -0.00336161 -0.00403411
C 31.22038049 9.48704724 10.98138210 -0.00796667 0.00398905 0.00468413
C 2.52694782 6.00365206 12.74875438 -0.00385827 0.00729088 -0.00638200
C 31.07674449 9.54917413 15.83825904 0.00534772 0.00082602 -0.00015716
C 3.21188229 6.18685885 17.27228898 0.00258164 0.00058875 -0.00107549
C 31.13164194 9.11613612 20.51641178 0.00041682 -0.00587715 -0.00040430
C 3.07625647 5.83775771 21.93838251 0.00109210 0.00722071 -0.00428916
C 0.58759927 14.64811251 1.61904030 0.00017306 -0.00239170 -0.00018989
C 3.60756453 11.72686967 2.89786737 0.00044152 0.00217044 -0.00415552
C 0.25586021 14.66068945 6.25682975 -0.00375135 -0.00156800 0.00854671
C 3.45700877 11.70183540 7.49820262 0.00563067 0.00563443 0.00106905
C 0.08842072 14.86055829 10.95917731 -0.00464230 -0.00191003 0.00176639
C 3.15327300 11.90342878 12.26236423 0.00048444 0.00362831 0.00270012
C 0.33972344 15.02356086 15.81032517 0.00139282 0.00010147 0.00419510
C 3.47124715 11.74679376 16.95398523 0.00092206 0.00328494 0.00426984
C 31.38185043 14.81215188 20.55516521 0.00300704 0.00031262 0.00094956
C 3.47520515 11.66294311 21.71824904 0.00487816 0.00304589 -0.00299136
C 0.73831700 20.32643400 1.65717390 -0.00281766 -0.00188584 -0.00497362
C 3.80663143 17.65437172 2.86204973 0.00539383 0.00482131 -0.00223667
C 0.68989856 20.49021099 6.38630544 -0.00455753 -0.00475003 0.00445814
C 3.71408266 17.59898885 7.57017395 0.00280686 -0.00151423 -0.00219534
C 0.39808770 20.36304805 11.24159368 0.00926833 -0.00406048 0.00191457
C 3.50186202 17.57185819 12.42861378 -0.00521991 0.00372066 0.00244327
C 0.63265837 20.57640908 15.82081959 0.00278907 0.00118584 0.00486538
C 3.95000208 17.71042428 17.04668568 0.00664329 -0.00281509 -0.00221626
C 0.63775794 20.45629374 20.55641886 0.00261252 0.00035862 0.00033444
C 4.01117727 17.56999310 21.85959258 0.00301335 -0.00605854 -0.00168630
C 31.25604843 26.61680296 1.67874279 0.00277593 -0.00665301 0.00474073
C 3.10168219 23.85815452 3.05704005 -0.00782111 0.00458133 0.00824761
C 31.31363562 26.85834976 6.42534818 0.00135472 0.00303107 -0.00365075
C 3.13493626 24.09444311 7.87611863 -0.00536881 -0.00518772 0.00023715
C 0.00199272 27.27447830 11.27272564 0.00064431 -0.00004833 0.00697087
C 3.05687451 23.89653699 12.55777591 0.00498116 -0.00313918 -0.00364683
C 31.36356811 27.01459843 15.99841554 -0.00425107 -0.00275927 0.00336654
C 3.07557402 24.31109012 17.23787644 0.00449239 0.00138684 -0.00196600
C 31.10970475 26.87394073 20.47257233 -0.00152030 -0.00028037 -0.00082449
C 3.23223376 24.06674293 21.96314287 0.00488067 0.00269448 -0.00389792
C 6.01201610 3.15077837 1.89185490 0.00070806 -0.00110509 0.00260421
C 9.16232371 0.15207874 3.30033315 -0.00031372 -0.00450896 0.00500815
C 6.11037731 3.10361363 6.56511069 -0.00671983 -0.00302399 -0.00445312
C 9.33361599 0.22805534 7.86528002 0.00787313 -0.00167638 -0.00818289
C 5.86307026 3.24634255 11.34014632 -0.00596319 0.00260578 0.00300291
C 9.41773701 0.15388152 12.61965199 0.00083726 -0.00129174 -0.00595062
C 6.28765591 3.10272139 15.92839046 -0.00116882 0.00642265 0.00154857
C 9.04030337 0.03301639 17.29402485 -0.00293056 0.00164188 -0.00047209
C 6.38217933 2.91373032 20.68073141 0.00285434 0.00411631 0.00730788
C 9.24324968 0.05732382 21.93818529 -0.00029425 0.00192228 0.00332273
C 6.36603247 8.60139967 1.79156450 -0.00192151 -0.00368263 0.00345233
C 9.56344389 5.92035382 3.18888274 -0.00443989 -0.00208829 -0.00451456
C 6.62211588 8.62400567 6.58500223 -0.00747910 -0.00563485 0.00429505
C 9.43565334 5.95101875 8.01977427 -0.00407739 -0.00501327 0.00213774
C 6.49780762 8.83371187 11.38290293 -0.00328783 0.00570749 -0.00296295
C 9.71779657 5.97255412 12.69323096 -0.00554526 -0.00133528 0.00376592
C 6.59608936 8.89811293 15.85552812 0.00100495 0.00106901 0.00477691
C 9.74295412 5.73305169 17.25037308 0.00346058 0.00071499 -0.00034953
C 6.46921901 8.72958558 20.71481355 0.00126638 0.00127720 0.00078397
C 9.45302402 5.65210077 22.10727063 0.00438774 0.00329955 0.00467900
C 6.86805295 14.53824218 1.58039232 0.00117972 -0.00652069 0.00582398
C 9.92495020 11.29772415 2.82430998 -0.00238505 -0.00588771 -0.00047510
C 6.96974707 14.36569864 6.27779353 0.00066340 0.00841577 -0.00132368
C 9.88015492 11.15771005 7.84294808 0.00606410 -0.00765662 0.00257144
C 6.77507947 14.48383856 10.91286039 -0.00760179 0.00304183 0.00151107
C 10.09961597 11.50943527 12.50262412 -0.00250077 0.00326121 -0.00293070
C 6.37007449 14.42309180 15.86475985 0.00137816 0.00579454 0.00045475
C 9.86098036 11.38923119 16.98545547 -0.00488553 0.00513234 -0.00209014
C 6.77783613 14.54320159 20.63331666 -0.00391267 0.00027402 0.00394702
C 9.52073830 11.24264794 21.89940598 0.00144929 0.00469530 -0.00449662
C 6.18403597 21.25107509 1.89609001 0.00123559 0.00472368 0.00655125
C 9.34453770 18.15177368 2.88127093 -0.00465017 0.00245117 -0.00668651
C 6.33770764 21.03567920 6.45586174 0.00473238 0.00068780 0.00194287
C 9.79521596 18.08097299 7.63216192 0.00246879 0.00396860 -0.00850573
C 6.44609053 20.85829192 11.15464618 -0.00106032 -0.00259747 -0.00836716
C 9.59381817 17.68043971 12.54777331 0.00049196 0.00447860 0.00056031
C 6.53038684 21.20496103 15.96759459 -0.00271833 0.00370717 0.00724866
C 9.38922459 18.01368399 17.23240976 0.00426091 0.00309684 -0.00174814
C 6.24328365 21.17189552 20.53295199 -0.00038440 0.00232370 0.00292181
C 9.34467248 18.41890360 21.99580274 -0.00160241 0.00513316 -0.00061768
C 5.71920668 27.44324240 1.94810923 0.00203589 -0.00027132 -0.00101347
C 8.65282430 24.80440054 3.30177697 -0.00282626 0.00367020 0.00578977
C 5.61192201 27.51384236 6.71038484 -0.00247221 0.00919538 0.00102024
C 8.57535136 24.76508813 7.96183560 -0.00606833 -0.00156552 0.00113489
C 5.84124052 27.92813419 11.40303838 -0.00357020 0.01010656 -0.00860270
C 8.99238429 24.89732800 12.56461723 -0.00022912 0.00361161 0.00023813
C 5.67521951 27.54770378 16.15794983 0.00320051 -0.00327571 -0.00131824
C 8.57151270 24.98535523 17.30641178 -0.00298283 0.00282228 -0.00425076
C 5.57586851 27.50494741 20.92778537 0.00128305 0.00087166 0.00401796
C 9.00134910 24.89751101 22.12804409 -0.00384764 0.00109088 -0.00014749
C 12.74843290 2.82746257 1.80636632 0.00011910 -0.00277698 0.00002982
C 15.72896121 29.90132469 3.10743131 0.00121679 -0.00177999 -0.00133462
C 12.67106390 3.00761445 6.70398370 -0.00012260 -0.00541951 -0.00377705
C 16.03924764 29.93431508 7.84927465 -0.00276665 0.00333001 -0.00259497
C 12.71909470 2.57291771 11.37545665 0.00540727 -0.00328959 0.00500560
C 15.98952844 29.63240688 12.74109971 -0.00408252 0.00312312 0.00774445
C 12.90881864 2.76290821 16.02758762 0.00389416 -0.00425530 0.00064741
C 15.99561708 29.90120177 17.40495454 -0.00681553 0.00678836 0.00201286
C 12.72991230 2.49122430 20.74543093 -0.00447703 -0.00261329 0.00277899
C 15.97301409 29.87334429 22.22237386 -0.00000565 0.00012016 0.00423873
C 13.23027140 8.45950287 1.73863743 -0.00452504 -0.00284893 -0.00078854
C 16.49684832 5.60685339 2.98342352 -0.00648452 0.00218622 0.00451708
C 13.12687007 8.64892576 6.44954425 -0.00476106 -0.01119321 0.00285580
C 16.33952717 5.42270439 7.74201177 -0.00212333 -0.00623283 -0.00102703
C 13.41053601 8.39181875 11.30263229 0.00171520 0.00370640 0.00073820
C 16.32868715 5.43901278 12.51072619 -0.00253721 0.00443389 0.00093655
C 13.31324804 8.38643831 16.04484959 0.00239478 0.00124714 0.00106602
C 16.44418983 5.34200299 17.38204446 0.00930560 -0.00200677 -0.00405078
C 12.89041945 8.33558300 20.66829540 -0.00194137 0.00808577 -0.00001626
C 16.22984158 5.48753228 21.97668793 -0.00201103 -0.00910149 0.00011879
C 12.49903112 14.84485260 1.72545129 -0.00972080 -0.00022017 -0.00566200
C 15.74660790 12.16640774 2.82470355 -0.00250534 0.00235934 0.00345099
C 12.59180017 15.10440121 6.35109697 0.00440309 -0.00140377 -0.00056861
C 15.63084117 11.89524186 7.49925078 0.00725502 0.00607205 0.00228207
C 12.87113766 14.78802469 11.04109048 -0.00567525 0.00344986 0.00221608
C 15.80923796 12.14761383 12.48582047 0.00083076 0.00329216 -0.00135574
C 12.51960908 14.96968410 15.89748049 -0.00272132 0.00391506 -0.00564841
C 15.64006499 11.74534293 17.17389837 -0.00356774 0.00346584 0.00328017
C 12.22724638 15.07440983 20.51725861 0.00377639 0.00246800 -0.00254300
C 15.46749215 11.99144114 22.06563105 -0.00102692 -0.00083767 -0.00047588
C 11.92680497 21.70225973 1.73279408 -0.00073626 -0.00248495 -0.00027927
C 14.87917721 18.35502060 2.92972684 -0.00276327 -0.00167327 -0.00232120
C 11.96171949 21.69007149 6.48069965 -0.00051649 -0.00592519 0.00499252
C 15.26954125 18.57146285 7.86614051 0.00450215 -0.00132475 0.00399106
C 11.98841654 21.82110359 11.18435207 0.00216200 0.00070702 0.00486752
C 14.89014994 18.24706488 12.46269109 -0.00429456 0.00796758 -0.00186094
C 12.11701268 21.41008338 15.80509928 0.00043735 0.00343316 -0.00720870
C 15.13365176 18.71203377 17.17415528 0.00067611 0.00423007 -0.00232054
C 12.08623483 21.70200017 20.74842587 -0.00180729 -0.00635310 -0.00033916
C 14.78934570 18.63422420 21.87136457 0.00652265 -0.00141187 -0.00437114
C 12.11359144 27.21505001 1.93533817 0.00582898 0.00997036 -0.00820261
C 15.64777876 24.30349258 3.15106103 -0.00753671 0.00117354 0.00365071
C 12.55087428 27.00637991 6.65980758 0.00410186 0.00578459 0.00529685
C 15.69674652 24.21053797 7.82900905 0.00161862 -0.00272295 0.00042771
C 12.50336557 27.43350615 11.21842727 -0.00328075 0.00120586 0.00029442
C 15.51411724 24.15869719 12.46578971 -0.00133083 0.00304011 0.00404210
C 12.80442831 27.43360561 15.79024889 -0.01094931 0.00280609 0.00419691
C 15.51704131 24.13719044 17.31542412 0.00173368 0.00023047 -0.00168657
C 12.36473756 27.14803125 20.68396970 0.00758064 -0.00004368 0.00439413
C 15.17313132 24.18970563 21.99214707 0.01055845 0.00333800 -0.00234681
C 19.51894335 2.48539986 1.73775380 -0.00074152 -0.00167909 -0.00340090
C 22.30926334 29.54803533 2.89486241 0.00628123 -0.00591822 0.00048155
C 19.43288285 2.69720901 6.43511473 0.00976159 -0.00741080 -0.00300558
C 22.41855376 29.70224835 7.59669518 0.00714639 -0.00508881 -0.00108821
C 19.42265509 2.43143635 11.46564301 0.00548088 -0.00153792 -0.00213566
C 22.70988813 29.52932413 12.38641931 -0.00329772 -0.00310775 -0.00304335
C 19.55343673 2.58079194 16.13925392 -0.00031290 0.00347745 0.00503055
C 22.59677562 29.39121053 17.14708721 -0.00250344 0.00981285 -0.00383106
C 19.50422361 2.47217967 20.78685941 -0.00264087 0.00690333 -0.00363145
C 22.78421982 29.48144159 21.96786987 0.00122079 0.00335155 -0.00412213
C 19.01592989 9.17740296 1.73110397 -0.00528570 -0.00635878 0.00207509
C 21.99587048 6.25607971 2.97582064 -0.00174955 -0.00306013 -0.00065544
C 18.87661330 9.24798417 6.65968714 -0.00241378 0.00775357 -0.00024056
C 21.94906424 6.08488941 7.94109662 0.00614332 0.00200584 0.00534047
C 18.93253796 8.79316672 11.20743409 0.00328819 -0.00050964 0.00107845
C 21.76354007 6.12840412 12.63001271 0.00464628 0.01053020 -0.00620921
C 18.65802989 9.19912627 16.08083337 -0.00648814 0.00151053 -0.00072493
C 22.04142200 5.98931493 17.40398298 -0.01117352 0.00785068 -0.00490400
C 18.75232409 9.23082491 20.66978336 -0.00011959 0.00036367 -0.00048469
C 22.06083754 6.01769900 21.87065863 0.00494210 0.00491239 -0.00900969
C 18.34998264 15.61352424 1.74438016 0.00515345 0.00012295 0.00663839
C 21.33792082 12.62321512 2.90123770 0.00001637 0.00018850 -0.00277738
C 18.11109462 15.83372013 6.37422837 0.00240839 -0.00372943 -0.00184110
C 21.46236533 12.37963659 7.74567284 -0.00151092 0.00535357 -0.00080475
C 18.20099716 15.50144420 11.22397960 -0.00237013 0.00732456 -0.00154241
C 21.38286769 12.30180799 12.60378420 -0.00310454 -0.00291678 -0.00450981
C 18.15100676 15.50996862 15.93417009 0.00117766 -0.00281517 0.00278018
C 21.66406510 12.67621303 17.34032434 -0.00027446 0.00243503 0.00323844
C 18.08173898 15.49186230 20.52571295 -0.00632969 0.00378652 0.00712449
C 21.60586989 12.48712938 22.03980177 0.00488618 0.00154005 -0.00287646
C 18.45914596 21.28765804 1.55649759 0.00266707 0.00017597 -0.00273145
C 21.51457716 18.07504993 2.88046737 0.00228083 0.00604381 0.00336268
C 18.80605011 21.10687981 6.46782590 0.00238109 -0.00849793 -0.00543592
C 21.28083439 18.09170359 7.75550766 -0.00040592 -0.00157658 -0.00362306
C 18.56410500 21.10035867 11.40534243 0.00365506 -0.00384214 -0.00244888
C 21.82157196 18.13080000 12.53962338 -0.00199593 0.00037242 -0.00005229
C 18.44453851 21.11772533 15.86352488 -0.00015525 -0.00256801 0.00002244
C 21.67927195 18.09793655 17.36009613 -0.00263460 -0.00122932 -0.00038502
C 18.79212564 21.33809703 20.68067738 0.00446089 -0.00502954 -0.00416800
C 21.84884926 18.19482106 22.02474177 0.00061391 -0.00286809 -0.00444960
C 18.80524446 26.87256623 1.70966020 -0.00278710 -0.00539375 -0.00152262
C 21.98327639 23.64895646 2.99770532 0.00188071 0.00138347 0.00308287
C 19.25422492 26.79969798 6.37271548 -0.00714924 -0.00246096 0.00413318
C 22.28098008 23.95658291 7.85837054 0.00403573 -0.00745373 -0.00067337
C 19.26231819 26.88813132 11.26238303 -0.00507158 -0.00109955 -0.00642713
C 22.05137098 23.64901301 12.45169150 -0.00171337 0.00247072 -0.00241002
C 18.90700590 26.61580551 16.08587771 -0.00249603 -0.00131487 -0.00447588
C 22.36069847 23.89144507 17.48676480 0.00671292 -0.00001192 0.00679066
C 19.15535104 26.73127742 20.85808963 -0.00406835 0.00316276 -0.00031603
C 22.10461429 23.78962116 22.06608161 0.00012445 0.00115900 0.00448243
C 25.08780523 3.04779159 1.83917070 0.00256186 0.00026232 -0.00107493
C 28.24165914 30.00189740 2.93361314 -0.00252969 0.00512884 0.00039069
C 25.12110382 3.16375352 6.55050141 -0.00827522 0.00619754 0.00053882
C 28.07676236 30.02056368 7.90437531 0.00602773 -0.00112088 -0.00457543
C 24.74989184 3.41674302 11.09926790 0.00023561 0.00183763 -0.00724727
C 28.15000722 0.12253936 12.66965950 0.00515898 -0.00153158 -0.00965038
C 25.12753964 3.01894955 15.97553782 -0.00212935 -0.00047183 0.00973196
C 28.36614667 30.04199998 17.24238944 0.00565572 0.00113329 0.00545804
C 25.35330536 3.04678104 20.60249728 -0.00631249 -0.01212402 -0.00077178
C 28.43201073 29.81661527 22.05885938 0.00004005 -0.00819966 -0.00200104
C 24.63277357 9.66031704 1.64574456 -0.00228314 0.00609264 -0.00258331
C 27.51917686 6.65326228 2.90980029 0.00709483 0.00382411 -0.00265118
C 24.64948259 9.91172253 6.30524755 0.00568390 -0.00346542 -0.00049247
C 27.99075081 6.76876493 7.61588181 -0.00020456 -0.00217055 0.00546518
C 24.79354162 9.49097583 11.15538663 -0.00060486 -0.00090584 -0.00627229
C 27.84032327 6.58523037 12.55848782 -0.00100016 0.00370772 -0.00993349
C 24.29443562 9.53211805 15.98268719 -0.00261908 -0.00326420 -0.00398394
C 28.18393280 6.41195996 17.16284585 -0.00025590 0.00329387 0.00462494
C 24.52392929 9.59258319 20.76402156 0.00195856 -0.00922855 0.00534691
C 27.49428796 6.48694952 22.05975132 -0.00635346 -0.00141664 0.00154464
C 25.09394609 15.33414636 1.63726997 0.00847778 -0.00221387 -0.00025271
C 28.07500148 12.26500317 2.82374244 0.00426485 -0.00167853 0.00237163
C 25.11007609 15.28687315 6.36028785 -0.00547691 -0.00228039 0.00221560
C 27.96891214 12.41763512 7.67756449 -0.00039869 -0.00161502 0.00643761
C 25.04053942 15.15088539 11.16332549 0.01257893 -0.00694300 -0.01041377
C 27.93353905 12.21792465 12.38431951 0.00683084 0.00004824 -0.00258244
C 25.06376583 15.22152078 16.11098874 0.00333309 0.00347906 -0.00812153
C 27.99691264 12.19189757 17.22169894 0.00131028 -0.00106267 0.00150719
C 25.13986956 15.20127122 20.78572752 -0.00344358 0.00244880 -0.00454989
C 28.26075374 12.17437604 21.94107570 -0.00251282 -0.00100999 -0.00190331
C 25.27398572 20.80306927 1.62299871 -0.00324129 0.00149881 -0.00600201
C 28.90424779 17.86205517 2.75617697 -0.00467351 0.00644762 0.00138179
C 25.16625026 20.46966611 6.20467763 -0.00518614 -0.00101824 -0.00157214
C 28.62714982 17.77203253 7.72340016 -0.01055103 -0.00406766 -0.00152898
C 25.48327241 20.83639682 11.10139130 0.00064894 0.00024848 0.00059576
C 28.60494868 17.92511771 12.50760740 0.00878296 0.00197512 -0.00584619
C 25.43641181 20.75463371 15.88316205 0.00295979 -0.00345158 0.00518714
C 28.28246700 18.08782943 17.21523619 -0.00107885 0.00284984 0.00034813
C 25.17741860 20.90725066 20.81395978 -0.00038273 -0.00304867 -0.00326332
C 28.45511545 17.99362401 21.81804384 -0.00354012 -0.00202707 0.00371172
C 25.67986381 26.26494426 1.72879326 -0.00683968 -0.00906792 0.00784640
C 28.64118638 23.38778749 3.06065211 0.00003270 0.00487447 -0.00316840
C 25.84429335 26.47102711 6.43812374 0.00086536 0.00332383 0.00075849
C 28.97349792 23.39616203 7.72876458 -0.00122603 0.00591508 0.00026224
C 25.43899416 26.59305128 10.98065182 -0.00045825 0.00191292 0.00258290
C 28.92101692 23.58266746 12.39493740 0.00336245 -0.00236418 -0.00002716
C 25.69250107 26.30297056 15.90111413 -0.00401973 -0.00559229 0.00037506
C 28.65646495 23.41899231 17.12052762 0.00751336 -0.00351629 -0.00357565
C 25.58254469 26.29641084 20.55603513 -0.00095957 0.00300941 0.00295929
C 28.98874552 23.44125076 22.08476036 0.00303751 -0.00622312 0.00458023
N 0.01278455 4.38253791 1.11039636 0.00097254 -0.00736117 -0.00184876
N 3.55571891 5.16307824 3.81767474 0.00392720 -0.00107730 -0.00115092
N 5.43706615 2.21253139 1.17520773 0.00346080 0.00116958 -0.00577040
N 1.57296611 1.33935131 3.73521010 -0.00638118 0.00390643 -0.00228624
N 0.35495495 4.30430772 5.74059110 -0.00806003 0.00084456 0.00430124
N 3.47386662 5.28736579 8.53350803 0.00129860 -0.00596397 -0.00305525
N 5.22867220 2.42567017 5.76714036 0.00201232 0.00036721 0.00199123
N 1.82841665 1.46659953 8.64012544 -0.00081739 0.00242795 0.00282610
N 31.40297184 4.34503431 10.41849571 0.00728790 -0.00237110 -0.00062424
N 3.18023844 5.10870045 13.59428329 -0.00026283 0.00643726 0.00148050
N 5.25769524 2.39245933 10.50003009 0.00409235 -0.00590705 0.00444660
N 1.71056266 1.27976634 13.45844993 0.00081866 -0.00681567 -0.00211239
N 0.14889740 4.55464285 15.04248586 0.00561722 -0.00171609 0.00012200
N 3.76920803 5.10628161 17.87727872 -0.00861999 0.00169076 0.00231197
N 5.50517226 2.21107944 15.26721651 -0.00016821 -0.00148441 -0.00111661
N 1.70323838 1.10706113 18.05932962 -0.00437833 0.00896882 0.00644552
N 0.50655633 4.26215659 19.84079236 -0.00260640 0.00626258 -0.00392778
N 3.55970189 5.05303666 22.90314728 0.00519472 0.00382056 0.00292693
N 5.57239119 2.01715595 20.00839360 0.00453181 -0.00164130 0.00019770
N 1.79803274 1.28471677 22.79930725 0.00171342 0.01032817 -0.00306493
N 0.26369579 10.24147533 0.87462428 0.00176519 -0.00181326 0.00421349
N 4.34320153 10.92427506 3.75599002 -0.00560777 -0.00109456 0.00309087
N 5.49500113 7.92272474 1.02530999 -0.00420277 0.00019757 0.00175686
N 2.47955190 7.23164198 3.68494733 0.00203108 0.00200590 0.00017217
N 0.65852618 10.03019782 5.54068666 0.00383864 -0.00232486 0.00155366
N 4.22661579 10.81885197 8.22357498 -0.00777852 -0.00086917 -0.00144348
N 6.00924352 7.72583063 5.75612194 -0.00250844 -0.00025976 0.00048486
N 2.36259693 7.27328661 8.42569883 -0.00241306 0.00010679 -0.00355466
N 0.69640469 10.15379795 10.20819285 0.00285659 0.00620840 -0.00711536
N 3.81457554 10.86404191 12.84214163 -0.00013003 0.00580387 0.00359084
N 5.71936715 7.94928014 10.74638950 0.00135937 -0.00096823 0.00298750
N 2.11189513 7.15699740 13.28672840 -0.00530708 -0.00079168 0.00153658
N 0.34746860 10.43086778 15.09582035 -0.00533690 -0.00624083 -0.00501701
N 3.97451453 10.75641727 17.71293582 0.00061946 0.00337977 0.00276132
N 5.81062655 8.11550472 15.05015761 -0.00324389 -0.00312625 0.00167942
N 2.56822761 7.04702937 18.08211371 -0.00257465 0.00038703 -0.00043016
N 0.46183170 9.99887254 19.78026115 -0.00220781 0.00128221 0.00160778
N 3.86161992 10.60395158 22.49968686 -0.01080993 -0.00437972 0.00361853
N 5.92343756 7.91870766 19.80238232 0.00154580 -0.00245745 0.00040093
N 2.54511498 7.02816222 22.33106501 0.00746958 -0.00031774 -0.00192952
N 1.32227440 15.55859994 0.91022057 0.00200609 -0.00298321 -0.00150003
N 4.67714068 16.86637873 3.56504485 0.00092593 0.00216878 0.00213264
N 6.09045832 13.71611165 0.86679228 -0.00019004 0.00055138 0.00758717
N 2.99195268 12.74550591 3.54392297 -0.00245957 0.00248632 -0.00659203
N 1.03476095 15.41527715 5.42197357 -0.00587647 0.00425238 -0.00194469
N 4.52713621 16.82734312 8.33000729 0.00403318 -0.00080903 0.00308134
N 6.03103891 13.62313025 5.67171465 0.00377734 -0.00541322 -0.00527390
N 2.92502772 12.77609967 8.12134552 -0.00367255 0.00269497 -0.00015996
N 0.97793112 15.43390173 10.09951440 0.00411780 0.00131124 0.00068586
N 4.21845215 16.67539269 13.07085288 0.00430242 -0.00212994 0.00534342
N 6.06924014 13.57064242 10.24166647 0.00065400 -0.00359352 -0.00455797
N 2.64690474 12.86685768 13.05269153 -0.00032811 0.00199311 -0.00617427
N 1.27985975 15.59690532 15.02755350 0.00143628 -0.00133839 -0.00363002
N 4.75612131 17.04502242 17.92788584 0.00225468 0.00512562 -0.00624620
N 5.66995101 13.67941572 15.00819205 0.00547200 0.00471744 0.00484955
N 2.86738183 12.75532688 17.67002635 0.00053946 -0.00358221 -0.00034979
N 0.64586941 15.94640863 20.07820240 -0.00393513 0.00083280 -0.00625741
N 4.83523274 17.00930489 22.78205038 0.00290369 0.00080884 0.00210169
N 6.09208560 13.61103371 19.90562415 -0.00479990 0.00174835 -0.00457620
N 2.99594898 12.69102264 22.42090248 -0.00684447 0.00155995 0.00416169
N 1.60027613 21.10809598 0.96698553 -0.00461855 -0.00107705 -0.00178769
N 4.10714083 23.35780330 3.85677189 -0.00736578 -0.00029200 0.00149701
N 5.42662047 20.34345764 1.19994112 0.01072192 0.00007891 -0.00336504
N 2.86423794 18.29125092 3.62256677 -0.00392735 0.00150804 -0.00396159
N 1.45881607 21.34507155 5.61883764 0.00344758 -0.00069728 0.00003837
N 4.28714842 23.59020074 8.55058951 -0.00401857 -0.00529172 0.00278615
N 5.37564151 20.24939250 5.81470531 -0.00591263 -0.00252222 -0.00394551
N 2.78632053 18.33864473 8.29160143 -0.00061413 0.00040433 -0.00471568
N 1.40326832 21.08001981 10.72175027 0.00670465 0.00371384 0.00286330
N 4.11897868 23.56979356 13.33085670 0.00375991 -0.00709744 0.00779547
N 5.58415173 20.15655818 10.36234667 0.00622227 -0.00228461 0.00567982
N 2.64707080 18.37450883 13.14873371 -0.00894034 0.00160293 -0.00214149
N 1.37136908 21.48332217 15.10500392 -0.00018020 -0.00230763 -0.00216649
N 4.10401956 23.66288838 17.83996544 -0.00111465 -0.00091629 0.00688789
N 5.60771274 20.42032872 15.30679838 -0.00557680 0.00689413 0.00201208
N 3.06695726 18.64605559 17.58137741 0.00546087 -0.00594871 -0.00194497
N 1.56847323 21.32441896 20.04796106 0.00631037 0.00108378 0.00544246
N 4.17916137 23.51634425 22.77952381 -0.00803593 0.00229563 0.00510323
N 5.45158988 20.35892820 19.88608257 -0.00082635 0.00347421 -0.00329061
N 3.09514899 18.47327499 22.43978056 0.00090076 0.00218091 -0.00843491
N 0.73854930 27.44695091 1.08486019 -0.00224577 0.00308632 -0.00206371
N 3.29236026 29.76883141 3.83224443 -0.00138654 -0.00279172 -0.00374097
N 5.06677920 26.45262688 1.31866623 0.00128362 -0.00499961 0.00867464
N 2.08622194 24.37555767 3.77039136 0.00268800 -0.00180664 0.00548385
N 0.57926061 27.70953093 5.63528082 -0.00411617 0.00187039 -0.00022746
N 3.46182103 29.77361977 8.57877946 -0.00059661 -0.00401228 -0.00409917
N 4.97473504 26.69908407 5.81286545 -0.00798187 -0.00611861 0.00446997
N 2.21046715 24.70565234 8.56282493 0.00069063 0.00597275 -0.00535407
N 0.79929179 27.93819264 10.41089536 -0.00401866 -0.00310583 -0.00385955
N 3.24572542 29.65712237 13.61971912 0.00530307 -0.00017989 0.00285001
N 4.86011651 27.16992790 10.85202456 -0.00104443 -0.01041307 0.00022321
N 2.15271174 24.69686264 13.16791649 0.00321541 -0.00189334 0.00072878
N 0.82030550 27.89087933 15.34872606 -0.00037596 0.00714811 -0.00475017
N 3.46781383 29.77584256 18.18206707 0.00293535 0.00486537 0.00439090
N 4.95475605 26.78423851 15.27938675 0.00068566 0.00379755 -0.00410373
N 2.25795874 24.88986186 18.07929153 -0.00457717 -0.00268997 -0.00465845
N 0.50097712 27.77273723 19.88095214 0.00240676 0.00227958 -0.00456972
N 3.43589000 29.70593828 22.56061555 -0.00096548 0.00154916 -0.00135575
N 4.91344283 26.74006262 20.12677434 -0.00256112 0.00319463 0.00357948
N 2.30400336 24.83399076 22.55739889 0.00738802 -0.00345621 0.00060887
N 6.79054635 4.01557361 1.22990575 0.00286131 -0.00133443 -0.00385197
N 10.22700275 4.94356693 3.80351039 0.00205690 -0.00198750 -0.00271350
N 12.17715020 1.79294970 1.14782795 -0.00562023 0.00369902 -0.00284072
N 8.67924225 1.30599793 3.99820528 -0.00515351 0.00133878 -0.00194608
N 6.78640382 4.12327547 5.93174773 0.00758458 0.00069866 -0.00645501
N 10.05591269 4.98281042 8.78391518 0.00163394 0.00061541 -0.00005098
N 11.90022788 2.25327843 5.82827996 0.00163140 -0.00234216 -0.00142194
N 8.64312498 1.18480869 8.59692055 0.00011217 -0.00320155 -0.00104425
N 6.71130871 4.08678994 10.69689777 0.00354394 0.00548167 0.01030805
N 10.45116850 5.01558916 13.34268022 -0.00422499 0.00367748 -0.00127248
N 11.73071432 1.95898419 10.66816704 -0.00453875 -0.00126583 -0.00207744
N 8.99755340 1.33411111 13.29327190 -0.00027624 -0.00725108 0.00323772
N 6.95942461 4.02409100 15.22306186 0.00372278 0.00497833 0.00251050
N 10.19176993 4.68195372 17.98410666 0.00111780 -0.00559588 0.00261799
N 12.26265558 1.73164547 15.40831720 -0.00735550 -0.00444281 -0.00107388
N 8.33701970 0.99065683 17.99814855 0.00075501 -0.00448592 0.00761192
N 6.88066052 3.82708959 19.82885467 0.00398868 0.00412012 0.00176196
N 9.91074842 4.60746057 22.87821357 0.00663821 -0.00322808 0.00152856
N 11.88532719 1.75426111 19.96876512 -0.00441384 0.00078096 0.00311515
N 8.48909726 0.79250236 22.90607147 -0.00362024 -0.00046639 0.00173490
N 7.13623800 9.52992179 1.17879375 -0.00315747 -0.00464702 0.00605662
N 10.70810259 10.68621544 3.67789595 0.00101719 0.00293875 0.00020781
N 12.34057473 7.76139020 0.99153844 -0.00189526 0.00234307 0.00080657
N 8.88696383 6.83611645 4.04840063 -0.00182773 0.00625180 0.00065419
N 7.32765133 9.64687071 6.03287817 -0.00238679 0.00033130 -0.00323244
N 10.68754744 10.43048816 8.67030026 0.00374692 0.00334281 0.00438185
N 12.27333122 7.77128238 5.80642281 -0.00085016 0.00247640 0.00103879
N 9.02218845 7.06307292 8.68921099 -0.00238772 -0.00667279 -0.00111422
N 7.18960552 9.65317463 10.54240995 0.00302992 0.00301180 -0.00157593
N 10.86055999 10.69496933 13.27499508 0.00203880 0.00266189 -0.00631503
N 12.60638845 7.55237136 10.66872754 0.00311758 0.00561615 -0.00002640
N 9.01709683 6.85446784 13.42044586 -0.00295033 0.00651971 -0.00459551
N 7.41692096 9.82696704 15.27504820 0.00027152 -0.00174995 -0.00334166
N 10.48140680 10.44924331 17.68993173 -0.00593801 -0.00768205 0.00463505
N 12.52013996 7.61189107 15.30332752 0.00397712 0.00299925 -0.00667263
N 9.04698675 6.68272151 17.93797503 0.00315413 0.00023908 -0.00084909
N 7.13148071 9.80916451 20.19314885 0.00551083 -0.00033066 0.00400905
N 10.49871029 10.50947819 22.54963461 -0.00028891 0.00368722 -0.00106245
N 12.28573592 7.46162927 19.85065092 -0.00065371 -0.00055262 0.00331170
N 8.98168951 6.78354853 22.81445412 -0.00359049 -0.00471755 0.00087927
N 7.81044760 15.27758136 0.90465415 -0.00281536 -0.00362607 -0.00408174
N 10.34117576 17.36238219 3.41438959 -0.00080453 0.00555805 -0.00666195
N 11.62806514 14.14284880 0.96898054 0.00226740 -0.00409389 0.00889676
N 9.02872972 12.24872041 3.44301595 -0.00113054 -0.00334167 0.00437871
N 7.54103281 15.29103571 5.50799387 -0.00121990 0.00131806 0.00502469
N 10.66346286 17.26622600 8.32479425 -0.00164200 0.00507184 -0.00247994
N 11.87144242 14.18180598 5.67030198 0.00056945 0.00410368 -0.00131970
N 8.88387463 11.86483405 8.40524554 -0.00345136 0.00219611 0.00157905
N 7.77429670 15.14823526 10.19484397 -0.00063168 0.00689210 0.00910847
N 10.48768531 17.15424106 13.43030207 -0.00030656 -0.00260812 0.00334002
N 11.92751474 14.03640607 10.46239935 -0.00185980 0.00292379 -0.00354129
N 9.41248299 12.49188342 13.21573914 -0.00131468 0.00316764 0.00189059
N 7.41445746 15.13246870 15.24234985 0.00350220 -0.01101174 -0.00030016
N 10.37567471 17.50434995 17.92153682 0.00094740 0.00327056 0.00371319
N 12.05698747 13.90806098 15.21031393 0.00252385 0.00160485 0.00182908
N 8.96317794 12.15509449 17.65139656 -0.00093816 0.00023610 0.00153069
N 7.51611622 15.35388472 19.85219324 0.00245711 0.00540868 0.00338836
N 10.11787525 17.69091698 22.81922359 0.00023417 0.00654519 0.00778371
N 11.47650675 14.17941471 19.80177458 0.00342436 0.00202007 -0.00383640
N 8.85173784 12.14754721 22.66702445 -0.00262980 -0.00530469 0.00153800
N 6.85886979 22.12672648 1.13041677 0.00134037 -0.00252887 0.00175980
N 9.55537085 23.89390393 3.84908807 -0.00655861 0.00075128 -0.00088777
N 10.95117633 21.06298220 1.02220437 0.00991762 -0.00087158 0.00190868
N 8.50160181 18.87463538 3.75153500 -0.00305100 -0.00733517 0.00484859
N 7.16169326 21.76503934 5.72736653 0.00238565 -0.00046671 -0.00018473