2000
Time=75000.00000007 pbc="T T T" Lattice="31.24922858 0.00000000 0.00000000 0.00000000 29.82982395 0.00000000 0.00000000 0.00000000 23.75198170" energy=-12041.23297822 virial="-80.50524012 -3.89215004 10.65626768 -3.89215004 -69.87337313 -21.61208674 10.65626768 -21.61208674 -99.30017426" stress="-0.00136527 -0.00008147 0.00048944 -0.00008147 -0.00093860 -0.00080357 0.00048944 -0.00080357 -0.00173445" Properties=species:S:1:pos:R:3:vel:R:3
C 30.52660897 3.40688590 1.76155548 -0.00065345 -0.00667798 -0.00182535
C 2.38362632 0.37960270 2.94137073 0.00170296 -0.00348215 -0.00479880
C 30.51981082 3.52561489 6.38444244 -0.00440383 0.00423610 0.00317957
C 2.71270645 0.87835252 7.61534019 0.00061209 -0.00207829 0.01187634
C 30.69862984 3.45255449 11.22913214 0.00448423 -0.00051531 -0.00044084
C 2.61572169 0.47029984 12.47320111 0.01045559 0.00327447 0.00276450
C 30.41655546 3.53114617 15.80249786 -0.00257624 0.00202297 -0.00515114
C 2.89349582 0.73982529 17.31814322 0.00296939 -0.00175091 -0.00121134
C 30.55788222 3.44989951 20.66222158 -0.00373382 0.00130641 0.00189622
C 2.44172055 0.52046496 22.08618780 0.00282530 -0.00047475 0.00334092
C 31.08934156 9.26760828 1.64427107 -0.00433411 -0.00636082 -0.00144783
C 2.74165324 6.15598943 3.09703392 0.00627238 -0.00401621 0.00144978
C 31.10372469 9.15218665 6.63160433 -0.00351882 0.00342026 -0.00268900
C 2.84982587 6.18042652 7.69422491 0.00041392 0.00168393 -0.00001294
C 31.01677760 9.31104803 11.29350293 0.00413904 0.00546113 -0.00118371
C 2.76709497 6.10297943 12.63247900 -0.00471080 0.00268350 -0.00207120
C 30.75121302 9.06992322 15.95563859 -0.00306725 0.00519312 0.00075631
C 2.89076569 6.02432489 17.43189964 -0.00573127 -0.00480681 -0.00322662
C 31.05016957 9.25755284 20.58129942 0.00493468 -0.00617095 -0.00155480
C 2.85709312 6.00930422 22.09145037 -0.00239476 -0.00087043 -0.00545765
C 0.44960127 14.54166084 1.79481707 0.00776081 -0.01037398 0.00199808
C 3.52104885 11.74655114 3.04591720 -0.00127943 0.00606025 0.00414143
C 0.49113965 14.79186940 6.65079207 -0.00345214 -0.00409888 -0.00554844
C 3.14373909 11.67061801 7.82923342 -0.00067584 -0.00911529 0.00248856
C 0.18460696 14.87237194 11.27657426 -0.00166495 -0.00427153 0.00094005
C 3.55628969 11.96824812 12.57247338 -0.00290456 -0.00142918 0.00000751
C 0.01421001 14.74547876 15.97394723 0.00640952 -0.00053561 0.00357357
C 3.34744412 11.63460118 17.22832457 -0.00491038 0.00368024 0.00410090
C 0.13755062 14.66500860 20.74662057 -0.00032503 0.00272884 0.00225687
C 3.40820589 11.72968332 21.86865877 0.00069302 -0.00050957 -0.00267840
C 0.67074848 20.23426020 1.82810942 0.00194748 -0.00133239 0.00510468
C 3.66550115 17.46262146 2.99444829 0.00862350 0.00136843 -0.00040708
C 0.58295419 20.52786956 6.57152862 0.00148584 0.00275682 -0.00453071
C 3.96002603 17.26219046 7.83131098 0.00601439 -0.00214221 -0.00403137
C 0.58909651 20.31001392 11.27218165 -0.00155327 -0.00222042 -0.00003095
C 3.62177937 17.28207737 12.58488384 -0.00462097 -0.00044486 0.00344297
C 0.59356477 20.10591789 16.03107393 0.00190043 0.00190849 0.00021331
C 3.77930846 17.38621762 17.43339334 -0.00428349 -0.00548193 0.00364380
C 0.46494081 19.97977892 20.68613601 0.00471358 -0.00243292 0.00667982
C 3.96766174 17.55079462 21.94353454 -0.00821877 0.00078023 0.00273483
C 31.07997934 26.92749964 1.61337787 0.00282510 -0.00236382 -0.00045396
C 3.23427924 23.88604071 2.97930199 0.00507966 -0.00722355 -0.00819310
C 0.02284057 26.91029360 6.36674444 -0.00060444 0.00118169 -0.00219275
C 3.30187468 23.86011218 7.90948107 -0.00566819 0.00007742 0.00160450
C 0.15834100 26.89307102 11.05710282 -0.00169266 0.00343861 0.00225507
C 2.90356601 23.59762082 12.40434130 0.00685384 0.00524061 0.00070509
C 31.16369322 27.15871899 15.81319666 0.00938821 -0.00973233 -0.00423571
C 3.11726414 23.75611901 17.19287948 0.00342885 0.00405063 -0.00751662
C 0.11724954 26.93576005 20.52906797 0.00797016 -0.00508358 -0.00072992
C 3.27003838 23.97790111 22.00477880 -0.00739259 0.00439011 -0.00085684
C 6.28412773 2.99324460 1.71244786 0.00446542 -0.00067585 -0.00252221
C 9.13114397 29.81350152 2.86273259 0.01069891 0.00279677 0.00389062
C 5.95452806 3.21988447 6.42055909 0.00398900 0.00121250 -0.00638642
C 9.38203298 0.31307783 7.84101369 0.00643658 0.00294223 0.00994181
C 6.19001715 3.33147691 11.31551018 0.00144882 -0.00259655 0.01006212
C 8.96145106 0.31013296 12.49519201 0.00449272 -0.00024943 -0.00449235
C 5.88207814 3.22484482 15.94893022 0.00318636 -0.00021259 -0.00475004
C 9.13331673 0.13021960 17.05444872 -0.00155688 0.00234565 -0.00198931
C 6.03041011 3.02601179 20.77595216 -0.00676696 -0.00223366 0.00226744
C 9.05900464 0.30791850 21.86370208 -0.01079623 0.00100225 0.00069436
C 6.28698203 8.58557208 1.64930817 -0.00018878 -0.00459016 -0.00347876
C 9.49613489 5.88348944 2.96686508 -0.00087943 0.00547924 0.00445635
C 6.40077109 8.74267668 6.62161056 -0.00085851 -0.00316862 0.00307848
C 9.44619682 5.61565683 7.48752630 -0.00503062 -0.00567481 -0.00037651
C 6.19902129 8.57678126 11.09092747 -0.00800260 0.00002060 -0.00097078
C 9.73561478 6.14171543 12.59729049 -0.00222200 -0.00181973 -0.00159512
C 6.23014192 8.66867766 15.92531122 -0.00063622 0.00256209 0.00721748
C 9.40653327 5.69029507 17.28307878 -0.00274370 0.00273740 0.00585973
C 6.27901047 8.51159089 20.80332154 0.00150557 -0.00312031 -0.00062469
C 9.47550152 5.54917295 21.86139904 0.00127159 0.00708395 0.00314778
C 6.99234184 14.35429236 1.86641329 -0.00039477 -0.00315671 -0.00303671
C 9.89841299 11.30546666 3.27188088 -0.00329109 0.00482074 -0.00516484
C 6.81728589 14.38023679 6.54499660 -0.00719405 0.00480305 -0.00302749
C 9.74623440 11.06919998 8.08520024 -0.00180624 0.00304648 0.00643420
C 6.78930070 14.22989355 11.29027077 -0.00357296 -0.00064793 -0.00125069
C 9.98253568 11.41220390 12.66414776 0.00114695 -0.00138561 -0.00262740
C 6.95116410 14.45802730 16.00521984 0.00247097 0.00043318 -0.00683874
C 9.79549966 11.13646270 17.41577493 0.00144655 -0.00241599 -0.00334410
C 7.01708814 14.35280954 20.59290884 -0.00635367 0.00030688 0.00475991
C 9.90960863 11.32932779 21.99717682 0.00068112 -0.00743417 -0.00318941
C 6.18524493 20.77424535 1.60345366 0.00225521 -0.00317935 -0.00316480
C 9.60934839 17.76158185 2.99400153 -0.00462943 0.00026339 -0.00617435
C 6.21224425 20.97395457 6.43374386 0.00270178 -0.00238164 -0.00244704
C 9.45621857 17.90721724 7.80376140 -0.00145923 -0.00068108 -0.00184121
C 6.41652828 20.73538997 11.13769564 -0.00178918 -0.00558212 -0.00287465
C 9.35316291 17.99228431 12.38578937 0.00475422 0.00281993 0.00717369
C 6.17351744 20.82365656 15.92441395 -0.00357311 0.00063155 0.00179451
C 9.51349748 17.81758543 17.25962127 -0.00012497 -0.00277475 0.00245113
C 6.34833126 20.89763585 20.58948075 0.00526390 -0.01012721 0.00091263
C 9.41518798 18.06733079 21.98694143 0.00408292 -0.01344653 -0.00085548
C 5.57552204 27.13146044 1.66374575 -0.00309800 0.00479459 -0.00360599
C 8.94421701 24.60375778 3.09876360 -0.00300452 -0.00002593 0.00485887
C 5.61414851 27.44942204 6.42494276 -0.00100551 -0.00235516 -0.00449929
C 9.05731233 24.62053073 8.02304918 0.00323752 0.00626521 0.00453099
C 5.70224188 27.36693676 10.99886448 -0.00708683 -0.00453656 -0.00858642
C 8.58913372 24.44585940 12.60137426 0.00365434 -0.00167573 -0.00202479
C 5.45104896 27.48985116 15.79598513 -0.00275148 -0.00505898 0.00462443
C 8.80752715 24.49185778 17.36581334 0.00061583 0.00160310 -0.00461758
C 5.63320917 27.64839853 20.65392966 0.00209054 -0.00319117 0.00010872
C 8.62726301 24.30902486 22.01606804 0.00427163 0.00951153 0.00674188
C 12.96149925 2.83477640 1.67765803 0.00787868 0.01133251 -0.00160636
C 16.27870364 29.62855811 3.12662898 0.00237465 0.00159599 0.00142733
C 12.74320293 2.73138145 6.36952009 0.00079402 0.00052413 0.00784530
C 16.03015258 0.06125911 7.78634798 0.00237661 -0.00323997 -0.00495181
C 12.83220492 2.72743546 11.18045378 0.00548788 0.00157578 -0.00071896
C 16.04361856 0.01024275 12.62484657 0.00230552 -0.00092807 0.00039773
C 12.67834092 2.75659524 15.81229498 0.00048051 -0.00371504 -0.00134591
C 15.75705435 29.68336934 17.20614424 -0.00011106 -0.00549348 0.00868788
C 12.59489051 2.54966829 20.62077918 0.00439868 -0.00003382 -0.00231020
C 16.17129797 29.68296117 22.12722349 0.00463189 0.00307270 0.00148464
C 13.03721040 8.32818328 1.71197419 0.00082364 0.00287822 0.00159476
C 16.14161986 5.39593922 2.96472932 -0.00140696 0.00431001 -0.00338895
C 12.96512287 8.27066988 6.42855070 0.00008397 -0.00546924 -0.00077544
C 16.20725511 5.74866015 7.56541989 0.00985575 -0.00332447 0.00312652
C 12.91091675 8.41459386 11.28495966 -0.00096224 -0.00494547 -0.00883357
C 16.33865228 5.38538542 12.35783088 0.00174170 0.00167219 -0.00220740
C 13.31882519 8.45431440 15.88230741 0.00682062 -0.00377617 -0.00714631
C 16.13292743 5.14848937 17.20969952 0.00711058 -0.00270763 0.00420608
C 13.14343252 8.56593207 20.71333148 0.00119943 -0.00430956 -0.00505474
C 16.33422597 5.43164992 21.86302701 0.00334044 0.00137491 0.00748840
C 12.47426623 14.73185473 1.71977521 -0.00049498 -0.00353483 0.00077517
C 15.55581042 12.05788061 3.09414151 -0.00399421 0.00739865 0.00138029
C 12.53994499 14.96961313 6.63073168 -0.00424305 -0.00036259 0.00099071
C 15.28379446 12.11367931 7.88444341 -0.00147684 -0.00324460 0.00212432
C 12.49914502 14.81715251 11.45768320 0.00639998 -0.00071979 -0.00705374
C 15.39385697 11.89812391 12.57901619 -0.00097859 0.00391202 -0.00298222
C 12.75164048 15.00331218 16.12161972 0.00240579 -0.00626778 0.00298973
C 15.81189938 12.15286285 17.26810262 -0.00087423 0.00198856 -0.01101632
C 12.68845848 14.80876452 20.72701651 -0.00138050 0.00080326 -0.00429839
C 15.62682462 11.91896181 22.03967818 -0.00438246 -0.00320607 0.00022937
C 11.71920663 21.48135417 1.73228096 0.00204814 -0.00161549 -0.00606694
C 14.99696464 18.41065575 2.97563447 -0.00497048 -0.00139907 0.00167244
C 11.98248901 21.43717918 6.56189550 -0.00205276 0.00428524 -0.00316028
C 15.04336162 18.48933439 7.77591386 -0.00075835 -0.00095534 0.00422122
C 11.70927890 21.44755059 11.32702071 0.00065377 0.00151255 -0.00186934
C 15.13014161 18.65096891 12.48791170 -0.00035545 0.00589812 0.00373890
C 11.92827863 21.50431794 16.09285547 -0.00469329 0.00048566 -0.00289439
C 15.63248385 18.39389413 17.22383665 -0.00134286 -0.00151934 0.00271759
C 12.08545612 21.60062364 20.77967004 0.00136326 0.00378844 0.00388272
C 15.07025191 18.51031855 21.98235185 -0.00238210 -0.00063557 0.00312814
C 12.09196595 27.13749763 1.57940137 -0.00025878 -0.00229631 0.00451533
C 15.16974151 23.74090547 2.98489274 0.00218691 0.00411972 0.00131982
C 12.59479133 27.10612537 6.34828628 0.00314095 0.00562095 -0.00678109
C 15.56449163 24.25128344 7.74483875 0.00029641 0.00482312 -0.00072737
C 12.40246635 27.34098925 11.10790085 0.00294026 0.00554592 -0.00400317
C 15.46594092 24.21857477 12.62204837 -0.00076995 -0.00843742 -0.00175431
C 12.09102223 27.29671140 15.81096111 0.00365140 -0.00316576 0.00544522
C 15.21964790 23.96117266 17.19109834 0.00088030 -0.00593113 -0.00248373
C 12.26362490 27.30900678 20.73824290 0.00769864 -0.00461371 0.00162691
C 15.13151961 23.85965026 21.99025125 -0.00240324 0.00432395 -0.00360023
C 19.37395621 2.49926150 1.66269041 0.00072609 0.00454196 0.00110609
C 22.22811000 28.97621675 3.06624927 0.00290822 -0.00567164 0.00403785
C 19.41262750 2.62141636 6.43679407 -0.01028475 0.00647804 -0.00235104
C 22.45249966 29.38709954 7.78544904 0.00033422 0.00172831 0.00373053
C 19.51957277 2.61798341 11.13289781 0.00010943 0.00225622 0.00042360
C 22.41249987 29.26589956 12.53138793 0.00175926 0.00550633 -0.00231735
C 19.48200657 2.46080123 15.85693101 0.00007676 0.00361776 0.00205128
C 22.37964212 29.28581002 17.22396492 0.00591398 -0.00508837 -0.00477726
C 19.28057000 2.29038422 20.82120658 -0.00379181 -0.01059303 0.00299446
C 21.91809061 28.92862414 21.91321534 -0.00185719 -0.00523536 -0.00493465
C 18.57255560 9.10123780 1.58906556 0.00047275 0.00023794 -0.00004433
C 21.84243547 6.03111664 3.13149846 -0.00445191 0.00367710 0.00033833
C 18.72812445 9.08985316 6.40142111 -0.00567586 -0.00244746 0.00128249
C 21.96207893 6.09172766 7.85339529 0.00375592 -0.00351888 0.00117057
C 18.42485829 9.21199977 11.08265213 -0.00533695 0.00092000 0.00011151
C 21.71356777 6.05672665 12.53006302 -0.00422929 0.00065873 -0.01153720
C 18.62755878 8.92116546 15.98168747 -0.00201613 -0.00235752 -0.00584900
C 21.80413813 5.73664689 17.38861558 -0.00341603 -0.00874328 -0.00360536
C 18.83158629 8.83785885 20.64481331 0.00221213 0.00134080 0.00358970
C 21.75792416 5.85774471 22.22633031 -0.00641024 0.00285175 0.00438523
C 18.19803948 15.58269312 1.83754291 0.00387014 0.00085061 -0.00706017
C 21.42451198 12.20785345 3.04570559 0.00155293 -0.01087026 -0.00085864
C 18.31082818 15.40237878 6.47074494 0.00630124 -0.00244231 -0.00593880
C 21.24158704 12.51164647 7.89234271 0.00043315 0.00377325 -0.00072026
C 18.13512881 15.65522126 11.07694865 -0.00812134 0.00182263 -0.00568809
C 21.30161434 12.79546451 12.59767593 0.00580199 0.00026675 0.00244182
C 18.17614222 15.61833934 16.07450421 0.00045209 0.00368401 0.00479341
C 21.54662145 12.57954818 17.32139283 -0.00797367 -0.00345879 0.00010070
C 18.28715733 15.53956763 20.76252423 0.00017447 0.00746688 0.00416113
C 21.17189933 12.49241976 21.97675631 -0.00448315 0.00037515 -0.00131559
C 18.57457678 20.94652507 1.71706027 0.00585208 0.00105612 -0.00067015
C 21.84197486 17.86067145 2.95653790 0.00188137 0.00650934 0.00318784
C 18.63893899 20.78778357 6.22548303 0.00285670 0.00804332 -0.00007556
C 21.82133403 17.98867102 7.79426600 -0.00813938 -0.00677348 -0.00056952
C 18.70419299 21.28868187 11.11058543 0.00172962 0.00537687 0.00434522
C 21.66832923 18.11534264 12.59370822 -0.00657336 0.00305080 -0.00048162
C 18.65096826 21.31911416 15.73030757 -0.00401289 0.00132649 0.00241709
C 21.61124365 18.26288078 17.32400834 0.00213068 0.00080510 0.00319088
C 18.54807361 20.90883539 20.65556574 0.00089046 -0.00738521 -0.01219822
C 21.62743483 18.08196484 22.04648233 -0.00069288 -0.00427609 -0.00134187
C 18.93303599 26.44272994 1.86488097 0.00005775 -0.00477728 0.00032128
C 22.11207508 23.59139456 3.08684115 -0.00335074 -0.00347694 0.00350801
C 18.83011948 26.57187320 6.36469667 -0.00037254 -0.00277597 -0.00347536
C 22.31414972 23.81215441 7.82405133 -0.00036107 -0.00554407 -0.00896434
C 19.12957638 26.44804490 11.40651982 -0.00080552 -0.00033990 0.00222574
C 22.30812583 23.74959934 12.43285739 0.01235415 0.00357486 0.00094834
C 18.99936877 26.67248805 16.08263381 -0.00269706 -0.00140536 -0.00167614
C 21.96137271 23.77752353 17.34074781 -0.00656193 -0.00053472 0.00724508
C 18.58880998 26.48982336 20.85423130 -0.00721909 0.00185488 0.00233283
C 22.01433859 23.51452625 22.07577916 0.00300372 0.00942926 -0.00318806
C 24.76645471 2.58617055 1.81078950 -0.00075608 0.00214377 -0.00818734
C 27.99518541 29.63546376 3.15880827 -0.00487829 0.00397136 0.00434705
C 24.80406831 3.17040464 6.46019026 -0.00528153 0.00070335 0.00157747
C 28.04546960 0.33509955 7.65924884 -0.00337712 0.00121565 0.00031123
C 25.05194867 3.11278731 11.33274845 -0.00365992 0.00287111 0.00054598
C 28.04666965 29.48842138 12.32345036 -0.00078515 0.00502494 0.00432081
C 25.06064851 2.84968136 16.07916991 -0.00358178 0.00487980 0.00048328
C 28.27438641 0.15220084 17.14442385 -0.00022579 0.00011833 0.00015974
C 24.70093624 2.85838663 20.88284492 0.00135168 0.00569261 0.00548977
C 28.00883826 29.81754478 22.05906572 -0.00452023 0.00092104 -0.00062350
C 24.31664006 9.46334215 1.73543873 -0.00213369 -0.00306147 -0.00317441
C 27.67485298 6.87750215 3.16803814 0.00121572 -0.00122799 -0.00168971
C 24.21385332 9.89074246 6.47206165 -0.00129307 -0.01201653 0.00361365
C 27.59658241 6.45966731 7.81746338 0.00373057 -0.00427232 -0.00778388
C 24.29415137 9.67783361 11.19997568 -0.00016759 -0.00088805 -0.00083438
C 27.39649004 6.71974475 12.42980073 0.00062417 -0.00364001 0.00189905
C 24.41039582 9.65565798 16.11610702 0.00543127 -0.00069451 -0.00758056
C 27.41408849 6.47560892 17.22529326 -0.00069761 -0.00253584 0.00661268
C 24.47755006 9.50560508 20.61909368 0.00453721 0.00294662 -0.00394819
C 27.25988006 6.53793091 22.20006685 -0.00411031 -0.00286873 -0.00440218
C 24.91768060 15.13868896 1.89609187 -0.00430348 0.00568649 -0.00754302
C 28.25966834 12.02786232 3.16151749 0.00302369 -0.00188515 -0.00775871
C 25.02008275 14.99651848 6.44775491 -0.00246924 -0.00282500 -0.00708083
C 28.19548301 12.20088414 7.96434900 -0.00031981 0.00127410 -0.00331018
C 24.77525163 15.27106810 11.28778839 0.00042147 0.00246519 0.00291808
C 27.90135772 12.31270683 12.67680834 0.00440057 -0.00526978 0.00535586
C 24.58928433 15.44821572 16.06578895 -0.00049750 0.00564240 -0.00148437
C 27.64756409 12.21872769 17.24734349 0.00007299 -0.00009303 0.00515851
C 24.75342554 15.09904205 20.84321326 0.00146158 -0.00006884 0.00060542
C 27.94327105 12.04619370 22.16942205 -0.00507503 -0.00303931 -0.00522412
C 25.40199784 20.66989089 1.71131339 0.00014120 -0.00090512 0.00198004
C 28.66149932 17.84570320 3.14305057 0.00489676 0.00292803 0.00582237
C 25.29032303 20.43419016 6.42993300 0.00445582 -0.00511023 0.01061534
C 28.34233632 17.68745713 7.76374879 -0.00734720 0.00254079 0.00003335
C 25.17494601 20.65179329 11.12644292 -0.00721939 -0.00269887 -0.00342648
C 28.46161601 17.81789076 12.49034559 0.00132991 -0.00437588 0.00442159
C 25.13122420 20.62406268 16.31390992 0.00313848 0.00149670 -0.00157343
C 28.20709491 17.58478730 17.42195262 0.00926738 -0.00161367 0.00012102
C 25.39238471 20.49682120 20.87174511 -0.00402315 0.00391610 -0.00528651
C 28.50870436 17.60067458 22.08437571 0.00388701 0.00649024 0.00402830
C 25.42581952 26.24331940 1.71820662 0.00602478 0.00148663 0.00449468
C 28.79901643 23.08399497 3.04624827 0.00462897 -0.00036483 -0.00395879
C 25.73131236 25.96872046 6.37400197 -0.00662231 -0.00442938 -0.00040851
C 28.99040251 23.08198492 7.85119938 0.00454830 -0.00258740 0.00354855
C 25.93434323 26.14602319 10.96363908 -0.00187108 -0.00200068 -0.00360011
C 28.69043907 23.14824715 12.48256424 -0.00118149 -0.00420122 0.00414154
C 25.96183880 26.23991163 16.06558113 -0.00043443 0.00126619 -0.00031573
C 28.60368770 23.43833133 17.27910417 0.00736803 -0.00125731 -0.00299495
C 25.64770510 26.38781523 20.75280473 0.00249210 0.00386063 0.00743470
C 28.48680863 23.15836495 22.11694433 -0.00104913 0.00274971 0.00636893
N 0.14870346 4.15491963 0.92666875 -0.00230565 0.00014899 -0.00291863
N 3.54054908 5.34910128 3.79724084 -0.00365904 0.00189146 0.00688737
N 5.51395076 2.16071203 0.94035839 -0.00069317 -0.00010363 -0.00329196
N 1.88813598 1.31707503 3.71392419 -0.00175048 -0.00044017 -0.00577294
N 0.13165460 4.27333602 5.64125850 0.00405419 -0.00411198 0.00010810
N 3.54602361 5.25326481 8.41900699 0.00766990 -0.00039632 -0.00127535
N 5.13288665 2.60826360 5.49990522 0.00683779 0.00416113 0.00481969
N 1.85967762 1.46613313 8.46963166 0.00098915 -0.00548092 0.00150166
N 0.08675563 4.39774036 10.45410716 0.00845187 0.00180659 -0.00129834
N 3.12732416 5.08526107 13.36903436 -0.00767695 -0.00399343 -0.00733796
N 5.33122339 2.45476771 10.68412688 -0.00515990 0.00389075 -0.00251556
N 1.79856201 1.30980162 13.11547714 0.00879725 -0.00257165 -0.00077240
N 31.13988942 4.34169279 15.01554932 0.00364937 -0.00034542 0.00177645
N 3.49768067 5.12910386 18.16102567 -0.00324454 0.00457430 -0.00202976
N 5.09411214 2.58347778 15.05484525 0.00064776 0.00139880 -0.00135709
N 2.05604823 1.48042419 18.06758388 -0.00307926 0.00194775 0.00364774
N 31.15545523 4.47427996 20.00304651 -0.00415558 0.00255435 -0.00129220
N 3.28165196 5.05738441 22.95264921 -0.00333046 0.00049351 -0.00355093
N 5.23209852 2.15955782 20.10242297 -0.00045527 -0.00089207 -0.00037775
N 1.54097663 1.07671329 22.88199744 -0.00229184 -0.00292900 -0.00492540
N 0.73437355 10.01508767 1.03076774 0.00257348 -0.01016970 -0.00054743
N 3.76986952 10.56864938 3.76376994 0.00206768 0.00681662 0.00199791
N 5.51229606 7.68778200 1.03369157 -0.00174296 0.00087732 0.00361395
N 2.07551708 7.15137604 3.75907268 -0.00292462 -0.00012988 -0.00484812
N 0.62037462 10.04444481 5.98849610 0.00175280 -0.00413757 -0.00387724
N 3.95407369 10.76805556 8.41053779 0.00385891 0.00124599 -0.00079243
N 5.62225406 7.90734377 5.83719992 0.00441796 -0.00729623 0.00113512
N 2.15960763 7.04542152 8.49224780 0.00244644 -0.00232216 -0.00444105
N 0.66798162 10.05713553 10.55491456 -0.00433432 -0.00540366 0.00389892
N 4.16694616 10.98103380 13.28780629 0.00295095 0.00149618 0.00361233
N 5.35829291 7.68446203 10.43495488 0.00176522 -0.00257110 0.00400328
N 2.31257251 7.26565783 13.28210601 -0.00217868 -0.00720641 0.00292178
N 0.35888969 9.97184610 15.46106932 -0.00164472 0.00073602 -0.00361237
N 3.94788362 10.72685698 17.99826296 -0.00110544 0.00397102 0.00224727
N 5.66285461 7.66622250 15.14480517 -0.00221740 -0.00312996 -0.00296152
N 2.02949557 6.91738280 18.00737497 -0.00305428 0.00816375 0.00075795
N 0.80222788 9.87708892 19.91406197 -0.00085200 -0.00488932 -0.00127205
N 4.01601737 10.76546568 22.65033213 0.00156113 0.00342691 -0.00215384
N 5.49750633 7.66214990 20.04177863 -0.00089308 -0.00357501 -0.00001580
N 2.27479995 7.08354536 22.66481678 -0.00332931 0.00059900 -0.00025446
N 1.18874850 15.44655575 1.08734327 -0.00263243 -0.01083287 0.00605333
N 4.48697778 16.80520828 3.90848271 0.00573313 0.00377666 0.00442405
N 6.13158532 13.48968948 1.16535106 -0.00104109 0.00332799 -0.00062784
N 3.02733535 12.72076189 3.86478513 -0.00186031 0.00038320 -0.00384325
N 1.42185829 15.59456064 5.98847950 -0.00229857 -0.01254916 -0.00640612
N 4.62215224 16.30439742 8.54794704 -0.00135105 -0.00979172 -0.00605976
N 6.01182508 13.69968832 5.70605775 -0.00463852 0.00216480 -0.00116591
N 2.81911137 12.80197231 8.58592932 -0.00086056 0.00086905 -0.00300060
N 0.89177053 15.78652136 10.49605954 0.00800357 0.00335113 0.00057245
N 4.49900599 16.58013188 13.38061223 0.00160517 -0.00159997 0.00208757
N 6.08463738 13.28572068 10.61065527 0.00424228 0.00069846 0.00342680
N 2.90826410 12.98334343 13.25853063 -0.00035888 -0.00093490 0.00496275
N 0.65392181 15.74057306 15.42962236 0.00039113 -0.00133776 0.00198480
N 4.74698314 16.63762271 17.99297122 -0.00021432 0.00787841 0.00308346
N 6.17843905 13.52358339 15.38891571 0.00334386 0.00197683 -0.00063996
N 2.80471390 12.73449795 17.86878717 0.00123739 0.01027441 -0.00289013
N 1.11485937 15.25359363 19.95264154 0.00262234 0.00727106 0.00074739
N 4.71508473 16.60216206 22.63268979 -0.00655091 0.00369394 -0.00107639
N 6.28778016 13.53931120 19.85135825 -0.00001924 0.00432826 0.00219248
N 2.75310719 12.70350661 22.59332939 0.00197802 -0.00154380 0.00447568
N 1.56387817 21.13048681 1.34974212 0.00120930 -0.00849545 0.00032964
N 4.25312427 23.29661774 3.63511421 -0.00105942 0.00456250 0.00028379
N 5.35416180 20.01714125 0.82733163 0.00022007 0.00362341 0.00942743
N 2.74916956 18.36613829 3.56752004 -0.00223639 -0.00008346 -0.00193162
N 1.52240585 21.24225611 5.88168352 -0.00048341 0.00011621 0.00765942
N 4.05742434 23.15840343 8.75292840 -0.00219874 -0.00035790 -0.00126719
N 5.48833579 20.07886565 5.65847505 0.00267042 0.00304451 0.00343584
N 3.12299603 18.05526261 8.59113423 -0.00498566 0.00499009 0.00656209
N 1.50731952 20.86175020 10.46160421 -0.00016919 -0.00089997 -0.00450615
N 3.99827541 22.92977474 13.02202373 -0.00433734 0.00404423 0.00363523
N 5.53746411 19.94965883 10.46776016 -0.00283396 -0.00001808 0.00181528
N 2.95283714 18.23605593 13.30248848 -0.00042906 0.00462521 0.00189815
N 1.24572680 20.93303180 15.21766977 -0.00329782 -0.00281640 -0.00272758
N 4.28402307 23.26507858 17.76079296 0.00355085 -0.00486719 -0.00277461
N 5.37795738 19.98083285 15.25392820 -0.00290911 0.00850474 0.00274333
N 2.98488860 18.14200649 18.25060212 -0.00123735 -0.00435073 -0.00210247
N 1.49811830 20.63743974 20.07445666 0.00587439 0.00181790 0.00258196
N 4.29943206 23.33804487 22.60931997 -0.00792805 0.00413312 -0.00684425
N 5.68059783 20.07261492 19.75013961 -0.00083826 0.00500915 0.00182302
N 2.99197826 18.15606359 22.66724607 0.00137280 0.00266632 0.00420577
N 0.64275766 27.70492692 0.90915918 -0.00179765 -0.00750040 -0.00007808
N 3.35852569 29.40505606 3.47687344 0.00060295 -0.00348623 0.00126378
N 4.78291685 26.40410861 0.84857259 -0.00629979 0.00004504 -0.00333195
N 2.20184809 24.44772010 3.71445037 0.00083439 -0.00549627 0.00237498
N 0.98878290 27.64566891 5.65802796 -0.00587150 -0.00111788 0.00126923
N 3.47405593 29.81945907 8.28821874 0.00032379 0.00310447 0.00392734
N 4.95896097 26.49472878 5.68986084 0.00131393 0.00324642 -0.00076439
N 2.20999672 24.43153718 8.46444629 -0.01016403 0.00325571 0.00004479
N 0.88399004 27.79682748 10.31866157 -0.00558478 0.00119158 0.00570043
N 3.56775624 29.68919636 13.23216866 0.00280618 0.00251143 0.00345000
N 4.70218829 26.66025179 10.39719500 -0.00136956 -0.00399466 0.00187346
N 2.00645405 24.25214849 13.13476575 0.00448877 0.00133961 -0.00465500
N 0.85227753 27.70529224 15.06316768 -0.00608898 -0.00121180 0.00001245
N 3.65547538 29.61165065 17.93566725 0.00191054 0.00123848 0.00112735
N 4.58709058 26.73472189 15.13550824 0.00444832 -0.00492051 0.00752834
N 2.20931741 24.20428088 18.12061983 -0.00152466 0.00281972 -0.00184997
N 0.92630504 27.75123157 19.77414103 0.00177071 -0.00053505 0.00364317
N 3.40541521 29.67089391 22.75252697 -0.00163174 0.00055908 0.00102096
N 4.64743868 26.85905628 20.06350193 0.00102396 -0.00491695 0.00400681
N 2.22424925 24.45806111 22.73594919 -0.00322344 0.00611033 -0.00143480
N 7.05102660 3.88477590 1.06359356 0.00177411 -0.00046816 0.00388619
N 10.07846244 4.83408807 3.51485547 -0.00504814 0.00047489 0.00155394
N 12.11397620 2.00514263 0.97470400 -0.00318435 0.00326472 -0.00118132
N 8.64234167 0.96986092 3.58700524 0.00245717 -0.00593540 0.01125401
N 6.85336585 4.06239046 5.87025133 0.00353842 -0.00333379 0.00488015
N 10.34660032 4.87869742 8.25955897 0.00454450 0.00182974 0.00534339
N 12.13336859 1.71078425 5.72188715 0.00190137 0.00055240 -0.00308225
N 8.67839567 1.24874194 8.53677922 0.00197626 0.00148051 0.00432978
N 6.82847316 4.22445327 10.52307290 0.00705131 0.00605005 -0.00337528
N 10.30018101 5.06045999 13.11231048 -0.00077224 0.00012199 -0.00765904
N 12.05785565 1.90428474 10.50370276 -0.00081381 -0.00012634 -0.00158624
N 8.28669666 1.26863268 13.22028269 0.00576099 0.00183114 0.00035541
N 6.68841385 4.16554134 15.36430200 0.00113964 -0.00028720 0.00330696
N 10.17285343 4.94941813 18.08233832 -0.00377686 -0.00250944 -0.00881577
N 11.85521801 2.01290560 15.01179509 -0.00321444 -0.00108315 -0.00284763
N 8.43141539 1.12120978 17.72883667 -0.00175346 0.00339028 0.00457264
N 6.62404592 3.89865999 19.96701203 0.00369018 0.00709392 -0.00062922
N 10.31810462 4.64192416 22.35546183 -0.00270281 -0.00491938 0.00270087
N 11.79594607 1.75270566 19.80957398 0.00458223 0.00029036 0.00544364
N 8.36316721 1.21551691 22.56543824 -0.00499471 -0.00569756 -0.00155123
N 6.96032473 9.46218838 0.86629748 0.00249664 -0.00205710 0.00002604
N 10.71305248 10.38235379 3.82114164 -0.00150740 0.00196349 0.00332828
N 12.35115108 7.51547803 0.86381453 -0.00118852 -0.00290291 -0.00602373
N 8.79761114 6.79324817 3.74084458 0.00031893 0.00419564 0.00206294
N 7.15728161 9.67517569 6.02242620 0.00460965 -0.00369665 -0.00008677
N 10.66562397 10.49609374 8.82716858 -0.00353573 0.00165983 -0.00128499
N 12.19896450 7.47682310 5.64115090 -0.00029178 0.00170752 -0.00513333
N 8.70827412 6.57788872 8.14790873 0.00144561 0.00135040 -0.00272807
N 6.92573214 9.39100381 10.33370201 0.00055272 0.00301153 -0.00034733
N 11.02613003 10.82822899 13.27709590 0.00597868 0.00531596 0.00303778
N 12.34037895 7.56657069 10.40138903 -0.00110272 -0.00101257 0.00247002
N 9.11808813 6.97715450 13.48918804 0.00026100 -0.00216772 0.00386495
N 7.03163843 9.55622700 15.27940896 -0.00370105 0.00424028 0.00143753
N 10.32248792 10.11328320 18.12947732 0.00268050 0.00268173 0.00527446
N 12.30572869 7.59116074 15.33846412 0.00357560 0.00156993 -0.00418096
N 8.62449228 6.58635139 17.92706243 0.01021564 -0.00443783 0.00412777
N 7.04752188 9.46551735 20.15754838 -0.00260912 -0.00614386 0.00096659
N 10.62384908 10.48126208 22.82151148 -0.00145749 -0.00086995 -0.00549617
N 12.43099971 7.55391262 20.05715701 -0.00103598 0.00510187 0.00012209
N 9.05488884 6.49938671 22.71704794 -0.00066401 -0.00094561 0.00597917
N 7.75637903 15.21695609 1.14395190 -0.00409547 0.00098461 0.00504840
N 10.58385709 17.10009320 3.69143682 0.01027803 -0.00334085 -0.00436443
N 11.75056689 13.77759581 0.99956252 0.00076872 -0.00248228 0.00395022
N 9.00848389 12.04579892 4.05069657 -0.00255936 -0.00167187 0.00086927
N 7.51720752 15.36819080 5.94794266 -0.00041434 -0.00224996 0.00155959
N 10.40984883 17.28723127 8.54769719 0.00368033 -0.00186545 0.00062105
N 11.59131367 14.18450906 6.01077340 0.00398032 0.00296334 0.00088358
N 8.73405732 11.74117434 8.76260308 0.00187171 -0.00252747 -0.00306287
N 7.62841916 14.96258539 10.54460741 0.00056463 0.00183321 -0.01039559
N 10.27547003 17.38633744 13.17606745 0.00439105 0.00729894 0.00225455
N 11.59352339 14.05130794 10.75491763 0.00524045 0.00025297 0.00841834
N 9.22190681 12.22706413 13.43264908 0.00141002 -0.00382864 -0.00693779
N 7.62899627 15.27367480 15.16812945 -0.00002207 0.00487463 0.00397739
N 10.56098174 17.37573205 17.94808444 -0.00415955 0.00016185 0.00076907
N 11.63566879 14.43234313 15.63404038 0.00127941 0.00296404 0.00793710
N 9.34829426 12.11560901 18.20371929 0.00122926 0.00488665 0.00316733
N 7.78597475 15.31675545 20.01692044 -0.00351359 -0.00076056 0.00026852
N 10.21712371 17.13619345 22.61004798 0.00131333 0.00135699 0.00572197
N 12.05737401 13.97380326 19.91918050 0.00636269 0.00760884 -0.00395524
N 9.24526865 12.23423668 22.69771031 -0.00142684 0.00494810 -0.00053063
N 6.87969793 21.67563594 0.93589025 -0.00307140 0.00098616 -0.01045516
N 9.70707835 23.67544163 3.74916850 -0.00523246 -0.00593091 -0.00805046
N 10.92293204 20.54711355 1.05493105 0.00616072 0.00429298 0.00152623
N 8.55052934 18.26404721 3.65366963 -0.00185578 -0.00097031 0.00068157
N 7.24917563 21.62689665 5.80598685 0.00512952 -0.00178261 0.00703505