2000
Time=37000.00000002 pbc="T T T" Lattice="31.43077530 0.00000000 0.00000000 0.00000000 29.82652149 0.00000000 0.00000000 0.00000000 23.69819332" energy=-12040.82284355 virial="-93.58985350 -17.87456823 6.35249576 -17.87456823 -81.65737370 -1.47682322 6.35249576 -1.47682322 -66.95289550" stress="-0.00218710 -0.00086030 0.00041289 -0.00086030 -0.00164232 0.00002282 0.00041289 0.00002282 -0.00025824" Properties=species:S:1:pos:R:3:vel:R:3
C 30.95509701 3.68846789 1.51291136 -0.00613285 0.00407665 0.00530692
C 2.57036649 0.42902337 3.09783569 -0.00258577 0.00645726 0.00628765
C 30.53150511 3.54728977 6.22397225 0.00118540 0.00328129 0.00014838
C 2.49378681 0.76103731 7.80497304 0.00361735 0.00176726 0.00012683
C 30.78556471 3.80636625 11.11046045 0.00299100 0.00167652 0.00532804
C 2.49133520 0.65972386 12.64805484 0.00212979 -0.00285953 0.00025562
C 30.81171393 3.63674437 15.99034771 -0.00064038 -0.00080631 0.00189346
C 2.46359332 0.75420200 17.18346110 0.00469700 0.00918049 0.00941781
C 30.93716908 3.64001959 20.66370589 -0.00266996 0.00149503 -0.00077213
C 2.67807506 0.72505707 21.98690749 -0.00463645 -0.00550286 0.00182951
C 31.41775977 9.00289512 1.68412868 0.00425574 -0.00313655 0.00190007
C 2.91146800 6.15530730 3.05287109 0.00060958 0.00190907 -0.00295446
C 31.30702827 9.22890471 6.40059046 0.00376415 0.00141495 -0.00016846
C 2.83677592 6.12625071 7.71295675 0.00185606 -0.00083537 -0.00128150
C 31.31470461 9.10327608 11.28388916 0.00252806 -0.01235274 0.00037645
C 3.05736660 5.82964352 12.36698417 -0.00176265 0.00752969 -0.00256219
C 0.00801991 9.00177850 16.04782792 -0.00456490 -0.00231874 0.00398861
C 2.91197396 6.32138497 17.37955881 -0.00754010 0.00675894 0.00063880
C 31.27070236 9.07347192 20.79387717 0.00754972 -0.00167885 -0.00466906
C 3.05682194 6.13943813 22.15001137 0.00389625 -0.00194342 -0.00297416
C 0.07172228 14.42246804 1.74482418 -0.00450648 0.00358745 -0.00185694
C 3.39445462 11.77025159 2.86032270 -0.00381423 -0.00194576 -0.00156392
C 31.34023877 14.66951690 6.41366378 0.00112174 0.00151427 0.00422468
C 3.28262721 11.59994353 7.75328342 0.00397824 -0.00459141 -0.00208006
C 0.52941465 14.81863155 11.12182959 0.00196163 -0.00681048 0.00055609
C 3.40988155 11.67718354 12.52945228 -0.00787572 -0.00985537 -0.00743536
C 0.25487202 14.59939839 16.02376450 0.00852644 -0.00642554 0.00198370
C 3.40108861 11.74113072 17.07970744 0.00345985 -0.00201328 0.00529427
C 0.05367033 14.45450080 20.65259484 -0.00172632 0.00193516 -0.00102776
C 3.42166373 11.56711225 21.92316323 -0.00091191 -0.00274270 -0.00065157
C 0.75807621 20.09893591 1.76494125 -0.00153774 0.00216077 -0.00300116
C 3.38823193 17.22440886 3.11467890 -0.00351734 0.00014541 0.00421271
C 0.38633866 20.29084600 6.45462901 0.00678257 -0.00587981 0.00659463
C 3.56728470 17.15564427 7.77768963 -0.00538682 -0.00515484 -0.00621653
C 0.31304754 20.35944380 11.32194698 -0.00516374 0.00444196 0.00417103
C 3.68918023 17.12756292 12.54989162 0.00175550 -0.00862368 -0.00331577
C 0.59311140 20.25843130 15.87488765 -0.00024297 -0.00006563 -0.00908817
C 3.73394985 17.51122874 17.34308020 -0.00891300 -0.00009912 -0.00342787
C 0.56685890 20.09502200 20.49723346 0.00357546 0.00412131 0.00325948
C 3.64058361 17.31119994 22.03088433 0.00901543 0.00389581 0.00410303
C 31.38944426 26.98497795 1.72013631 0.00313516 -0.00355982 -0.00332132
C 3.01294635 24.23683784 3.00174946 0.00272598 -0.00546506 -0.00147925
C 0.08413482 26.95240451 6.38949620 -0.00788006 0.00164591 0.00385865
C 2.91715981 23.53523576 7.62518084 0.00087044 -0.00465570 -0.00467903
C 0.05946302 26.83706161 11.21905547 0.00905989 -0.00339040 0.00133927
C 2.90968236 23.81658040 12.33506616 -0.00148507 0.00303828 0.00789755
C 31.32194852 26.81680496 15.94399398 -0.00031831 -0.00202676 0.00415035
C 3.00285094 23.59226335 17.26617775 -0.00344789 -0.00060381 -0.00536965
C 0.06183943 26.70722413 20.51305052 -0.00138103 -0.00750525 0.00742869
C 3.12802329 23.55981205 22.05311045 0.00057212 0.00506679 -0.00504693
C 5.90960795 3.23248390 1.74622466 0.00222462 -0.00550336 -0.00602788
C 8.93362216 0.08208523 2.99693511 0.00192624 -0.00149006 -0.00314209
C 6.03786205 3.24173221 6.48760235 0.00207835 0.00225082 -0.00784425
C 9.12551528 29.80643015 7.68235280 -0.00524779 -0.00732263 -0.00694870
C 6.14710271 3.15165944 11.30213725 0.00312367 -0.00498113 -0.00485517
C 9.07947995 0.24023168 12.49194098 0.00069146 -0.00303070 0.00287665
C 6.21258841 3.39128030 16.10724363 -0.00540541 0.00314660 -0.00288572
C 9.00004319 0.13965390 17.08924294 0.00200487 0.00239036 0.00234387
C 6.08304010 3.28363171 20.82637587 -0.00183990 -0.00135587 -0.00259547
C 9.28317565 0.35768250 21.97952410 -0.00465854 0.00604066 -0.00046773
C 6.79785167 8.57842065 1.82984521 -0.00309183 0.00678897 0.00016512
C 9.81697627 5.75933100 3.18066759 0.00005294 0.00327053 -0.00046081
C 6.45232001 8.85061387 6.56125428 0.00253929 0.00100358 -0.00019509
C 9.39021041 5.75562856 7.77924253 0.00219239 0.00059859 0.00440960
C 6.72068298 8.68369931 11.32738450 -0.00359445 0.00017568 0.00107930
C 9.76698786 5.87967183 12.62802658 0.00157953 -0.00332265 0.00637045
C 6.67776060 8.83997363 16.11376562 0.00323606 0.00482061 -0.00608359
C 9.93129917 5.82348217 17.35753756 -0.00523287 0.00782145 0.00433888
C 6.40979058 8.83869365 20.74751024 -0.00474935 -0.00076896 -0.00501987
C 9.45360070 5.73413139 22.12034828 -0.00528322 -0.00317980 -0.00462457
C 7.14151082 14.19453354 1.72925169 -0.00209126 -0.00083869 -0.00227794
C 10.11942912 11.48522226 3.03123360 -0.00021450 -0.00020477 -0.00124882
C 6.88906737 14.18583367 6.34973795 -0.00120100 0.00039921 -0.00362401
C 10.19371203 11.28562624 7.76842104 0.00425405 0.00305447 0.00622281
C 7.05303505 14.20456645 11.17761558 0.00105854 0.00322324 -0.00100254
C 10.05294598 11.40529181 12.67567012 -0.01009239 -0.00616376 -0.00099768
C 7.06809001 14.23231818 16.04248280 0.00370979 -0.00248708 0.00532411
C 10.06937364 11.30685299 17.42263179 -0.00447537 -0.00011933 -0.00297972
C 6.91644420 14.34669240 20.97212286 0.00489209 0.00573815 -0.00888801
C 10.18777436 11.50015736 22.10897166 0.00435648 0.00283210 0.00639143
C 6.75274064 20.96558131 1.72032342 -0.00324580 0.00114130 -0.00509327
C 9.63317468 17.91158326 2.93165563 0.00299471 -0.00782825 -0.00438409
C 6.11248522 20.59519168 6.28930821 0.00284168 0.00076957 0.00251757
C 9.36317791 17.56719194 7.53186992 0.00146397 0.00269438 0.00646266
C 6.16655218 21.06606992 11.03513934 0.00041802 0.00106024 -0.00037406
C 9.58644095 17.75463142 12.25445152 0.00121674 -0.00913392 0.00004898
C 6.15161604 20.62315483 15.80800639 0.00512353 0.00267818 0.00140523
C 9.25116278 17.70658041 17.03315006 0.00287355 0.00114575 -0.00254312
C 6.29089045 20.82746525 20.69179425 0.00193885 0.00423415 -0.00336714
C 9.41180015 17.78704720 21.94322089 0.00432528 0.00515842 0.00882338
C 5.55496111 27.57073182 1.86093297 -0.00306904 -0.00242550 0.00183511
C 8.64468282 24.47897016 3.03454976 0.00060340 0.00180169 -0.00172149
C 5.40773365 27.33388291 6.54289188 0.00440914 -0.00077178 0.00099291
C 8.82608992 24.51634866 7.58303272 -0.00651520 0.00372752 -0.00357721
C 5.40792738 27.13306291 11.12514031 -0.00296284 0.00491155 -0.00496297
C 8.57942031 24.12260509 12.51469809 -0.00066140 -0.00120083 0.00200656
C 5.63413150 27.20448514 15.89433977 0.00517076 0.00412232 -0.00284113
C 8.71782984 24.37888912 17.13290139 -0.00570827 -0.00032428 0.00034611
C 5.47143093 27.46818595 20.64828018 -0.00099681 0.00125351 -0.00102816
C 8.79953169 24.66630891 21.96731819 -0.00139913 -0.00501455 -0.00208782
C 12.67299846 2.71866314 1.85027131 0.00190795 0.00004629 -0.00411843
C 15.88113982 0.01510768 3.17002067 -0.00072225 0.00306529 0.00234576
C 12.64763700 2.82501253 6.55844274 -0.00092643 0.00261347 -0.00384642
C 15.72889184 29.69114685 7.89114080 0.00523131 -0.00174342 0.00540749
C 12.44721990 2.76460595 11.28269461 0.00047255 0.00101095 -0.00320160
C 15.76919516 29.78292265 12.53631939 0.01020624 0.00350035 -0.00373578
C 12.72347459 2.67004992 16.05105246 -0.00285546 -0.00339709 0.00592730
C 16.05477977 29.79482869 17.29734586 -0.00328683 0.00016990 0.00233235
C 12.50922337 2.81262261 20.84254692 0.00453252 -0.00208442 0.00144228
C 15.81752001 29.74680409 21.96171924 0.00927109 0.00194930 0.00018916
C 13.22382459 8.31954406 1.72752219 -0.00554987 0.00106228 -0.00085931
C 16.65357262 5.20917511 2.90296772 0.00224255 0.00366376 -0.00142384
C 13.31294842 8.43188571 6.33562691 -0.00424188 0.00259891 0.00480957
C 16.13118477 5.29349412 7.82204715 0.00231051 -0.00451910 -0.00117599
C 13.24025082 8.29270210 11.22610019 -0.00458462 0.00705130 -0.00199906
C 16.13029131 5.38453400 12.40152672 0.00040147 0.00322343 0.00742192
C 13.37468923 8.25521948 16.03830078 0.00627023 -0.00266745 0.00211709
C 16.31457338 5.48376169 17.21247237 0.00026399 0.00331344 -0.00360075
C 13.29885160 8.42987251 20.79088859 0.00018821 -0.00014369 -0.00064139
C 16.37293733 5.10900943 21.95927511 -0.00576044 0.00425545 -0.00802333
C 12.78453598 15.17032808 1.58102558 -0.00257614 -0.00025363 -0.00136124
C 15.58155451 11.99298115 3.05213121 0.00380591 0.00210518 0.01282181
C 12.44110816 14.91059963 6.39170620 -0.00261833 0.00076114 -0.00330308
C 15.88374171 11.86394105 7.75737949 -0.00449223 0.00391045 -0.00382728
C 12.69374987 14.60352592 11.09285451 0.00035563 -0.00049201 0.00253061
C 15.85758127 11.81257589 12.32136500 -0.00383071 -0.00401301 -0.00397775
C 12.94781576 14.82365516 15.90486068 0.00073707 0.00276579 -0.00279970
C 15.92655531 11.74429673 17.31678353 -0.00100417 -0.00262093 -0.00825369
C 13.00682416 14.99985713 20.50335703 -0.00264781 -0.00099006 0.00118331
C 16.00110277 11.99914495 22.08819983 -0.00653341 -0.00658482 -0.00987416
C 11.95221700 21.40645322 1.74561261 -0.00141834 0.00237877 0.00650377
C 15.25769612 18.49186571 2.98883869 -0.00045017 0.00421006 0.00271479
C 11.77398048 21.54202486 6.41187749 0.00943964 0.00034073 -0.00951230
C 15.15576615 18.48756562 7.74878326 -0.00317608 -0.00064774 -0.00387196
C 11.74489649 21.32286497 11.05109612 -0.00045573 -0.00196397 0.00671792
C 15.10563398 18.31408379 12.31951829 -0.00144639 0.00280684 -0.00327880
C 11.68940273 21.38582751 15.94096074 -0.01120539 -0.00844895 -0.00202840
C 15.07400199 18.47232837 17.14610763 -0.00846032 0.00623927 0.00003303
C 12.03979729 21.30678397 20.53376219 -0.00552498 0.00110913 -0.00070941
C 15.23309586 18.72809352 22.13374314 0.00260253 -0.00018092 0.00033111
C 12.55460258 27.23052743 1.65960116 -0.00165172 -0.00758038 0.00351955
C 15.37603813 24.14426332 2.85784201 -0.00139289 0.00120750 0.00093377
C 12.14089132 27.12593270 6.43222159 -0.00455579 -0.00217325 0.00697993
C 15.38609987 24.02373177 7.82499159 0.00772969 -0.00128747 0.00352971
C 12.39490576 27.03915126 11.08744096 0.00219017 -0.00147397 0.00521993
C 15.28698458 23.95991073 12.44905329 0.00109129 -0.00012190 0.00454278
C 12.32292440 27.11784161 15.79293052 0.00425813 -0.00068880 0.00360515
C 15.23660790 23.76311438 17.18708166 0.00011321 -0.00282917 0.00951724
C 12.28249875 27.31106219 20.73061890 -0.00899201 0.00312391 -0.00050990
C 15.23013874 24.07508147 21.96734991 -0.00374870 0.00021262 -0.00058095
C 19.74579903 2.52817540 1.71756470 0.00164708 0.00361627 -0.00087453
C 22.46187194 29.35703509 3.05832991 0.00325215 0.00410893 -0.00272779
C 19.70627033 2.65462289 6.53823682 0.00050380 0.00755886 0.00074844
C 22.46550835 29.24630733 7.70074029 -0.00033701 0.00311377 0.00286642
C 19.39818763 2.35539045 11.08161253 0.00003288 0.00221753 -0.00447486
C 22.34350723 29.35578897 12.43092025 -0.00322858 -0.00409299 0.00354315
C 19.65478435 2.53375447 16.07065559 0.00196499 0.00808954 0.00209539
C 22.96313921 29.09323843 17.31568674 0.00234610 0.00821938 -0.00208232
C 19.35053912 2.17055753 20.69983415 0.00173956 0.00209975 0.00273775
C 22.76219703 29.40194058 22.08546971 -0.01136995 -0.00044873 0.00377344
C 18.69127552 8.90198999 1.81233161 0.00553712 -0.00368858 0.00009305
C 22.02089418 6.13520317 2.95310766 -0.00146998 0.00190579 0.00215278
C 18.78172532 8.87608760 6.43986147 -0.00152642 0.00051289 0.00142025
C 22.20253043 6.06776420 7.85872510 -0.00534117 -0.00235849 0.00212731
C 19.06258290 8.78539045 11.15240577 -0.00306306 -0.00653975 -0.00690169
C 21.90608447 6.00400975 12.68555978 -0.00305718 -0.00537655 0.00076075
C 18.78190976 9.10513337 15.82023020 -0.00218332 0.00060977 -0.00479333
C 22.24222110 6.06816782 17.36177989 0.00135914 0.00462467 0.00985062
C 18.99433181 9.03006543 20.74900952 0.00021996 0.00252541 -0.00422746
C 22.07139199 5.97560167 22.06682028 -0.00500003 0.00542327 0.00016360
C 18.35801171 15.72765913 1.88390332 0.00253330 -0.00825465 -0.00552516
C 21.38625872 12.77874553 3.14782951 0.00168978 -0.00378506 0.00237509
C 18.28731601 15.58696348 6.52145782 0.00723254 0.00394183 0.00306757
C 21.48356259 12.56783973 7.85592179 -0.00067500 -0.00153594 -0.00850585
C 18.35783836 15.63952198 11.11340782 -0.00046630 0.00050396 -0.00275436
C 21.63064287 12.67413271 12.24659868 0.00514255 -0.00409236 -0.00588786
C 18.22710859 15.52590985 15.84327448 0.00174014 0.00357505 -0.00419231
C 21.41974637 12.65848555 17.17667398 0.00469990 -0.00959473 0.00361241
C 18.32399596 15.60294364 20.73228863 0.00094721 -0.00659706 0.00118897
C 21.45420446 12.31851739 22.00565754 -0.00292756 0.00004471 0.00178640
C 18.57041477 21.43597247 1.67699512 0.00025302 -0.00252481 -0.00239939
C 21.62249967 18.19095525 2.96573727 0.00233889 0.00518461 -0.00108187
C 18.61134149 21.16404453 6.25854848 0.00741724 0.00527180 0.00130320
C 21.81470971 18.12705245 7.74144518 0.00121764 -0.00214780 0.00512307
C 18.68587074 21.12657617 11.10884290 0.00253895 0.00870276 0.00584137
C 21.78420577 18.24631329 12.51973198 0.00092959 0.00349317 -0.00083449
C 18.39148008 21.17920398 15.82738623 -0.00375427 -0.00130246 0.00424119
C 21.59811830 18.21983045 17.32675162 0.00159632 0.00844804 -0.00459410
C 18.64240104 21.13624918 20.74719228 -0.00348819 -0.00223405 0.00278500
C 21.70681794 18.19119503 21.95641255 -0.00333568 0.00317345 0.00492928
C 18.98026281 26.44246235 1.56049313 -0.00062839 -0.00220022 -0.00216667
C 22.08833792 23.76856008 3.27593659 -0.00276546 -0.00022221 -0.00390269
C 18.91389751 26.67858473 6.30509942 -0.00253681 -0.00696997 -0.00927284
C 22.36965097 23.67069476 7.87736824 0.00027580 0.00138575 0.00163530
C 18.91351136 26.64037633 11.17356650 0.00315632 -0.00185565 -0.00047636
C 22.21058937 23.42865320 12.65409607 -0.00460866 0.00446250 0.00344550
C 19.12029643 26.30604405 15.82234638 0.00437342 0.00086954 0.00583761
C 22.38439778 23.68605720 17.32759215 -0.00280935 0.00217055 0.00078287
C 19.15725282 26.73859171 20.59634978 -0.00057490 -0.00169457 0.00122634
C 22.55083637 23.79195497 22.12019411 -0.00843756 0.00080246 0.00045432
C 25.16445992 3.10233766 1.66382544 -0.00240218 0.00114669 -0.00000067
C 28.04552807 29.75608798 3.02924255 -0.00167434 -0.00271484 -0.00197961
C 25.62032346 3.01230625 6.41666256 -0.00292290 -0.00403904 -0.00147512
C 28.11501061 29.47029165 7.74629478 0.00875329 0.00036599 0.00045293
C 25.13036176 2.83919844 11.24339030 -0.00535268 -0.00172885 0.00586746
C 28.17349951 29.79345212 12.52997822 0.00381321 -0.00974546 0.00143304
C 25.06455671 2.97073206 15.94744464 0.00307327 0.00066436 0.00099377
C 28.21069624 0.11603800 17.33113802 0.00643923 -0.00101468 0.00240511
C 25.53298548 2.97959344 20.73651848 -0.00333468 -0.00087604 0.00058908
C 28.32716116 0.20383452 21.90923474 0.00457336 0.00171469 -0.00457623
C 24.66424344 9.60479250 1.69190175 -0.00310876 0.00504318 0.00331531
C 27.64738258 6.42671007 3.00483380 -0.00016408 0.00559737 -0.00145983
C 24.55018191 9.57806885 6.51200742 0.00772361 -0.00324965 0.00044263
C 27.69580390 6.42491448 7.82395037 -0.00131250 -0.00259906 -0.00228010
C 24.67680594 9.63439118 11.23004889 0.00021720 0.00183475 -0.00438931
C 27.77525332 6.35631050 12.53070838 0.00785256 0.00255486 -0.00549359
C 24.61857881 9.69656394 15.93810116 -0.00441528 -0.00124228 0.00028163
C 27.64821098 6.47717608 17.16336517 -0.00042026 -0.00273604 -0.00134803
C 24.64480074 9.78987391 20.66816668 0.00238930 -0.00462619 0.00532042
C 27.64231805 6.71003990 22.00177899 0.00511654 -0.00406945 -0.00412237
C 25.06752538 15.16547917 1.61291931 0.00613237 0.00120864 -0.00006671
C 28.07567358 12.13989864 2.98691126 -0.00244416 0.00624628 -0.00171703
C 24.75287111 15.17466504 6.48510150 0.00327361 -0.00335297 0.00056256
C 28.08298557 12.12730323 7.80761002 -0.00100515 -0.00977782 0.00015531
C 25.09145107 15.26360316 11.12395144 -0.00073720 0.00366037 -0.00345827
C 28.04485278 11.90088265 12.55795035 -0.00089074 0.00646367 0.00366443
C 24.92318717 15.20310608 15.83456867 -0.00443335 0.00224268 -0.00068107
C 28.29357907 12.08726763 17.20577848 -0.00135149 0.00122533 0.00317135
C 24.94685922 14.97673263 20.63404940 0.00043393 0.00423963 0.00373358
C 28.21564456 12.23162821 21.82778712 0.00243487 0.00246506 -0.00663984
C 25.42601557 20.78086029 1.72439693 0.00502984 -0.00047686 0.00507483
C 28.65041897 17.81075393 2.92965896 0.00196366 -0.00448244 0.00097019
C 25.28742842 20.65864836 6.67183909 0.00308248 -0.00107350 -0.00389301
C 28.66618652 17.75050919 7.81010731 0.00513519 -0.00214000 0.00484958
C 25.61600138 20.55646149 11.18051400 0.00745446 -0.00480188 -0.00211158
C 28.65829999 17.66229927 12.67703183 0.00008330 -0.00170827 0.00050159
C 25.43036473 20.80898369 15.90234890 -0.00236436 -0.00010866 -0.00307673
C 28.40073730 17.59432216 17.33298642 0.00221675 -0.00131223 -0.00622867
C 25.22824531 20.60120536 20.71294196 -0.01037188 -0.00237668 -0.00412764
C 28.59359070 17.86988546 21.93219365 -0.00230667 -0.00354668 0.00715203
C 25.74606692 26.25509060 1.60347693 0.00039371 0.00247413 0.00120725
C 29.03488664 23.29767090 2.99046598 -0.00149309 -0.00218209 0.00189458
C 25.75740516 26.31184492 6.42597936 0.00009057 -0.00055497 -0.00068710
C 28.76725394 23.48646901 7.57542900 -0.00196970 -0.00062286 -0.00249076
C 25.70748050 26.24082014 11.22272004 -0.00108771 -0.00164911 0.00350693
C 28.86499381 23.47819027 12.36207293 0.00063806 0.00069406 -0.00259978
C 25.40238001 26.38459929 15.92900987 -0.00519396 0.00446876 -0.00250665
C 28.47650526 23.19498778 17.12175640 -0.00493056 -0.00245571 0.00087473
C 25.70904919 26.34119394 20.67419083 0.00531017 0.00209141 0.00169960
C 28.98457702 23.23216458 21.89322987 0.00107567 0.00094231 -0.00076526
N 0.44984292 4.38058228 0.76879802 -0.00035498 -0.00320638 -0.00365235
N 3.42036936 5.07365266 3.65929270 0.00218090 -0.00322705 0.00153763
N 5.13374503 2.49300858 0.92212782 -0.00650098 0.00160192 0.00446822
N 1.84180351 1.35619250 3.75154684 0.00336954 -0.00157415 0.00133645
N 0.04599769 4.30694204 5.56724237 -0.00069256 -0.00315196 -0.00096282
N 3.39218344 5.07585545 8.38666133 0.00331816 0.00103142 0.00794224
N 5.32823635 2.26771761 5.88352127 -0.00276996 0.00463104 0.00474008
N 1.53681338 1.42106529 8.54445452 0.00364903 -0.00025538 -0.00480542
N 0.13842073 4.49435707 10.28446198 0.00049620 -0.00388546 0.00246152
N 3.64746586 4.96930880 13.34933176 0.00449585 -0.00089452 -0.00326352
N 5.42422093 2.34449890 10.54419570 -0.00418612 -0.00639969 -0.00355587
N 1.54474172 1.20686297 13.48147951 0.00330476 0.00702898 0.00404899
N 0.02003834 4.49951376 15.20118150 -0.00096853 -0.00052170 -0.00052205
N 3.72418399 5.38997088 17.96199756 -0.00167732 0.00628509 -0.00035654
N 5.59050312 2.39563587 15.43804190 0.00030528 0.00073745 0.00160749
N 1.45285821 1.28754294 17.86691601 0.00112246 0.00297039 -0.00235057
N 0.36085803 4.38797508 19.96990016 0.00087844 -0.00150095 0.00549022
N 3.90653219 5.29412051 22.75996349 -0.00082597 0.00240225 0.00032146
N 5.31417841 2.34505149 20.18668964 0.00182409 -0.00372199 0.00029220
N 1.78028880 1.43682293 22.66113127 0.00407921 0.00716300 -0.00035972
N 0.71597773 9.90674342 0.97948818 -0.00382276 -0.00128524 -0.00352057
N 4.20926798 10.99052109 3.56817820 0.00168149 0.00783118 0.00151367
N 5.76058975 7.94630174 1.25785587 -0.00076376 0.00378769 0.00010716
N 2.32038112 7.12649686 3.80026881 0.00177414 -0.00070066 0.00211698
N 0.63271793 9.98301733 5.60416011 -0.00637972 0.00107174 -0.00379360
N 3.96618009 10.73857436 8.50002261 -0.00640432 -0.00003263 -0.00348753
N 5.59983980 8.02934689 5.91648919 -0.00203885 0.00239089 -0.00646884
N 2.12669522 7.03597961 8.51225833 -0.00247320 0.00294593 0.00383438
N 0.69741169 10.14716603 10.73697049 0.00232494 -0.00048051 0.00734806
N 4.16074430 10.68563873 13.13371982 0.00385793 -0.00042170 -0.00710501
N 5.97880624 7.88651896 10.59652935 0.00043901 -0.00406137 -0.00272740
N 2.48911168 6.92718815 12.88073764 -0.00601672 0.00416149 -0.00285708
N 0.77339447 9.84133308 15.35765372 0.00255573 0.00054557 0.00116361
N 3.88680697 10.67009832 17.82113088 0.00229850 -0.00379851 -0.01326467
N 5.85224549 8.04829943 15.35998279 0.00163705 -0.00129201 -0.00292258
N 2.37476402 7.18503545 18.26966127 -0.00024802 -0.00327677 -0.00074931
N 0.71081573 9.95206540 20.15607908 -0.00506662 -0.00457617 0.00174488
N 4.08781606 10.71376036 22.75072118 0.00029530 -0.00177788 0.00207468
N 5.68147781 7.91156312 20.09089439 0.00371757 0.00937989 -0.00475941
N 2.52582641 7.06184895 22.97923422 0.00158629 -0.00066881 -0.00178370
N 0.86619262 15.28310453 1.03739527 0.00211614 -0.00051895 -0.00112689
N 4.21392557 16.42023208 3.81133487 0.00111405 -0.00107774 0.00277297
N 6.30570527 13.48768169 1.00345049 -0.00301874 -0.00103319 -0.00054142
N 2.57429890 12.53503074 3.66445225 0.00480990 -0.00224666 0.00452042
N 0.62049218 15.54959278 5.65297967 -0.00042301 0.00424595 0.00596614
N 4.46173625 16.42469894 8.46262604 -0.00214246 0.00435301 -0.00345777
N 6.23454857 13.14251581 5.72267387 -0.00304476 0.00153130 0.00172701
N 2.63233509 12.67553876 8.37812793 -0.00003545 0.00062500 0.00401303
N 1.07251593 15.72108275 10.23808883 0.00290955 0.00208646 -0.00130261
N 4.53934898 16.37170916 13.29038328 0.00170609 0.00318450 0.00218461
N 6.12960433 13.56960767 10.45953811 0.00781071 -0.00072587 -0.00273965
N 2.92221277 12.64129715 13.30979493 0.00094615 -0.00452615 -0.00065035
N 0.82535660 15.43894322 15.14212834 0.00047436 -0.00049384 0.00141738
N 4.38192894 16.63090405 18.14071253 0.00612912 -0.00569070 -0.00418208
N 6.17805775 13.41447349 15.43685092 -0.00237860 0.00061513 0.00449332
N 2.94261985 12.75356849 17.82734437 0.00644288 -0.00186125 0.00632228
N 0.75168727 15.41644273 20.03265365 -0.00577341 -0.00406784 -0.00715665
N 4.70661657 16.65304739 22.50424366 -0.00028973 -0.00145184 -0.00463950
N 6.17075992 13.51427419 20.21665872 -0.00807192 0.00668120 -0.00161986
N 2.50705577 12.43773797 22.50580241 0.00163144 -0.00280953 0.00666956
N 1.46339555 21.06074865 1.07831522 0.00813300 -0.00538222 -0.00089966
N 4.11354508 23.98455980 3.76700349 0.00036089 0.00256249 0.00825501
N 5.80089819 20.15958171 1.11812124 -0.00239106 -0.00465543 -0.00213386
N 2.65832736 18.07936862 3.86938269 -0.00391172 -0.00037724 0.00403713
N 1.48762290 21.03328024 5.86247474 -0.00962546 -0.00841192 -0.00106809
N 3.90867390 22.97839007 8.28750997 -0.00220120 0.00813398 -0.00112425
N 5.27551681 19.93537435 5.40562825 0.00598810 -0.00433053 0.00113218
N 2.83455854 18.03591911 8.49643588 0.00378715 0.00686219 -0.00237564
N 1.35284590 21.04545974 10.67337697 0.00332394 -0.00290559 -0.00067134
N 3.93309411 23.22062276 13.03066986 -0.00130633 -0.00045307 -0.00004410
N 5.45188194 20.17705332 10.32492985 0.00156983 -0.00081011 0.00045147
N 2.70193752 17.78900167 13.27114949 -0.00063882 -0.00183000 -0.00051427
N 1.30804048 21.08144858 15.06033172 -0.00080170 0.00420285 -0.00363432
N 3.93445472 23.08694768 18.06067598 0.00650865 0.00250297 0.00100855
N 5.28724520 19.85615189 15.01162510 -0.00367496 -0.00290088 0.00032527
N 2.88127789 18.37507093 17.94299106 0.00859581 -0.00145824 0.00331088
N 1.33726781 21.07104209 19.92611526 0.00584639 -0.00446746 0.00101894
N 4.09960877 22.99000072 22.87155382 -0.00319238 -0.00338749 0.00156444
N 5.42869480 19.82041287 20.12117391 0.00192524 -0.00284383 -0.00479047
N 2.82043453 17.97467615 22.90078393 -0.00111112 0.00194803 -0.00840418
N 0.78784973 27.67646607 0.90515436 0.00415575 -0.00181900 0.00533374
N 3.37265524 29.45239733 3.83763153 -0.00618275 0.00211763 0.00279450
N 4.60801334 26.78662141 1.37330381 -0.00415736 -0.00487755 -0.00375270
N 1.93587171 24.84274714 3.52972615 0.00341756 0.00642604 0.00323178
N 1.01182924 27.65833879 5.64906797 -0.00295371 -0.00123902 -0.00066713
N 3.48287650 0.14406117 8.50774272 0.00148711 -0.00151071 -0.00323208
N 4.69740125 26.38318093 5.86120362 -0.00220786 -0.00158699 0.00058704
N 2.04020310 24.22785424 8.42888178 0.00779359 -0.00336515 0.00062042
N 0.89055367 27.70547792 10.50410756 0.00031296 -0.00035637 -0.00313118
N 3.41949312 29.69697501 13.24876304 0.00091253 -0.00703996 -0.00477850
N 4.62820506 26.30521302 10.36492868 -0.00085034 -0.00690177 0.00509418
N 2.00003107 24.45682068 13.07190691 0.00099826 -0.00174014 -0.00993595
N 0.85391842 27.42270733 15.18434859 0.00203108 0.00744288 0.00352216
N 3.35965112 0.04971080 17.94505091 -0.00091066 0.00153838 0.00052699
N 4.78230715 26.40303568 15.09235613 0.00189822 -0.01305031 -0.00719428
N 2.02857690 24.23399749 17.86372345 0.00014515 -0.00037547 0.00266994
N 0.72659130 27.51574008 19.71836918 0.00346130 -0.00258261 -0.00270092
N 3.37754455 29.66705056 22.71602705 0.00410000 -0.00672680 0.00062396
N 4.90177288 26.53113266 19.86750276 -0.00672994 0.00352774 0.00372666
N 2.16103537 24.23743198 22.70572177 0.00461797 0.00074040 0.00228340
N 6.90026599 3.92570177 1.15063042 0.00028940 0.00705273 0.00460410
N 10.35800843 4.70290500 3.91304092 -0.00087755 -0.00317333 -0.00128009
N 11.74782916 1.83364743 1.37667540 -0.00340468 0.00228138 0.00761067
N 8.44579364 1.19922873 3.62253938 0.00197663 -0.00340200 -0.00293031
N 6.70743873 4.08060088 5.63527293 -0.00622248 0.00101046 0.00905490
N 9.95312932 4.69363820 8.39712360 -0.00060636 0.00331310 -0.00083159
N 11.90311218 1.89454282 5.94169683 0.00148162 -0.00049182 -0.00294015
N 8.32693915 0.77273608 8.42733821 0.00411637 0.00659085 -0.00373337
N 6.90105184 4.11565774 10.70670208 -0.00188952 0.00284809 -0.00478995
N 10.28013894 4.84784280 13.30667257 0.00081705 -0.00039870 0.00110495
N 11.54453489 1.90346509 10.66840967 -0.00035678 -0.00013270 -0.00385263
N 8.66818998 1.25335783 13.32834872 0.00036138 0.00117006 0.00459904
N 7.02533915 4.23495059 15.38244278 -0.00465135 -0.00251875 0.00048529
N 10.34257259 4.78946690 18.13633319 -0.00113177 0.00052607 -0.00115835
N 11.98551452 1.72604432 15.39063408 0.00149312 -0.00249612 0.00166476
N 8.51637128 1.18403240 17.79991802 -0.00027578 -0.00087620 0.00298754
N 6.69267620 4.16985241 19.99071318 0.00124461 0.00171406 -0.00644284
N 10.25906505 4.89749547 22.79545437 -0.00111243 -0.00337205 0.00298408
N 11.78712910 1.86905770 20.13518583 0.00681211 -0.00355673 0.00574093
N 8.60889324 1.24009445 22.68676767 -0.00452772 0.00174870 0.00442011
N 7.50192860 9.56445002 1.18545777 0.00278824 0.00372991 -0.00008499
N 10.90618802 10.60722508 3.74242907 -0.00369471 0.00178605 -0.00201346
N 12.38066536 7.59744909 0.86435666 0.00211595 0.00167818 0.00181714
N 9.13112576 6.71961392 3.87763153 -0.00294880 0.00058598 -0.00530134
N 7.21908311 9.67131766 5.77857704 -0.00044097 -0.00287927 -0.00244167
N 10.93451921 10.60802925 8.65440807 0.00550293 0.00201259 -0.00272552
N 12.43605774 7.64066391 5.65560936 -0.00271645 -0.00044209 -0.00681766
N 9.08568335 6.78125236 8.60573138 -0.00570507 -0.00007554 -0.00679148
N 7.46934026 9.59723706 10.61892626 0.00077641 0.00368354 0.00309850
N 11.04554702 10.79712248 13.44216981 0.00392130 -0.00430274 -0.00122578
N 12.38466217 7.49498729 10.51458131 0.00125426 0.00125224 0.00431148
N 9.06959541 6.84241389 13.28671812 0.00165129 -0.00014281 -0.00462925
N 7.37268445 9.73582631 15.44742275 0.00030115 -0.00050023 0.00314184
N 10.92548525 10.52342732 18.07845632 0.00124499 0.00918142 0.00271358
N 12.30865693 7.67125781 15.33649046 0.00004277 0.00636746 -0.00115786
N 9.09064666 6.71790830 17.94359748 -0.00003968 0.00086242 -0.00110553
N 7.17839678 9.66396121 20.02207498 -0.00561602 -0.00100626 -0.00131104
N 10.91010844 10.47606784 22.74414374 -0.00185134 -0.00279056 0.00295410
N 12.39400896 7.58642036 20.23122055 0.00200106 0.00176847 0.00566225
N 8.78150435 6.65519814 22.84539438 -0.00336064 -0.00450083 -0.00209866
N 7.86921855 15.19349786 1.09907493 0.00192743 -0.00100800 -0.00299518
N 10.59453925 17.34612518 3.73662036 -0.00044586 0.00004125 0.00702483
N 11.91648962 14.41430540 0.88029071 -0.00747700 0.00664318 0.00405062
N 9.37744038 12.31419590 3.72971339 0.00436602 -0.00073123 -0.00087640
N 7.47105809 15.07540778 5.52176810 -0.00117249 0.00340385 -0.00328860
N 10.38226955 17.28260652 8.34641652 -0.00658930 0.00011949 -0.00284687
N 11.55954268 14.13327676 5.61776696 0.00144174 0.00021477 -0.00363852
N 9.27770402 12.02560571 8.46273854 0.00137390 0.00124595 -0.00295822
N 7.91634883 15.00154425 10.55187229 0.00367165 0.00122604 -0.00147503
N 10.57272821 17.24361499 12.93284659 0.00209399 0.00404132 0.00030439
N 11.96574935 13.66763945 10.44608444 0.00187950 -0.00027824 -0.00209923
N 9.25618854 12.33267453 13.35907839 -0.00131935 0.00311020 0.00509263
N 7.62099311 15.23930086 15.28882776 0.00133783 -0.00125152 -0.00545684
N 10.28547540 17.21585898 17.77832591 -0.00043475 -0.00251334 -0.00056408
N 12.01526684 13.93473323 15.44040531 -0.00072246 -0.00023554 -0.00106071
N 9.34403498 12.18600644 18.18720824 -0.00005420 0.00223664 0.00012874
N 7.80506076 15.15571037 20.26201686 -0.00110600 0.00090481 0.00275185
N 10.39818469 17.21781010 22.70954043 -0.00206869 -0.00678536 0.00195091
N 12.04751072 14.35083744 19.86169916 -0.00141986 -0.00218519 -0.00085259
N 9.71696396 12.47300344 22.96132057 -0.00718991 -0.00242264 -0.00339511
N 7.30802183 21.86398700 0.90482594 -0.00026821 0.00365605 0.00050500
N 9.54948914 23.68003665 3.70439712 0.00168961 0.00674460 0.00385980
N 11.23997717 20.53602862 0.92293840 0.00138643 0.00199167 0.00924684
N 8.69633103 18.61427347 3.65791965 -0.00455876 0.00190201 -0.00707844
N 7.13526493 21.16270214 5.68523220 -0.00446174 0.00185485 -0.00433697