2000
Time=16000.00000000 pbc="T T T" Lattice="31.17645881 0.00000000 0.00000000 0.00000000 29.92890742 0.00000000 0.00000000 0.00000000 23.51309537" energy=-12040.47651410 virial="-72.57522016 -27.52036987 7.40064483 -27.52036987 -53.96067692 -10.58234261 7.40064483 -10.58234261 -80.52688072" stress="-0.00128812 -0.00124586 0.00027933 -0.00124586 -0.00035071 -0.00048277 0.00027933 -0.00048277 -0.00056596" Properties=species:S:1:pos:R:3:vel:R:3
C 30.46822103 3.65426756 1.64057551 0.00693677 0.00317343 -0.00421398
C 2.57482080 0.53568127 2.86618021 0.00167746 -0.00457537 0.00314497
C 30.72179905 3.47002090 6.38554276 -0.00320125 0.00445490 -0.00739313
C 2.65086775 0.36333206 7.57045886 -0.00305852 0.00020777 -0.00124746
C 30.53893335 3.56575267 11.17886459 0.00009603 0.00388465 0.00376515
C 2.72451456 0.63693851 12.31789864 -0.00203734 0.00392928 -0.00689818
C 30.53416113 3.75822984 15.79427420 -0.00146495 0.00268245 -0.00249539
C 2.47769578 0.42047213 17.01373694 -0.00339538 0.00393057 -0.00026045
C 30.59747025 3.60209006 20.57378343 -0.00340595 0.00336504 -0.00094125
C 2.49747685 0.51065381 21.78680583 -0.00014043 -0.00418146 -0.00060514
C 0.07487308 9.32203280 1.80482966 -0.00576478 -0.00140258 -0.00088511
C 2.97638610 6.43145106 3.04877246 -0.00407902 -0.00188408 0.00485197
C 30.95651872 9.12589454 6.43611861 -0.00460910 0.00060659 0.00365190
C 3.01000863 6.20686958 7.81540015 0.00115633 -0.00020274 0.00290751
C 31.00576304 9.03642370 11.13609994 -0.00045767 0.00414002 -0.00421615
C 2.88415361 6.28485856 12.48400497 -0.00068039 0.00679078 -0.00310591
C 31.01227896 9.27728687 15.76072817 -0.00241865 -0.00160497 -0.00381882
C 2.80784676 6.24754089 17.06158519 0.00135209 -0.00307012 0.00347144
C 31.10150746 9.17686563 20.28514772 0.00526142 0.00440683 -0.00011888
C 2.85998533 6.24789790 21.91387484 -0.00287153 0.00524095 -0.00636152
C 0.15028287 14.73238287 1.68126336 0.00006567 -0.00024664 -0.00642504
C 3.36915641 11.99759152 3.00752010 0.00674273 -0.00079843 0.00405887
C 0.40137762 14.65759624 6.46521588 0.00123122 0.00333573 -0.00365358
C 3.49350931 11.90239563 7.77133389 -0.00337414 0.00483988 0.00071866
C 0.17235982 14.54307326 11.01095899 0.00106014 -0.00056868 -0.00543246
C 3.19351960 11.90433573 12.39488074 -0.00638998 0.00038531 -0.00235132
C 0.05321354 14.75952626 15.75622897 0.00647759 -0.00271328 0.00253382
C 3.39619040 11.75167043 17.11530727 -0.00075367 0.00379002 0.00666408
C 0.15814202 14.64183181 20.45070603 0.00461662 -0.00208191 -0.00457871
C 3.34139606 11.85339218 21.80373459 0.00557441 0.00709245 -0.00105451
C 0.82818915 20.24136486 1.59450918 0.00453190 -0.00350675 -0.00338793
C 3.73092390 17.38478123 2.87919540 0.00277679 0.00082700 0.00262550
C 0.44710114 20.23159344 6.25952817 0.00724998 -0.00203979 -0.00718468
C 3.72163925 17.32397629 7.76770059 -0.00242654 -0.00129564 -0.00029460
C 0.64873806 20.16614064 11.02213820 0.00113511 0.00004795 0.00707595
C 3.61417995 17.41228951 12.42656263 -0.00576801 -0.00031652 -0.00016455
C 0.79666115 20.28712529 15.70270253 -0.00376318 -0.00575369 0.00422896
C 3.72120937 17.27334515 16.99586056 -0.00058976 0.00074168 0.00450564
C 0.73004026 20.40661838 20.26568959 0.00388983 -0.00423449 -0.00209446
C 3.78592561 17.55081020 21.72028779 0.00000742 -0.00262110 0.00008604
C 31.04127232 26.92792562 1.74325400 0.00427068 -0.00341205 0.00356353
C 3.05339895 24.00111776 3.12014846 -0.00226371 0.00257099 0.00357918
C 0.10826651 26.71078630 6.41759865 0.00012358 -0.00251373 0.00132106
C 2.95504189 23.68976153 7.72379919 0.00299066 0.00693763 -0.00138344
C 0.13926368 26.98930354 11.17714654 0.00049662 -0.00102176 0.00292596
C 3.03647994 23.98316690 12.49491075 0.00684959 -0.00057136 -0.00450384
C 30.75305298 26.92776201 15.87225900 -0.00155106 0.00328772 0.00063351
C 3.20164931 24.07976609 17.13715771 -0.00198473 0.00212762 0.00189813
C 0.18613705 26.92298958 20.57467226 0.00445150 -0.00109449 0.00045858
C 3.20077344 23.96645916 21.65953463 0.00460512 -0.00198651 -0.00171935
C 5.84808498 3.26824045 1.68866291 -0.00051659 0.00120400 0.00161037
C 9.21853178 0.26324578 3.05828178 0.00328975 -0.00021098 -0.00434809
C 6.05204794 3.33828410 6.18375636 0.00042042 0.00085530 0.00125177
C 8.99405937 0.32792825 7.65416587 0.00167066 -0.00455243 0.00085696
C 5.93225151 3.22231630 11.20278195 0.00018496 0.00826812 -0.00678681
C 8.91685472 0.23642656 12.34598529 0.00662539 0.00301055 0.00420469
C 5.90180747 3.17931021 15.88912044 0.00057183 -0.00048870 0.00156658
C 9.05837383 0.21306037 17.00656491 0.00036511 -0.00459762 -0.00047600
C 5.82852802 3.23603734 20.36218586 0.00880082 -0.00119813 -0.00230693
C 9.09553782 0.25657900 21.88495476 0.00043285 -0.00154669 0.00110654
C 6.51424369 8.65574406 1.75058293 -0.00622915 -0.00913183 -0.00273049
C 9.28604901 5.94787870 3.15712648 -0.00460933 -0.00094998 -0.00679064
C 6.24885957 8.88879908 6.50993089 -0.00288748 -0.00161013 0.00549792
C 9.57328108 5.78825262 7.73467476 0.00277642 0.00269413 0.00063656
C 6.41796596 8.66207822 11.12568245 0.00437905 0.00314073 0.00310860
C 9.64272913 5.78073741 12.47679096 -0.00369768 0.00138890 -0.00526892
C 6.57093857 8.44173282 15.89509136 -0.00137415 -0.00295791 0.00035927
C 9.68500211 5.63094619 17.34743964 0.00420790 0.00215818 0.00326979
C 6.40196681 8.70064245 20.56312600 0.00314169 0.00911044 0.00300163
C 9.50021930 5.84071098 21.84126713 -0.00029976 -0.00026748 -0.00415948
C 7.14632315 14.41525896 1.59520320 0.00208886 -0.00475209 0.00261984
C 9.98685722 11.46707876 2.93610386 -0.00591198 -0.00159942 -0.00438257
C 6.94819955 14.49334952 6.57516839 -0.00328720 -0.00071980 -0.00249908
C 10.24528748 11.26671929 7.85185590 0.00042711 0.00095748 0.00344480
C 6.89277272 14.50489122 11.24771805 0.00376338 -0.00176375 -0.00382307
C 9.90018731 11.28223310 12.55162615 -0.00271380 -0.00546905 -0.00175848
C 6.83137137 14.24473784 15.94120045 -0.00591082 0.00128918 -0.00280935
C 10.04916783 11.21554457 17.02947308 -0.00853786 0.00114772 -0.00629774
C 6.93783480 14.32850048 20.64803970 0.00179928 -0.00784028 -0.00728708
C 10.03125237 11.13222904 21.77010986 0.00489290 0.00177288 0.00342023
C 6.36357465 20.88266268 1.63556296 -0.00149023 0.00027856 -0.00615611
C 9.53413907 17.87718629 3.09993140 0.00123691 -0.00530170 -0.00565662
C 6.18349022 20.91152024 6.38201704 0.00095708 0.00176207 -0.00584804
C 9.48017292 18.09402115 7.66179246 -0.00066309 0.00462846 0.00281424
C 6.21677849 20.66730058 11.03855858 0.00294561 0.00414354 0.00025878
C 9.25897225 18.09872507 12.47953901 0.00774219 0.00312880 -0.00614626
C 6.14601957 20.96233473 15.71393076 0.00452939 0.00363468 0.00017259
C 9.22899660 18.01213110 17.21003818 0.00241893 -0.00006901 0.00455183
C 6.23449319 20.83804677 20.42315965 0.00198669 0.00041222 0.00255337
C 9.43565756 18.03058714 22.00486055 0.00786407 0.00000696 -0.00371917
C 5.32038774 27.48226116 1.69808980 -0.00287848 0.00049178 0.00112979
C 8.81043048 24.60658806 2.89199658 -0.00135684 0.00580985 0.00435319
C 5.63697950 27.42178499 6.41273639 -0.00081126 0.00152115 0.00433043
C 8.56099411 24.46789437 7.71994532 -0.00327918 0.00453113 0.00008556
C 5.57036874 27.46220897 11.17177407 0.00625551 -0.00126450 0.00608697
C 8.60253202 24.53872192 12.32457687 -0.00363941 0.00288512 0.00261012
C 5.48519807 27.68654703 15.98073892 0.00105460 0.00056547 0.00514594
C 8.66650728 24.48613605 16.97741355 0.00124340 -0.00163117 -0.00111326
C 5.59239297 27.69783141 20.48224480 -0.00176475 -0.00441316 0.00395651
C 8.95390748 24.70698062 21.86517528 0.00056026 0.00198501 0.00212904
C 12.66818212 2.79169490 1.73066601 -0.00830034 -0.00360243 -0.00163791
C 15.85751680 29.62470233 2.95636819 0.00162851 0.00534372 0.00313430
C 12.59391208 2.91191888 6.42049766 0.00103148 -0.00251743 -0.00124592
C 15.90311086 29.82680084 7.70492994 -0.00434868 -0.00068439 -0.00137519
C 12.75019899 2.83755744 11.05089492 0.00446836 -0.00109785 0.00267193
C 15.98034896 0.12094034 12.46966841 -0.00126002 0.00143187 0.00610758
C 12.63831363 2.78812226 15.71974314 -0.00235399 -0.00167941 0.00358447
C 15.71092968 29.81073696 17.09457303 0.00063034 -0.00657638 -0.00186771
C 12.58419141 2.73381751 20.59772736 -0.00520848 0.00253316 0.00058611
C 15.89297909 29.91558817 21.66365396 0.00078965 0.00325741 -0.00311185
C 13.22088269 8.23778646 1.64773722 0.00136675 0.00464402 -0.00032010
C 16.45722932 5.31488949 2.91838938 -0.00050286 -0.00528239 0.00285968
C 13.02788627 8.25742085 6.34322763 0.00011375 0.00222311 0.00011071
C 16.21484128 5.35451124 7.66316811 -0.00157001 -0.00335075 -0.00546079
C 13.22463149 8.47445703 11.13962786 0.00156818 0.00169007 0.00315778
C 16.13426804 5.36192723 12.44107462 -0.00005394 0.00564178 -0.00064666
C 13.07334937 8.39828964 15.91391926 -0.00071770 0.00479072 -0.00245723
C 16.05121348 5.38837716 17.11599139 -0.00081264 0.00536166 -0.00060973
C 12.96616390 8.26444895 20.48887402 -0.00293016 0.00700916 -0.00344077
C 15.97413071 5.28901794 21.79644695 -0.00408541 0.00253691 0.00712793
C 12.42965067 14.98875837 1.81978453 -0.00102707 -0.00314119 -0.00588813
C 15.31716735 11.69538475 3.15394428 0.00515910 -0.00184340 0.00287288
C 12.30983212 15.09086968 6.48505722 0.00004624 0.00225873 0.00254739
C 15.60981155 12.01568907 7.88939879 -0.00232491 0.00247731 0.00402336
C 12.39525852 15.13619742 11.21844650 0.00257684 -0.00204361 -0.00399823
C 15.37776962 11.97443444 12.39423062 -0.00169705 0.00408621 0.00074285
C 12.42613010 14.87258822 15.88361503 -0.00305718 -0.00066527 -0.00281025
C 15.58028990 11.97228149 17.11893029 0.00903049 0.00438476 0.00349376
C 12.72248076 14.77448492 20.56926497 0.00044370 -0.00441917 -0.00156556
C 15.66929471 12.04751046 21.84159149 0.00799289 -0.00110054 -0.00586108
C 11.74961624 21.47314460 1.54310166 0.00348836 0.00038248 0.00161641
C 15.16418832 18.86180331 3.03689043 -0.00095715 0.00314987 0.00121967
C 11.85358640 21.69871077 6.27793767 0.00307820 -0.00209990 -0.00268985
C 15.09427557 18.71675301 7.75649405 0.00245514 0.00081199 0.00510127
C 11.69776876 21.67335993 11.04596416 -0.00303288 -0.00782434 0.00359710
C 14.82628489 18.69517492 12.33885522 -0.00372375 -0.00000813 0.00495335
C 11.67336071 21.70711791 15.67217105 -0.00409188 -0.00518908 0.00173962
C 14.98168304 18.55479676 17.10694359 -0.00416084 0.00193313 0.00161163
C 11.56759614 21.62271949 20.28876070 0.00124070 -0.00154284 0.00405413
C 15.05790764 18.51627779 21.73870916 -0.00071543 0.00119358 0.00030539
C 12.18435594 27.40198610 1.56495801 0.00025023 0.00010317 0.00219352
C 15.17820264 24.05440894 3.02590164 0.00160104 0.00160551 -0.00020748
C 12.21070722 27.11646641 6.35967098 -0.00201683 -0.00339893 0.00036638
C 15.59602913 24.31865172 7.68160264 -0.00573996 -0.00796119 0.00350143
C 12.41673888 27.23545331 10.93022978 0.00185032 -0.00038564 -0.00449081
C 15.13791143 24.27336986 12.28885224 0.00266833 0.00161349 -0.00382689
C 12.31116688 27.13267183 15.77256096 -0.00412892 0.00444108 -0.00233721
C 15.13753381 24.12216892 17.11070815 -0.00146556 -0.00471786 -0.00248822
C 12.16582415 27.24118519 20.49493506 0.00381792 0.00292242 0.00649729
C 15.48376980 24.31293247 21.87536915 -0.00030860 0.00296252 0.00215504
C 19.75365075 2.35844515 1.65604881 -0.00205131 -0.00409555 -0.00534731
C 22.73002121 29.43473292 2.95357772 -0.00390190 0.00252328 0.00557877
C 19.32359062 2.19212470 6.31162986 -0.00626104 -0.00210028 -0.00347959
C 22.65807118 29.39378876 7.74324341 -0.00225253 -0.00182179 -0.00324446
C 19.33884493 2.39863956 11.06846922 0.00585122 0.00629068 0.00072784
C 22.46160591 29.29862394 12.49940845 -0.00154431 0.00155658 -0.00485322
C 19.35249914 2.34869473 15.81916183 0.00057359 -0.00046563 0.00236851
C 22.37726482 29.07559866 17.02223682 -0.00356666 -0.00299913 -0.00209196
C 19.59296715 2.27106413 20.49099451 -0.00164522 0.00586058 -0.00147562
C 22.52912029 29.27423719 21.78887442 -0.00475772 -0.00346267 0.00180036
C 18.68257551 8.98215235 1.65488297 0.00453744 -0.00501419 0.00466834
C 21.85727221 6.03795636 2.93304051 0.00176099 0.00541071 0.00221188
C 18.50453118 8.76063617 6.40784163 0.00025228 0.00580841 -0.00490947
C 21.70855964 5.89221110 7.81870613 0.00185569 -0.00346492 0.00191186
C 18.74002165 9.01405566 11.02933032 0.00466381 0.00238401 -0.00117465
C 21.86926081 6.22003289 12.43923171 -0.00840187 0.00321480 0.00021568
C 18.77193164 9.07719986 15.96735730 -0.00575982 -0.00335444 -0.00750860
C 21.91767335 5.88352549 17.19849994 -0.00385188 -0.00079301 0.00173642
C 18.69721768 8.92166899 20.62170418 0.00002977 0.00507083 -0.00078652
C 21.61073742 5.81950948 21.86305256 -0.00497329 -0.00433604 -0.00467943
C 18.04443967 15.59353504 1.72549746 0.00143679 0.00415197 -0.00484465
C 21.11572702 12.23976329 2.96834440 -0.00262470 0.00775266 -0.00288846
C 17.98671292 15.63752921 6.45014104 -0.00311577 0.00019699 -0.00084301
C 21.09243185 12.68304768 7.69542776 0.00089709 0.00348469 0.00228240
C 17.93021797 15.64645522 11.17631580 0.00566938 0.00364963 0.00925159
C 21.08426973 12.31845528 12.29543338 0.00347873 -0.00122414 0.00684967
C 18.07293585 15.31060190 15.73212793 0.00281602 -0.00457936 -0.00189743
C 21.22080203 12.80577606 17.02014372 0.00238203 0.00207512 -0.00272969
C 18.02880510 15.68710837 20.59634301 0.00858100 0.00303287 -0.00137731
C 21.18893337 12.57161530 21.73798424 -0.00156859 0.00721966 -0.00415607
C 18.51160731 21.28097433 1.74925731 -0.00037465 -0.00342052 0.00244195
C 21.60365625 18.12420431 2.98669271 0.00033953 -0.00685558 -0.00618092
C 18.39243621 21.22641533 6.27379822 0.00110819 0.00235393 0.00278659
C 21.52318633 18.06053128 7.67386316 -0.00001418 -0.00160469 -0.00449613
C 18.47858042 21.28815059 11.19177838 -0.00070943 0.00099082 0.00358854
C 21.61652085 18.13320840 12.36046841 0.00708419 -0.00201672 -0.00604234
C 18.45999115 21.23099644 15.78402356 -0.00369590 0.00491760 0.00466112
C 21.33328833 18.09633810 17.13714158 -0.00101681 -0.00045070 0.00071838
C 18.37619332 21.13144126 20.41909564 -0.00406018 -0.01005253 -0.00251751
C 21.67220660 18.29833613 21.77982754 0.01014715 0.00277697 -0.00223731
C 18.91927163 26.88578319 1.74291866 -0.00685612 0.00092214 0.00227262
C 22.30175800 23.59862839 2.89497710 -0.00659449 -0.00563348 -0.00095913
C 19.07744596 26.70665686 6.39043618 0.00682628 0.00284082 -0.00004971
C 22.05252145 23.81479080 7.78910396 0.00166288 -0.00328789 -0.00030270
C 19.08888951 26.82087932 11.02967084 -0.00176797 -0.00569549 -0.00058977
C 21.83369381 23.74276086 12.30760224 -0.00213486 0.00300271 -0.00324656
C 18.84028828 26.79039678 15.69635647 0.00439095 0.00370629 -0.00111811
C 22.26769027 23.90146619 17.02274480 0.00214006 0.00497893 0.00289198
C 19.02394393 26.79149015 20.42601401 -0.00422324 0.00199952 0.00289484
C 21.87821045 23.72473877 21.64126690 0.01148077 -0.00601449 0.00360282
C 25.11399823 3.09493168 1.72594273 -0.00312896 0.00458692 0.00180855
C 27.89299049 0.24262510 3.12169319 0.00247932 0.00148551 0.00042980
C 25.29666045 3.09055441 6.53246266 -0.00039995 0.00275524 0.00105026
C 28.05085028 0.23412204 7.68726044 0.00086114 0.00797825 -0.00631989
C 24.89003310 3.00877162 11.16840149 0.00078249 -0.00324512 -0.00260247
C 27.96352367 29.78443283 12.24817120 0.00439510 -0.00016321 0.00006710
C 24.88923647 3.08815703 15.89716925 -0.00479687 -0.00431283 0.00195771
C 27.97270592 29.89003101 16.97038488 -0.00275240 -0.00394231 -0.00149723
C 24.94015572 2.87038513 20.62556726 0.00508557 -0.00417180 -0.00956462
C 28.03980258 0.00212868 21.84400058 0.00045061 -0.00176722 -0.00362562
C 24.27989314 9.70088365 1.46052654 0.00271141 0.00312573 0.00019223
C 27.55447604 6.69129269 3.00820920 0.00632720 -0.01138591 0.00120134
C 24.37957414 9.57443247 6.42590637 -0.00629253 0.00764391 -0.00131214
C 27.40864808 6.44599175 7.75632775 -0.00478528 -0.00168230 0.00122427
C 24.27875629 9.62547810 11.03047046 0.00008344 0.00431864 -0.00594983
C 27.35876842 6.38384547 12.54044422 -0.00268846 0.00367717 -0.00553306
C 24.41278264 9.60614121 15.63785912 0.00008290 -0.00386989 -0.00463449
C 27.36364191 6.44222700 17.26094949 0.00519749 -0.00140626 -0.00210437
C 24.32166291 9.75333163 20.37275035 -0.00051611 0.00177773 0.00164021
C 27.69015051 6.60915943 21.80319957 0.00162196 0.00321217 -0.00402006
C 24.61279842 15.21121096 1.89439686 0.00247416 -0.00364400 -0.00490654
C 27.84733129 12.28190032 3.14632684 0.00763520 -0.00009028 0.00936590
C 24.82238884 14.91039610 6.42028274 -0.00404112 -0.00493249 0.00084067
C 27.98767067 11.95554422 7.80110808 0.00026708 0.00061201 -0.00538308
C 24.52071122 15.08051232 11.20345880 0.00237945 -0.00199473 0.00087452
C 27.77328303 12.15714166 12.57526868 -0.00189259 0.00288004 0.00776109
C 24.66838826 15.29451250 15.87623347 -0.00078272 0.00325695 0.00130356
C 27.74690166 12.23943030 17.03942107 0.00647668 0.00036650 0.00734002
C 24.59331061 15.10450835 20.56957652 0.00328528 -0.00369104 -0.00185370
C 27.79833562 12.14727403 21.89467080 -0.00448262 0.00225154 -0.00177943
C 25.32518625 20.56791313 1.65242694 0.00411932 0.00367964 0.00280734
C 28.45458313 17.75674939 3.03310401 -0.00015938 0.00112420 -0.00528046
C 25.38447555 20.79185929 6.30829804 -0.00101608 -0.00196895 -0.00663012
C 28.24943532 17.63200235 7.89254703 -0.00533228 0.00065098 0.00175427
C 25.21599393 20.78097226 11.06014565 -0.00050287 0.00344483 -0.00624145
C 28.01898244 17.65235008 12.40278096 -0.00717753 -0.00376590 0.00611604
C 24.95608535 20.74283378 15.78401282 0.00138399 -0.00250489 -0.00796779
C 28.38528004 17.73316025 17.24327477 -0.00270700 -0.00207623 0.00035337
C 25.12767015 20.83735883 20.59903445 -0.00441763 -0.00419815 -0.00476728
C 28.37480368 17.74735158 21.85180014 -0.00007742 0.00166694 0.00437504
C 25.53395973 26.37654358 1.75212185 -0.00300017 -0.00524014 -0.00238169
C 28.74436239 23.31960118 2.92697238 -0.00651208 0.00370241 0.00372103
C 25.66399165 26.26160741 6.31907857 -0.00017514 -0.00320292 0.00068847
C 28.70637918 23.16159133 7.74621586 0.00035176 -0.00033868 0.00929856
C 25.68040014 26.21091985 11.22167565 0.00052885 0.00631112 -0.00381360
C 28.90688113 23.27360357 12.27509692 -0.00791854 0.00335594 -0.00619499
C 25.62250372 26.31988482 15.79691666 0.00211062 -0.00230243 -0.00252032
C 28.61332970 23.25970380 17.02803116 -0.00022457 0.00323243 -0.00469580
C 25.52590835 26.40431448 20.51412483 -0.00316534 -0.00006019 0.00260594
C 28.74559015 23.44855356 21.78565848 0.00095533 -0.00298907 -0.00027625
N 0.18483934 4.46739070 0.98116977 0.00377725 0.00809197 0.00324671
N 3.58539550 5.37317680 3.63137184 0.00033504 0.00875727 -0.00065431
N 5.33843837 2.23433164 0.98959019 -0.00192772 0.00237711 0.00267818
N 1.72217026 1.26683476 3.69313187 -0.00905966 -0.00670487 0.00381126
N 0.43197985 4.31292451 5.68746062 0.00243671 0.00200411 -0.00077837
N 3.49992512 5.24658733 8.56326410 -0.00376060 -0.00071462 0.00374575
N 5.26711702 2.48587726 5.53907730 -0.00504274 -0.00125593 -0.00403792
N 2.05009129 1.37118422 8.26021332 0.00058153 -0.00064919 -0.00087366
N 0.22361237 4.37942215 10.48497946 0.00628886 0.00239643 0.00040746
N 3.38647594 5.23098929 13.18945172 0.00101246 -0.00698720 0.00213413
N 5.06693788 2.50277506 10.33988167 -0.00061884 -0.00187284 0.00109356
N 1.82026734 1.29875689 13.14074170 -0.00481119 -0.00556571 0.00182210
N 0.00854777 4.63137315 15.00120354 0.00074771 -0.00117138 -0.00055158
N 3.34730563 5.37222531 17.89119838 -0.00414241 -0.00404918 0.00455373
N 5.16609011 2.31045506 15.08178680 0.00198233 -0.00768630 -0.00272114
N 1.62438343 1.24399823 17.68909646 -0.00470890 -0.00473781 -0.00518107
N 0.17425468 4.47451696 19.89023054 -0.00620536 0.00626665 0.00491778
N 3.50415733 5.20687039 22.47208048 -0.00185802 -0.00013477 -0.00172182
N 5.06779472 2.32087846 19.69001211 0.00134492 -0.00018443 0.00023332
N 1.80451454 1.44772848 22.40131782 -0.00168432 -0.00227727 0.00181300
N 0.87914009 10.14278307 1.09156128 0.00413637 -0.00477548 0.00898066
N 3.96142799 11.01484235 3.69786553 0.00189474 -0.00140949 0.00250775
N 5.57353761 8.00010932 1.04329106 0.00268068 -0.00228147 -0.00193264
N 2.23252755 7.18623099 3.83353527 0.00384950 -0.00102741 0.00038498
N 0.51490354 10.04842568 5.81569528 -0.00350587 -0.00417148 0.00569810
N 4.03229957 10.87422421 8.50930679 0.00138612 0.00069077 -0.00237465
N 5.53269385 8.08451802 5.73405888 0.00025624 0.00111218 -0.00268546
N 2.32159923 7.13533121 8.49262065 -0.00452540 0.00602253 0.00843810
N 0.48936735 9.90476207 10.30907107 -0.00060547 -0.00414584 -0.00348659
N 3.93487557 10.91733342 12.98855518 -0.00218148 0.00319482 0.00298075
N 5.59272595 7.80579190 10.40413552 -0.00251334 0.00273945 0.00116164
N 2.37795061 7.32278984 13.19121284 -0.00423935 0.00680644 -0.00096167
N 0.52137090 10.22228305 15.07232346 -0.00305811 0.00111611 0.00415671
N 4.18155626 10.93087483 17.93043708 -0.00165789 -0.00546572 0.00962737
N 5.83124404 7.81485238 15.01841016 0.00364698 0.00153208 -0.00056798
N 2.28125902 7.32896488 17.61739301 0.00515357 0.00111046 -0.00059896
N 0.58534725 10.15714916 19.65180930 -0.00498858 0.00112177 0.00143286
N 3.84449616 10.82506137 22.62573755 0.00342407 -0.00517606 0.00213961
N 5.76181369 7.77291553 19.78478760 -0.00489351 0.00143329 0.00173156
N 2.13746388 7.05578786 22.73131727 -0.00463278 0.00167169 0.00011967
N 0.84753360 15.68895464 0.99585894 -0.00053968 -0.00105156 0.00054713
N 4.66402016 16.64501766 3.55429797 -0.00167656 0.00362186 -0.00401986
N 6.14035267 13.63347365 1.03099809 0.00210466 0.00341601 0.00143193
N 2.79751101 12.89944382 3.85446346 -0.00151247 0.00224117 0.00790037
N 1.17027241 15.41665542 5.65888123 -0.00881823 0.00308248 0.00400292
N 4.47220760 16.53984459 8.55884475 -0.00436843 0.00077637 -0.00657011
N 6.41183978 13.50530634 5.84180198 0.00426173 0.00004499 0.00289467
N 2.83947276 12.83609340 8.51211186 0.00114403 -0.00751463 -0.00156310
N 0.93979728 15.46774690 10.31466548 -0.00365035 0.00326220 0.00527750
N 4.44398644 16.55759593 13.14014731 -0.00112311 -0.00135733 0.00165043
N 6.19856038 13.65011148 10.45172596 0.00929570 0.00362907 0.00423444
N 2.70236989 12.80973804 13.27310634 -0.00428828 0.00304522 0.00264607
N 0.96197738 15.50680457 14.94817308 -0.00055287 -0.00446095 -0.00565262
N 4.61436143 16.65026598 17.77169495 0.00121770 0.00010528 -0.00386644
N 6.07391498 13.46092588 15.17008703 0.00651535 -0.00179327 -0.00030418
N 2.83119791 12.83259469 17.75123571 -0.00310673 -0.00164789 -0.00412059
N 1.01832482 15.47283024 19.93153706 -0.00160140 -0.00252137 0.00131271
N 4.62901423 16.68719830 22.29042302 -0.00108922 0.00415521 -0.00246529
N 6.19256670 13.59688239 19.81781295 0.00401812 0.00165445 0.00060018
N 2.86886782 12.96005615 22.43175659 -0.00388492 -0.00244950 0.00193753
N 1.64139512 21.08525340 0.86740221 -0.00105780 -0.00563029 0.00196960
N 4.05232623 23.42324021 3.88545314 -0.00768203 0.00030945 -0.00746831
N 5.33746316 20.24725228 0.85652137 -0.00128553 -0.00349514 -0.00162030
N 3.09210218 18.25575396 3.66487843 -0.00301330 -0.00195321 -0.00050057
N 1.28330723 21.07949755 5.69253208 -0.00218107 0.00016402 -0.00521532
N 3.92307392 23.03561437 8.47587781 0.00456871 -0.00308307 0.00117374
N 5.38475547 20.06539444 5.72673888 0.00036396 -0.00427102 0.00765616
N 2.67622231 18.02408586 8.37327684 -0.00535661 0.00303439 -0.00849680
N 1.49703980 21.14356546 10.51155471 -0.00179562 0.00419594 0.00297250
N 3.98181614 23.21773467 13.17752179 -0.00461888 0.00098898 0.00672163
N 5.46118383 19.88533791 10.25841500 0.00510630 0.00439549 -0.00202211
N 2.77877392 18.15006870 13.12965969 -0.00800853 0.00211821 -0.00032313
N 1.65752727 21.04357558 14.94341647 0.00031488 0.00182663 0.00256681
N 4.27308288 23.47522629 17.77257904 0.00244220 -0.00350636 -0.00257019
N 5.36777324 20.13106276 15.02866358 -0.00122455 0.00240896 0.00217362
N 2.98627402 18.25927384 17.56245798 -0.00221630 0.00147497 0.00004515
N 1.68512289 21.12112484 19.59477117 0.00130004 0.00563926 -0.00172795
N 4.21335622 23.43606658 22.40704821 -0.00191469 -0.00096751 -0.00220380
N 5.28719897 20.16189325 19.71333149 0.00018385 -0.00500956 -0.00013745
N 3.03816512 18.32261326 22.54171293 0.00167521 0.00303279 0.00041589
N 0.58427862 27.76791284 0.96386200 0.00112662 -0.00052438 -0.00133750
N 3.42449768 29.57686758 3.40746778 -0.00252694 -0.00435372 -0.00016700
N 4.56738623 26.72487836 0.87783773 0.00720917 0.00336113 0.00409740
N 2.16852731 24.73884029 3.78654231 -0.00259244 -0.00202526 -0.00569212
N 0.76465880 27.57162212 5.59967507 0.00707083 0.00681691 0.00413679
N 3.55922902 29.50370746 8.28392356 0.00361164 -0.00132670 -0.00155217
N 4.89448550 26.57838877 5.63635963 -0.00282133 -0.00575430 0.00668359
N 2.00510491 24.29739547 8.49169189 -0.00322595 0.00552646 -0.00393987
N 0.79367897 27.64441043 10.17081572 -0.00457548 0.00720321 0.00086325
N 3.59919983 29.81877703 12.99296469 0.00298632 -0.00647404 0.00130110
N 4.90131599 26.55833465 10.41522849 -0.00216252 -0.00275205 0.00114795
N 2.05184620 24.47348896 13.29362533 -0.00062922 -0.00384024 -0.00608887
N 0.26680357 27.93027382 15.29319404 0.00341837 0.00068705 -0.00275939
N 3.33065403 29.59209148 17.73494418 0.00818112 -0.00566658 -0.00442767
N 4.46443839 27.07095633 15.28194404 -0.00023622 -0.00003189 -0.00536652
N 2.22772768 24.46856931 17.91644452 -0.00204508 -0.00107472 -0.00662651
N 0.80805192 27.93971780 19.97633183 0.00354980 -0.00213500 0.00467068
N 3.22577345 29.62369954 22.72725025 -0.00371052 0.00518511 -0.01186973
N 4.87322752 26.81909554 19.76632430 0.00192869 -0.00020817 0.00301969
N 2.05582513 24.29069955 22.38460764 -0.00194836 -0.00296350 -0.00030548
N 6.69037779 4.12999212 1.05374810 0.00015215 0.00256778 0.00048095
N 9.85396239 5.00258156 3.87300716 0.00552297 0.00130891 0.00127818
N 11.90332989 1.82407384 1.13500919 0.00134195 -0.00872941 0.00013412
N 8.63817295 1.27873593 3.68181089 -0.00133003 -0.00327088 -0.00107698
N 6.81741249 4.14946923 5.47037489 0.00006550 0.00006188 -0.00617041
N 10.33307086 4.77878522 8.38754732 -0.00212526 0.00726348 0.00717000
N 11.92495942 1.93901072 5.70653486 -0.00331677 0.00167188 0.00043823
N 8.37025755 1.28467729 8.35367369 -0.00119870 -0.00204169 0.00329215
N 6.72534221 4.10100054 10.54239215 0.00817242 -0.00001959 0.00360871
N 10.05088720 4.79875880 13.33479541 0.00074824 0.00158766 -0.00075714
N 11.92251715 1.98485200 10.28004520 0.00510561 -0.00226002 -0.00024480
N 8.31771181 1.12220717 13.18336981 0.00104865 0.00159684 0.00109155
N 6.66816081 4.11801412 15.23106677 -0.00232901 0.00231586 -0.00450733
N 10.30439782 4.70418817 18.12788724 -0.00238822 -0.00178665 -0.00168765
N 11.84880062 1.98740536 14.96834206 0.00624025 -0.00439420 -0.00570346
N 8.33915746 1.11137771 17.76522702 0.00639305 0.00093192 0.00235022
N 6.68888984 4.07343819 19.69579351 0.00301845 -0.00109255 0.00105198
N 10.04687929 4.87916113 22.60309829 0.00499340 -0.00166241 -0.00199132
N 11.84969570 2.03050916 19.76243176 -0.00294369 0.00102881 -0.00212928
N 8.53718774 1.23724268 22.60121247 -0.00060589 -0.00294043 0.00152251
N 7.36442372 9.55365447 1.10303671 0.00272086 -0.00406393 -0.00027104
N 10.82321105 10.56448486 3.52775598 -0.00851224 0.00284164 -0.00701124
N 12.20836821 7.54956645 1.17338154 0.00057811 -0.00094982 0.01131363
N 8.81805385 7.05719277 3.81756460 0.00024261 -0.00177414 -0.00029227
N 7.13398805 9.70690477 5.90201881 -0.00334118 -0.00389318 0.00120815
N 11.06102129 10.47489922 8.50429414 -0.00109634 0.00392241 -0.00828940
N 12.20093589 7.57475059 5.55348155 0.00272112 0.00113720 -0.00480252
N 9.12981403 6.79346695 8.57578649 -0.00240750 -0.00724505 -0.00786136
N 7.12525197 9.49372253 10.37277678 -0.00658943 -0.00337232 0.00371967
N 11.11016394 10.91734483 13.14847729 0.00294588 -0.00137446 -0.00310773
N 12.34802733 7.58073655 10.56034910 -0.00053272 -0.00445345 -0.00021845
N 8.97305141 6.79138172 13.09636321 -0.00066196 0.00515394 -0.00182352
N 7.37520255 9.37942691 15.28387870 0.00255483 0.00270401 -0.00177416
N 10.98009872 10.69218883 17.85433068 0.00114352 -0.00311532 0.00424635
N 12.16268630 7.54537071 15.19191414 -0.00743402 -0.01071053 0.00556052
N 9.14458599 6.76572240 17.91695978 -0.00045551 0.00508756 0.00230285
N 7.23812096 9.56091043 19.90487603 0.00766841 -0.00385726 0.00013474
N 10.80260110 10.33223795 22.54750774 -0.00250376 0.00448369 -0.00335406
N 12.04580276 7.52633702 19.78014302 -0.00313795 -0.00335984 0.00211935
N 8.82991643 6.81992205 22.54826024 -0.00448718 0.00807299 0.00645159
N 7.92498264 15.11708205 0.70490372 -0.00107313 -0.00473631 0.00108755
N 10.56365722 17.51627757 3.87685153 0.00258265 -0.00163242 -0.00126986
N 11.63001621 14.03926797 1.13659010 -0.00530259 0.00256177 0.00563640
N 9.37826401 12.33164472 3.84199934 -0.00221842 -0.00372990 -0.00400859
N 7.65175958 15.51095771 5.83070405 0.00660888 -0.00103945 0.00093254
N 10.43619149 17.44205012 8.40563387 -0.00055320 -0.00532097 0.00526897
N 11.80628820 14.13280131 5.63973636 0.00233983 -0.00117257 0.00068191
N 9.31951960 11.93188121 8.65863317 -0.00891727 0.00370326 -0.00112007
N 7.58093624 15.41329777 10.57134575 -0.00327614 0.00309982 0.00547642
N 10.34479559 17.58710507 13.06811986 -0.00055137 0.00228232 -0.00141980
N 11.50691352 14.32290654 10.61572145 -0.00063107 0.00477246 -0.00609992
N 9.04575894 12.06490367 13.28525665 0.00200639 -0.00304324 0.00268644
N 7.60471732 15.15183722 15.26184216 -0.00140707 -0.00154112 0.00089781
N 10.27112311 17.50848751 17.91721273 0.00127535 0.00264907 0.00272416
N 11.70628799 13.89576031 15.32571396 0.00441245 -0.00161942 0.00470873
N 9.11309665 12.05339768 17.59963458 -0.00111572 -0.00293940 0.00225132
N 7.91004828 15.05333306 20.11994411 0.00215240 -0.00473183 -0.00261993
N 10.37833826 17.39331025 22.69215818 -0.00108030 -0.00222324 -0.00056919
N 11.85003577 13.96441814 19.92224341 -0.00453857 -0.00200400 -0.00309455
N 9.25836547 12.09882176 22.41812282 0.00486173 0.00212557 -0.00575284
N 7.11749617 21.81317052 1.02380630 0.00247263 -0.00180717 0.00205428
N 9.53092668 23.63983961 3.52621686 0.00415705 -0.00626931 -0.00718278
N 10.98573081 20.72606893 0.69953253 0.00195825 0.00050572 0.00483171
N 8.33935630 18.32446703 3.65584013 -0.00825486 0.00010636 0.00234975
N 6.98598081 21.70283886 5.61746381 -0.00189866 0.00206511 -0.00098498