2000
Time=38000.00000002 pbc="T T T" Lattice="31.05336589 0.00000000 0.00000000 0.00000000 30.14261255 0.00000000 0.00000000 0.00000000 23.72065747" energy=-12042.02564311 virial="-66.01677356 -2.94320827 11.96275389 -2.94320827 -38.90908677 24.84009575 11.96275389 24.84009575 -86.79730022" stress="-0.00090667 -0.00020125 0.00062381 -0.00020125 0.00035367 0.00118050 0.00062381 0.00118050 -0.00105823" Properties=species:S:1:pos:R:3:vel:R:3
C 30.52432862 3.47590571 1.77160821 -0.00114273 -0.00137398 0.00197819
C 2.74440629 0.73576700 2.86929037 -0.00014417 0.00243858 0.00389399
C 30.33337793 3.60639001 6.38349449 0.00467966 -0.00482713 -0.00078934
C 2.42035089 0.67729573 7.77479734 -0.00598031 0.00146595 0.00023580
C 30.36728261 3.65404049 11.06136881 0.00111788 -0.00197740 0.00128301
C 2.31474296 0.61498868 12.47157421 0.00538118 -0.00498994 0.00193682
C 30.27610420 3.72608204 15.95419654 -0.00595089 -0.00427250 -0.00321609
C 2.27341852 0.57494148 17.11322283 -0.00100635 0.00088070 -0.00434099
C 30.15501242 3.59983156 20.83062540 -0.00088771 0.00068876 0.00869190
C 2.62573358 0.98569174 21.79151145 0.00108271 0.00445580 -0.00054509
C 30.93487849 9.30097000 1.91085734 0.00473319 0.00171363 -0.00576198
C 2.94699251 6.23400878 3.06505081 0.00051136 -0.00262078 0.00427394
C 30.88840557 9.30999432 6.61772924 0.00315272 -0.00464700 0.00234799
C 2.79344429 6.05045396 7.72461974 -0.00246575 -0.00019009 -0.00518455
C 30.73535456 9.36531073 11.39208198 0.00667261 -0.00428445 0.00219643
C 3.00780938 6.17156052 12.64568232 0.00445440 0.00008755 0.00581955
C 30.93748658 9.31715013 16.10073171 0.01241958 -0.01401031 0.00305337
C 2.61985633 6.17630126 17.38792700 -0.00619008 -0.00402410 -0.00106595
C 30.82139002 9.35740650 20.76055733 0.00169578 -0.00410819 0.00514651
C 2.93538485 6.38271585 22.25274963 0.00431604 0.00342621 -0.00301542
C 0.51291326 14.77864873 1.65460004 0.00083966 0.00063520 -0.00360073
C 3.49260507 11.89637963 3.14488228 -0.00016281 0.00340675 0.00571364
C 0.32561973 14.93336793 6.41637824 -0.00272955 0.00789664 0.00246606
C 3.35585895 11.88551465 8.05383001 -0.00481943 0.01251723 -0.00506651
C 0.35216779 14.87599432 11.14008861 0.00273187 -0.00388351 -0.00308914
C 3.36951722 11.64912280 12.74296139 0.00724861 -0.00381994 -0.00335347
C 0.22562500 14.81572156 15.89072835 -0.00642855 -0.00252524 0.00381651
C 3.45207119 11.44964712 17.33329219 -0.00609360 -0.00378356 0.00554825
C 0.30905413 14.81962152 20.50176604 0.00514920 -0.00060184 -0.00673134
C 3.58434388 11.94412788 22.07851895 -0.00594828 -0.00042966 0.00451203
C 0.64292247 20.32928251 1.74586843 -0.00237942 0.00376632 -0.00495386
C 3.70174901 17.68864116 3.09946230 -0.00497627 0.00312053 0.00501545
C 0.49635563 20.30180476 6.48006440 0.00335838 0.00641369 -0.00110883
C 3.81922568 17.53810973 7.75796360 -0.00318288 -0.00226765 -0.00101630
C 0.69049051 20.43816755 11.11740064 -0.00349134 0.00060465 -0.00069113
C 3.77478517 17.45768379 12.37081017 -0.00661064 0.00257515 -0.00115123
C 0.76462331 20.55848183 15.91593636 0.00418398 -0.00250865 0.00311133
C 3.63579722 17.56083474 17.36931917 -0.00027620 -0.00001515 0.00062311
C 0.85645352 20.45161151 20.60988082 -0.00582754 0.00431096 0.00806616
C 3.99083685 17.52677541 21.81665743 -0.00190767 0.00029908 -0.00094249
C 30.69252421 27.18539964 1.54351619 0.00108898 -0.00272407 -0.00372646
C 2.76798758 24.12383870 2.92121879 0.00876367 -0.00277023 0.00362350
C 0.18526538 27.19792928 6.44220600 0.00194782 0.00018628 0.00539647
C 3.25683612 24.20271707 7.76645500 0.00086681 0.00192723 -0.00792353
C 0.19503525 27.29186428 11.15144949 0.00179359 0.00136641 -0.00568697
C 3.11338948 24.35278090 12.51513858 0.00594384 -0.00828154 0.00126432
C 31.04405019 27.26068902 15.89572580 0.00701111 0.00033867 -0.00453834
C 3.01951271 23.97361669 17.10614879 0.00667985 0.00331469 0.00104092
C 30.67973183 27.17128972 20.49459172 -0.00302708 0.00935711 0.00040679
C 2.92638995 24.12483808 22.15501580 -0.00203739 0.00478806 -0.00101066
C 5.62844507 3.15656547 1.61170391 0.00382683 -0.00440227 -0.00340095
C 9.15900793 30.14028242 2.88851781 -0.00984706 -0.00481977 -0.00568778
C 6.07620127 3.12766131 6.39775984 -0.00095653 -0.00525192 -0.00227979
C 8.91581319 0.27613063 7.50410168 -0.00216789 -0.00099979 -0.00030740
C 5.86907634 3.44595707 11.16503664 0.00128738 0.00229534 -0.00282833
C 9.20372331 0.15247025 12.34945852 0.00092773 -0.00202636 0.00117556
C 6.22356941 3.28913676 15.84773874 -0.00979058 0.00421815 0.00049337
C 9.11359330 30.10648854 17.14194857 0.00117633 -0.00258814 -0.00148623
C 6.08402772 3.45251204 20.66564467 0.00048422 -0.00192600 -0.00277812
C 9.13335220 0.21442176 21.85360845 -0.00187616 -0.00072866 -0.00150939
C 6.64190370 8.79038636 1.57474308 0.00167241 -0.00283988 -0.00459272
C 9.71243889 5.85712359 3.25599784 0.00142519 0.00461807 0.00245346
C 6.38070057 8.62509391 6.38157612 -0.00047232 0.00343613 -0.00880929
C 9.60646832 5.75330522 7.97625590 -0.00414183 -0.00077319 -0.00408858
C 6.28513866 8.57141212 11.23933642 0.00084822 0.00065950 0.00183518
C 9.69276367 5.67923800 12.56006100 0.00413735 -0.00124289 -0.00041900
C 6.60205739 8.67152474 15.89120283 0.00068475 -0.00443642 -0.00533084
C 9.71420167 5.59838772 17.18378151 0.00828390 0.00137907 0.00682731
C 6.44484212 8.67432412 20.42804826 -0.01204185 0.00218868 0.00154965
C 9.33331881 5.83825848 21.98068119 0.00173756 0.00804068 -0.00171741
C 7.06387921 14.40243983 1.93769054 0.00561724 -0.00192354 0.00122634
C 9.94853137 11.58683920 2.99175215 -0.00189530 -0.00309693 0.00200979
C 6.85963944 14.28449188 6.51822424 -0.00027287 -0.00663919 0.00374020
C 10.10758776 11.08422308 7.98676233 -0.00280058 0.00279376 -0.00694104
C 6.87763100 14.34692362 11.23126665 0.00231293 -0.00194498 0.00417096
C 10.19994945 11.51387057 12.66673761 0.00057032 -0.00300557 0.00259040
C 7.21281809 14.41453420 16.09069722 0.00016139 0.00064650 0.00501811
C 10.11024756 11.33775737 17.31628565 -0.00259909 -0.00457714 -0.00068860
C 7.04464774 14.62958821 20.69800613 -0.00202260 0.00092424 -0.00066455
C 10.00341972 11.15745293 21.84260468 -0.00642858 0.00226542 -0.00351863
C 6.06181770 20.93983485 1.62944405 0.00233961 -0.00437595 0.00579413
C 9.36096996 17.72053591 3.06713182 0.00696632 0.00080445 -0.00952031
C 6.22841378 21.11546293 6.40880003 -0.00211996 -0.00067691 0.00452059
C 9.40953653 18.36948293 7.72701143 -0.00531325 0.00593969 -0.00466599
C 6.26454720 21.16235318 11.07024244 -0.00250013 0.00395421 -0.00285601
C 8.98470752 18.10748911 12.23935188 0.00201349 0.00058306 0.00296751
C 6.27400783 21.04050668 15.82543177 -0.00104722 0.00194533 0.00097141
C 9.34989226 18.07785229 17.20520300 0.00205415 -0.00324722 -0.00798172
C 6.39918341 21.22741262 20.64363500 -0.00419746 -0.00545395 0.00160602
C 9.52397408 18.03132589 22.03842838 0.00076208 0.00627509 -0.00051981
C 5.54828398 27.81036901 1.60244648 0.00224460 -0.00418196 0.00020340
C 8.44466144 24.58494623 3.07183469 0.00394686 -0.00086643 -0.00011949
C 5.42019526 28.09021993 6.33042672 0.00135903 -0.00275915 -0.00419940
C 8.52308151 24.81481465 7.49166709 -0.00341150 -0.00030087 0.00116078
C 5.54961688 27.94959420 11.07944871 -0.00524922 0.00076385 -0.00564598
C 8.54764984 24.96214407 12.37283389 -0.00596196 -0.00390649 -0.00211268
C 5.50678327 27.75367786 15.88617132 0.00149535 -0.00931308 0.00329354
C 8.59202468 24.65323193 17.11434731 -0.00041057 -0.00536633 -0.00020021
C 5.62925341 27.59144522 20.64028474 -0.00178135 0.00571832 0.00326781
C 8.57647713 24.78320812 21.88602520 0.00047583 0.01187483 0.00085122
C 12.69050981 2.86183814 1.89949400 0.00802113 -0.00181027 -0.00280523
C 15.77445585 29.89491582 2.99008293 0.00206437 0.00151618 -0.00280846
C 12.55174957 2.81430109 6.55719620 -0.00008303 0.00130273 -0.00189607
C 15.63167009 29.72137634 7.81694582 0.00188158 0.00757594 -0.00333502
C 12.50827484 2.56606111 11.31057528 -0.00345107 -0.00088627 0.00237707
C 15.62810016 29.75723331 12.60217945 -0.00246882 -0.00056540 -0.00086142
C 12.57750138 2.66068992 16.02798376 -0.00443707 0.00324304 0.00495919
C 15.66802905 29.96513270 17.34689467 0.00099641 -0.00596670 -0.00477770
C 12.56765465 2.83188266 20.82372063 -0.00038108 -0.00170687 0.00027288
C 15.79945897 0.13980539 22.24084723 -0.00287982 0.00468579 0.00201522
C 12.86320024 8.32932839 1.89247103 -0.00437354 0.00173867 -0.00326107
C 16.28145180 5.38697179 2.95587000 -0.00041019 0.00213734 -0.00167460
C 12.97634722 8.50634082 6.59912509 -0.00065629 -0.00131351 0.00240372
C 16.21482336 5.35028280 7.78737944 -0.00351393 0.00231858 -0.00064535
C 13.29154760 8.31837774 11.34087883 -0.00168846 0.00522400 -0.00567378
C 16.12681278 5.36134517 12.53504682 0.00432598 -0.00065182 0.00744423
C 13.15997577 8.31127353 16.00475024 -0.00051903 -0.00373898 0.00152291
C 16.38220991 5.65934535 17.23470266 0.00221747 -0.00125507 0.00294711
C 13.22963700 8.44360217 20.79132177 -0.00128714 -0.00247565 -0.00000501
C 16.11070683 5.85698221 21.89797524 -0.00563258 0.00209309 0.00004644
C 12.25367738 14.90914813 1.75683999 -0.00169264 -0.00398544 0.00011228
C 15.60336202 12.21622978 3.35073874 -0.00314901 0.00217551 0.00274426
C 12.48175623 14.99228459 6.51621282 -0.00051987 -0.00125612 -0.00003006
C 15.81161353 12.32369985 8.00858133 -0.00379927 -0.00188383 -0.00056373
C 12.33858765 15.10536372 11.39037460 -0.00429007 0.00213291 -0.00093986
C 15.58378764 12.13817840 12.66256464 0.00356625 -0.00487797 0.00026534
C 12.64582970 14.96464142 16.00699502 0.00142880 -0.00020648 -0.00006329
C 15.64966162 11.95043010 17.38305749 -0.00358608 -0.00297457 -0.00960427
C 12.53843216 15.18915313 20.52094880 -0.00055001 0.00427264 0.00455211
C 15.49490496 12.12867892 22.20208127 -0.00154543 -0.00064757 -0.00257380
C 11.68601496 21.77833406 1.85260703 -0.00494345 0.00265181 -0.00258356
C 15.00367443 18.83640130 3.05363338 0.00867156 0.00162416 0.00032062
C 11.78206739 21.78820007 6.43021421 -0.00385386 -0.00120840 0.00045081
C 14.98272473 18.75243604 7.78328675 0.00208225 -0.00107567 -0.00015913
C 11.69560981 21.78778447 11.14514169 -0.00134232 0.00783855 -0.00234024
C 14.66719129 18.76907798 12.49575261 0.00087084 -0.00355208 0.00357107
C 11.30440578 21.60511076 15.86890016 -0.00289211 0.00394287 -0.00069349
C 14.51452897 18.74925068 17.18455606 0.00651878 0.00597535 0.00124924
C 11.53079447 21.75475060 20.64064038 -0.00370748 0.00039919 0.00216120
C 14.86208512 18.50471806 22.02114232 0.00285410 0.00255988 -0.00095959
C 12.16887033 27.02755196 1.58506728 0.00208050 -0.00392607 0.00091654
C 15.38676615 24.08672726 2.89247996 -0.00578247 -0.00038626 -0.00195798
C 12.18563611 26.99657635 6.38134725 0.00076324 -0.00468840 -0.00593949
C 15.46974555 24.22358881 7.60372785 0.00671690 -0.00388343 -0.00246366
C 12.12039616 27.31030643 10.97733933 0.00346507 -0.00389897 -0.00024189
C 15.05625052 24.16553937 12.52161178 0.00147530 -0.00506204 -0.00479160
C 11.94629891 27.23195931 15.86649765 -0.00804887 -0.00074487 0.00139237
C 15.22784655 24.22696622 17.15638681 0.00349461 0.00686919 0.00296283
C 12.07243998 27.07243645 20.48493472 0.00025073 0.00417030 -0.00224618
C 15.28458383 24.14696410 21.86275153 -0.00473899 0.00542167 0.00076109
C 19.50737079 2.76384920 1.60333005 -0.00309980 0.00404028 0.00066412
C 22.13541419 29.78370871 2.92544078 0.00652259 0.00056132 0.00152570
C 19.32150048 2.65666510 6.53940661 -0.00778445 -0.00061127 -0.00170574
C 22.21446786 29.60437950 7.76720751 -0.00165379 -0.00472950 -0.00185834
C 18.94223544 2.04975194 11.33321826 -0.00031430 0.00198542 -0.00295001
C 22.36277560 29.58643345 12.50374720 0.00088099 0.00258058 -0.00201420
C 19.01043838 2.28996171 15.97484223 0.00092464 -0.00079164 0.00604548
C 22.49494166 29.47104436 17.14947290 0.00271975 0.00102454 0.00099240
C 19.36762791 2.42003165 20.59885741 0.00180212 -0.00314175 -0.00075647
C 22.23510926 29.67076932 21.92399343 -0.00178219 -0.00338052 -0.00701779
C 18.90070781 9.27092431 1.63864113 0.00224648 0.00192019 -0.00395688
C 21.42368198 6.07935110 2.94828481 -0.00406703 -0.00019621 -0.00297872
C 18.68067968 8.94392625 6.50630138 0.00984913 0.00568895 -0.00280358
C 21.35746104 5.82999263 7.93824900 -0.00031498 -0.00142810 -0.00345844
C 18.71631742 9.10750447 11.20886460 -0.00558134 -0.00053155 -0.00098981
C 21.71093179 5.92932486 12.58171316 -0.00447222 -0.00961468 -0.00400578
C 18.89008057 9.03276859 15.93840927 -0.00070799 -0.00103520 0.00699697
C 21.64723973 6.12030553 17.26445907 0.00132618 0.00323825 -0.00292478
C 18.71089527 9.26872526 20.84306665 0.00129354 0.00897597 -0.00740927
C 21.83537663 6.13462868 21.93387847 0.00103666 0.00203000 0.00158361
C 17.90033013 15.71403259 1.75417075 0.00289247 -0.00760208 0.00229969
C 21.33514968 12.84245721 3.06500511 0.00378819 0.00514006 0.00391286
C 18.07601844 15.75207697 6.56987318 -0.00273311 -0.00325341 -0.00015406
C 21.16665941 12.79649285 7.83498248 0.00116224 -0.00796372 -0.00201408
C 17.96072815 15.82829372 11.32884256 -0.00381656 0.00690915 0.00217390
C 21.13242416 12.76614272 12.40996717 0.00071115 0.00691294 0.00793075
C 17.96450448 15.68613578 16.07871976 -0.00412998 0.00034389 0.00142964
C 21.22918450 12.70156051 17.04871326 -0.00322134 0.00187493 -0.00172964
C 17.97156271 15.82087499 20.79602103 0.00142858 -0.00108167 -0.00282399
C 21.27010360 12.87560428 21.92597320 -0.00207446 0.00815905 -0.00091640
C 18.70633808 21.24980078 1.64873746 -0.00090421 -0.00806723 0.00271640
C 21.38946772 18.30629771 2.92105229 -0.00060799 0.00191632 0.00014812
C 18.55953746 21.29726093 6.47090432 0.00320404 -0.00423823 0.00413086
C 21.37043842 18.24867959 7.71361765 0.00623995 0.00069035 0.00015957
C 18.49082985 21.46844788 11.12196052 0.00293458 0.00415847 -0.00469607
C 21.47160867 18.42419079 12.56416082 0.00465644 0.00336759 0.00197720
C 18.27574385 21.25300438 15.81070943 0.00598744 -0.00479290 -0.00276928
C 21.50749911 18.10707519 17.25786140 0.00493166 0.00087533 -0.00497416
C 18.51230634 21.08374706 20.69953782 -0.00050054 -0.00022719 -0.00417991
C 21.42002912 18.17201227 21.85109116 -0.00465943 -0.00455125 0.00148013
C 18.91862786 26.99548045 1.70307076 -0.00568670 0.01057102 0.00831324
C 21.82174751 23.80054400 3.07433575 -0.00237993 -0.00464532 -0.00549651
C 18.86279716 26.97795740 6.45263277 0.00104143 -0.00113282 0.00323525
C 21.98796279 24.14294796 7.71186829 -0.00088432 0.00568843 -0.00919702
C 18.60606692 26.73361018 11.20457742 0.01038046 -0.00582745 0.00180123
C 21.95330223 23.98047284 12.57838541 0.00686869 0.00167889 0.00002426
C 18.96915708 26.88541755 15.93684781 -0.00030961 -0.00605034 -0.00263663
C 22.01706572 23.81176525 17.39649477 0.00418891 0.00477806 -0.00621524
C 18.73311528 27.01967082 20.71780801 -0.00030491 -0.00009577 -0.00083999
C 21.95536923 24.09183310 21.99206400 0.00213188 -0.00524352 0.00010533
C 24.81665813 2.96967219 1.75802723 -0.00511618 -0.00601802 -0.00177721
C 28.20314056 0.14153190 2.98247714 -0.00116523 0.00468802 0.00491741
C 24.83132319 3.04152303 6.51899565 0.00106988 -0.00041796 0.00034715
C 27.94620157 30.10467293 7.77731810 0.00244234 -0.00562265 -0.00188225
C 24.66259866 3.00954056 11.13529066 0.00071718 0.00359521 0.00167456
C 28.00762706 0.00350136 12.51238370 0.00267001 -0.00149845 -0.00488216
C 24.76895536 3.08133644 15.72632560 -0.00201984 -0.00201269 -0.00076797
C 27.82244846 29.84410517 17.24702793 -0.00598070 0.00332913 -0.00089664
C 24.81274822 2.79984679 20.60519540 0.00178664 -0.00355784 0.00000673
C 27.83823556 29.83209490 22.00888190 -0.00218409 -0.00100477 0.00557387
C 24.32596933 9.84500920 1.72310010 0.00220232 -0.00103846 -0.00145118
C 27.26121790 6.47349623 2.99152066 -0.00177770 -0.00302917 0.00337883
C 24.02353112 9.54816778 6.56346591 -0.00140518 -0.00446496 0.00271140
C 27.24181721 6.53100878 7.62443848 0.00256826 0.00897528 -0.00365909
C 24.11609174 9.38558836 11.19864053 0.00167078 0.00207868 0.00425283
C 27.39256134 6.54885315 12.38329808 -0.00509892 0.00138510 0.00440938
C 24.24303543 9.80211875 15.80597618 -0.00037752 0.00558673 -0.00010732
C 27.30551916 6.76987497 17.29344217 0.00218650 0.00213126 0.00487995
C 24.19156852 9.64669447 20.67717362 -0.00055571 -0.00439023 0.00496138
C 27.26478438 6.76747053 21.86679453 -0.00048536 -0.00297052 -0.00080538
C 24.89262732 15.40365207 1.74327987 -0.00728056 0.00712216 0.00002621
C 27.76859774 12.26097614 3.23414297 0.00886911 0.00154357 -0.00181396
C 24.76626000 15.31919209 6.63896610 -0.00371450 0.00003766 -0.00418041
C 27.69129640 12.30942967 7.91745708 0.00066975 0.00207173 -0.00333286
C 24.84288756 15.41082070 11.28847881 -0.00353656 -0.00684704 -0.00139436
C 27.81847659 12.14029734 12.64782962 -0.00026447 -0.00276708 -0.00489792
C 24.54807003 15.30745009 15.85786400 -0.00119775 -0.00531678 -0.00058353
C 27.51067720 12.17041157 17.50847717 0.00363230 0.00008695 -0.00205963
C 24.59650982 15.45812087 20.56426220 0.00251630 0.00918846 -0.00116266
C 27.91934804 12.39817295 22.25195926 0.00101834 0.00115112 -0.00334172
C 24.81806226 20.95752269 1.77137234 -0.00069300 -0.00191041 -0.00767403
C 28.30048850 17.99419272 3.07223442 0.00212970 0.00374556 -0.00855470
C 24.88235464 20.62622360 6.51871499 0.00692954 0.00853168 0.00402696
C 28.21280304 17.60078894 7.96953775 0.00962074 -0.00623984 0.00335513
C 24.77884202 21.14956816 11.22891916 0.00728011 0.00057271 -0.00960489
C 28.03712041 17.84697502 12.68869476 -0.00347180 -0.00070661 -0.00027520
C 25.05295368 21.11166935 16.03851728 -0.00782665 -0.00178674 0.00245379
C 28.03581217 17.89505980 17.31802236 0.00229282 -0.00162410 -0.00038603
C 25.10832678 20.87454047 20.78734248 -0.00621365 -0.00606132 -0.00098398
C 28.25361888 17.77689152 22.10175080 0.00152159 0.00331035 -0.00014308
C 25.47181177 26.48570166 1.73296482 -0.00032941 -0.00120973 0.00347454
C 28.53382858 23.70527919 2.99263239 -0.00095568 -0.00371227 0.00439574
C 25.57884698 26.36904766 6.37562945 0.00472193 -0.00184706 -0.00353339
C 28.66614070 23.56864792 7.70353913 -0.00040141 -0.00881339 -0.00329813
C 25.44813156 26.67449526 11.29291050 0.00398020 -0.00282781 0.00050392
C 28.67692480 23.41931992 12.39374146 0.00075157 0.00225016 -0.00146380
C 25.47635199 26.48823274 16.07528439 -0.00076865 0.00019907 0.00053281
C 28.58381593 23.43441194 17.25933281 0.00238503 -0.00243745 -0.00212528
C 25.31472437 26.47905638 20.65892612 0.00106549 -0.00188163 -0.00143180
C 28.45680384 23.53343919 21.96558498 -0.00479251 -0.00508130 0.00563537
N 0.13785405 4.33362871 0.99610401 -0.00846947 -0.00303004 -0.00216732
N 3.43699201 5.33106585 3.91993430 0.00573399 -0.00044387 0.00085389
N 5.09026344 2.15010013 0.93458325 0.00118733 0.00372352 -0.00062379
N 1.96508247 1.68821779 3.47885024 0.00125606 -0.00476433 -0.00123629
N 0.06937266 4.47293066 5.74415637 0.00111430 0.00134531 -0.00182540
N 3.61848218 5.31889620 8.47573258 -0.00388161 0.00093320 -0.00811296
N 5.39809669 2.31322225 5.54206294 -0.00208865 0.00300139 -0.00032181
N 1.60962449 1.49855752 8.45024979 0.00181183 -0.00267974 0.00023097
N 0.05747172 4.70604878 10.51520652 -0.00053170 -0.00468975 0.00627339
N 3.47607614 5.23884978 13.48043104 0.00120594 -0.00075591 0.00641816
N 5.31834961 2.39169527 10.52972102 0.00325229 0.00141129 0.00305463
N 1.70140078 1.46534546 13.32707812 0.00486161 0.00404978 0.00114773
N 30.99876744 4.55403562 15.17838103 -0.00797043 0.00335535 0.00184768
N 3.15464274 5.11672842 17.97352186 0.00298328 0.00127267 0.00061346
N 5.44303244 2.47675045 15.09643500 -0.00079740 -0.00119451 -0.00093956
N 1.57134009 1.50407680 17.84816098 -0.00041338 -0.00300355 -0.00206388
N 30.84296899 4.65117699 20.24612048 -0.00204854 -0.00241836 -0.00614907
N 3.39916801 5.31975670 22.93619020 0.00004781 0.00196331 0.00425036
N 5.32277033 2.47820358 20.05208829 0.00255778 -0.00479782 0.00004028
N 1.68433657 1.54368950 22.58896755 -0.00531598 -0.00040658 -0.00235182
N 0.77165462 10.12809738 1.22745864 0.00536081 0.00602922 -0.00579359
N 3.97538823 10.82077756 3.80430024 0.00048353 -0.00051196 -0.00574186
N 5.71886365 8.13103713 0.89404506 -0.00165438 0.00293538 0.00319556
N 2.15594832 7.22388603 3.63670835 -0.00249623 -0.00136457 -0.00616870
N 0.61077127 10.09414458 5.91159994 -0.00527282 -0.00101248 -0.00265185
N 4.14476196 10.99498251 8.73269831 -0.00081589 -0.00613443 -0.00717987
N 5.79535305 7.77889597 5.50072670 -0.00086033 0.00188822 0.00352235
N 2.12524298 7.07026883 8.37563281 -0.00097474 -0.00528882 -0.00317546
N 0.45171714 10.08162987 10.54496197 0.00402409 0.00402995 0.00082179
N 4.16156868 10.72076432 13.34616568 -0.00031659 -0.00421779 -0.00040176
N 5.53892836 7.82522665 10.42161071 -0.00296144 -0.00024264 -0.00322485
N 2.30781576 7.10418368 13.27190236 0.00505782 -0.00327257 0.00463750
N 0.68329157 10.10498460 15.31831372 -0.00196450 -0.00280525 -0.00819603
N 4.11843754 10.62735423 18.10097023 -0.00415970 -0.00112267 0.00689092
N 5.71078433 7.94629016 15.14043409 0.00080413 -0.00214187 -0.00126654
N 2.12143038 7.15664128 18.23787570 -0.00071702 0.00593254 -0.00790419
N 0.61129255 10.27531561 20.20162107 -0.00141655 -0.00561922 0.00174724
N 3.92817712 10.89644306 22.90979804 -0.00146150 0.00226346 -0.00208011
N 5.69485321 7.79828335 19.82693290 -0.00370806 -0.00284352 -0.00233366
N 2.19502460 7.28492639 22.97782553 -0.00044806 -0.00545743 -0.00102854
N 1.04701278 15.75756080 0.79126708 0.00817207 -0.00823033 -0.00252125
N 4.64930325 17.12726897 3.94292235 0.00309919 -0.00271372 -0.00025710
N 6.24452285 13.47086030 1.28060921 0.00207273 0.00237504 0.00262847
N 2.86083536 12.83266134 3.91187418 -0.00466783 0.00246541 -0.00759127
N 1.18371302 15.66457868 5.66503935 -0.00241300 0.00276809 -0.00540732
N 4.72730700 16.77213778 8.44085414 0.00038343 0.00181065 -0.00328300
N 6.15908901 13.42935861 5.75670467 -0.00284814 -0.00825025 0.00049633
N 2.63172992 12.77969022 8.77301785 0.00475566 0.00091756 0.00111714
N 1.03749837 15.73754399 10.38655784 0.00269772 0.00289235 0.00396812
N 4.60377416 16.61130088 13.06534519 -0.00348029 0.00152985 -0.00002833
N 6.09474573 13.51627564 10.55301388 0.00593530 0.00096103 0.00289525
N 3.05191952 12.72793724 13.60658224 0.00190420 -0.00341678 -0.00406909
N 1.01491456 15.61635173 15.12458719 -0.00198183 -0.00134133 -0.00409281
N 4.42103293 16.60666633 17.90640120 -0.00187579 0.00660602 -0.00560037
N 6.40122992 13.62016436 15.33753376 0.00139140 -0.00113280 -0.00155122
N 2.92949924 12.58441844 18.01626680 -0.00173299 -0.00645346 -0.00103590
N 1.20724707 15.47944343 19.76035631 0.00140491 0.00283662 0.00328810
N 4.60308893 16.54962312 22.51772067 -0.00004817 -0.00639110 -0.00068075
N 6.23169042 13.67058839 20.04568963 -0.00240166 -0.00438481 0.00095102
N 3.09037485 13.05504521 22.67447535 -0.00187621 0.00474931 0.00715055
N 1.31992537 21.30272667 1.11843238 0.00154407 -0.00091626 -0.00524508
N 3.89597017 23.67102487 3.54975664 -0.00396100 0.00588572 -0.00218227
N 5.31278276 20.23647555 0.77496146 0.00453848 0.00616372 -0.00184519
N 2.60418097 18.33639968 3.65079379 -0.00157888 -0.00083669 -0.00154317
N 1.40260840 21.04099666 5.87307457 0.00167863 -0.00237565 -0.00854259
N 4.20205184 23.60935892 8.56854452 -0.00043587 -0.00264641 -0.00053254
N 5.31030333 20.42012477 5.57378764 0.00251849 -0.00160332 -0.00017030
N 3.04530899 18.39641568 8.50683258 0.00044560 0.00135129 -0.00624785
N 1.57894785 21.24294720 10.52329252 -0.00182340 -0.00082396 0.00114919
N 4.11152323 23.74478770 13.22956319 0.00407842 -0.00290088 0.00084837
N 5.69903766 20.12084999 10.50890679 0.00514526 -0.00384931 -0.00467524
N 2.99056042 18.22004073 13.16000748 -0.00054375 0.00658342 0.00019012
N 1.31028591 21.38252288 15.02497317 0.00105982 -0.00285069 -0.00001092
N 4.10652623 23.42724870 17.75579762 0.00004834 0.00158405 0.00043961
N 5.36396800 20.12898400 15.18124044 0.00397043 -0.00250749 0.00019068
N 3.07759898 18.47134018 18.19039115 0.00562925 -0.00555959 0.00228643
N 1.68573072 21.35661178 20.05115943 -0.00550530 0.00117793 0.00232132
N 3.95531487 23.49474144 22.86235140 0.00045431 0.00338582 -0.00612496
N 5.51241937 20.30213681 20.16068846 0.00183552 0.00323565 0.00231141
N 3.04212540 18.40099684 22.39678242 0.00465233 0.00310182 -0.00239773
N 0.49297871 28.16855016 0.93854256 -0.00089931 -0.00247084 -0.00025737
N 3.27234825 29.91645747 3.72199150 0.00103325 0.00170673 0.00364507
N 4.66873264 27.05148147 0.91453557 -0.00467519 -0.00167006 0.00621132
N 1.92374423 24.88909186 3.72381203 -0.00157736 0.00040315 -0.00870599
N 1.13831915 27.94536246 5.82745417 -0.00160647 0.00526394 0.00241463
N 3.35075122 0.10212006 8.62652634 -0.00643825 0.00270428 -0.00077282
N 4.89522987 27.09335108 5.60535411 -0.00095031 0.00039127 -0.00092156
N 2.13985522 24.75831071 8.37370647 -0.00199565 0.00216964 0.00628481
N 0.87530931 28.19252745 10.36848763 -0.00061743 -0.00264292 -0.01002772
N 3.07882575 29.72449195 13.08948037 -0.00010599 0.00065984 0.00466292
N 4.84926494 27.20993487 10.21925441 0.00022734 0.00438899 0.00545083
N 2.01598306 24.65446827 13.26313411 -0.00002088 0.00122006 -0.00391610
N 0.87568730 27.86026624 15.10134354 0.00212897 0.00546774 -0.00077694
N 3.23938825 30.08664864 17.91083203 0.00706540 0.00117344 0.00711237
N 4.75862063 26.86345153 15.07327299 0.00410356 0.00447633 0.00001103
N 2.22282001 24.74876890 17.94816263 0.00122503 -0.00409181 -0.00395129
N 0.53077036 28.01348789 19.92591052 -0.00170146 -0.00079145 -0.00534221
N 3.56386089 0.22371528 22.50142494 0.00008733 -0.00151149 0.00118082
N 4.83460165 26.73213127 19.96164983 -0.00242984 0.00241088 0.00201005
N 1.88307372 24.61892511 22.77663234 -0.00234011 0.00083186 0.00307880
N 6.47066821 4.02791689 1.02315001 -0.00283035 0.00311221 -0.00533174
N 10.25739019 4.89354705 4.02897791 -0.00018317 0.00274611 0.00798657
N 12.12947156 1.77998421 1.20642957 0.00351461 -0.00122210 -0.00112314
N 8.57630099 1.10995623 3.35435286 0.00216759 0.00107118 0.00417236
N 6.76916871 4.16145601 5.84014707 -0.00377560 0.01129972 -0.00102872
N 10.18525945 4.80434708 8.74575067 0.00427251 -0.00192211 0.00556134
N 11.59544551 2.10991591 5.89489517 -0.00461903 0.00051035 0.00073025
N 8.40801809 1.14955352 8.41921473 0.00028873 -0.00327855 -0.00408035
N 6.81763840 4.19347858 10.47475459 0.00052281 -0.00020408 -0.00663676
N 10.37897866 4.66777511 13.20760212 0.00040051 -0.00289286 -0.00268729
N 11.62095547 1.87162481 10.54768660 -0.00436294 -0.00140456 0.00152650
N 8.61841763 1.17799367 13.06345744 0.00110668 -0.00253182 -0.00665945
N 6.98337222 4.20321612 15.22460264 0.00525764 -0.00074383 0.00356078
N 10.26086785 4.74466536 18.05852414 -0.00553731 -0.00096728 -0.00843443
N 11.74576438 1.79436464 15.38433161 -0.00501230 -0.00068367 0.00046759
N 8.41262846 0.95387135 17.74887981 -0.00110863 0.00134177 0.00438363
N 7.03686372 3.90318989 19.77769675 -0.00328015 -0.00050616 -0.00015946
N 10.11126226 4.87245812 22.68484926 0.00461559 -0.00321372 0.00436700
N 12.03801338 2.00415163 19.93182842 -0.00065381 -0.00215194 -0.00191139
N 8.73483254 1.18759186 22.65543721 -0.00369912 -0.00048633 0.00203933
N 7.37424638 9.69610237 0.83994962 -0.00161753 -0.00343823 -0.00360719
N 10.66314364 10.63696755 3.67169151 -0.00114108 -0.00626886 -0.00641502
N 12.17484143 7.54940818 1.03070252 -0.00353370 0.00089105 0.00349524
N 8.92294104 6.82237376 3.83841257 -0.00095142 -0.00082389 -0.00021598
N 7.09130511 9.63054460 5.82107399 0.00172475 0.00120777 0.00176881
N 11.03297883 10.52164375 8.77217261 0.00081278 0.01038303 0.00131750
N 12.07183485 7.61758580 6.00385528 -0.00266305 -0.00195470 0.00339092
N 9.03347432 6.77815426 8.70970999 0.00298673 0.00221208 -0.00114964
N 7.09913999 9.46550032 10.65964402 0.00207052 0.00341224 -0.00189155
N 11.07379535 10.75580428 13.47356536 0.00135516 0.00134284 0.00384489
N 12.40217305 7.55911288 10.64261195 0.00134901 -0.00361651 -0.00078708
N 9.22686503 6.70567994 13.30409797 0.00391744 0.00051356 -0.00100095
N 7.50109611 9.51083338 15.24848432 -0.00604706 0.00008573 -0.00114840
N 10.82452889 10.29348504 17.84102178 -0.00537660 -0.00617916 0.00571943
N 12.38919189 7.42980687 15.33990312 0.00631165 0.00161732 -0.00069372
N 9.05170268 6.68169736 17.70171144 -0.00137089 0.00390607 0.00723019
N 7.34041343 9.32686636 19.65911186 -0.00261481 0.00186266 0.00007603
N 10.84040919 10.63380074 22.74766288 -0.00326820 -0.00045052 -0.00143106
N 12.36301446 7.56175472 20.19944327 0.00085489 -0.00203018 0.00715325
N 8.78048355 6.81724820 22.74493565 0.00147331 -0.00230329 0.00368996
N 7.79600146 15.18321078 1.10289728 0.00601179 0.00036360 0.00782551
N 10.37602862 17.07730227 3.70198213 -0.01057089 0.00065033 -0.00473491
N 11.55190252 14.21679253 0.86894599 0.00104932 0.00072551 0.00022474
N 9.10495385 12.37955981 3.81954646 -0.00154926 0.00223040 0.00139284
N 7.67250841 15.16271868 5.86909028 -0.00011700 -0.00459404 0.00026595
N 10.24315345 17.61461108 8.46656895 -0.00097911 -0.00170341 -0.00218122
N 11.61614258 14.26830301 5.78169959 0.00342419 0.00324012 -0.00301914
N 9.19799810 11.97051689 8.53541690 -0.00543742 -0.00018860 0.00099407
N 7.81859877 15.00189418 10.51066927 -0.00586788 -0.00406859 -0.00096859
N 10.01382443 17.43066000 12.84453239 0.00083433 0.00158512 -0.00222082
N 11.52755460 14.34103083 10.61996961 0.00512637 0.00054711 0.00021749
N 9.24255080 12.19159940 13.34511695 0.00090972 -0.00726019 0.00246051
N 7.83426408 15.46254877 15.44298698 0.00032905 0.00396647 0.00107854
N 10.34463700 17.65978358 17.97512483 0.00368997 -0.00187610 -0.00214454
N 11.90676207 14.08862131 15.29194300 -0.00196798 -0.00283544 0.00156806
N 9.04413349 11.84537716 18.06790398 -0.00112676 -0.00420331 -0.00100343
N 7.83238733 15.34999405 19.89719179 0.00495646 0.00389693 0.00056456
N 10.57128738 17.47216028 22.71690913 0.00083056 -0.00570581 -0.00442119
N 11.71480596 14.29871925 19.87411964 0.00148455 0.00185127 0.00059329
N 9.11691272 12.15214440 22.18113026 -0.00058308 -0.00309675 0.00780202
N 6.92238357 21.74260837 0.95794304 0.00001113 0.00029414 0.00389472
N 9.23535887 23.79767733 3.88421399 -0.00280867 0.00237922 0.00510736
N 11.06417243 20.75812977 1.19219001 -0.00043323 -0.00839112 0.00018528
N 8.61072846 18.56339254 3.91116275 0.00766020 0.00293905 -0.00683347