2000
Time=39000.00000002 pbc="T T T" Lattice="31.21741502 0.00000000 0.00000000 0.00000000 30.04827390 0.00000000 0.00000000 0.00000000 23.71654877" energy=-12041.75929046 virial="-53.11465894 -20.27900582 0.60733072 -20.27900582 -47.36451329 -22.07033597 0.60733072 -22.07033597 -55.74493189" stress="-0.00019033 -0.00091193 0.00000465 -0.00091193 -0.00001026 -0.00097469 0.00000465 -0.00097469 0.00029398" Properties=species:S:1:pos:R:3:vel:R:3
C 30.28183523 3.62772888 1.69702933 -0.00222389 -0.00947324 -0.00755194
C 2.25738265 0.45467241 2.91638847 -0.00649401 -0.00765039 -0.00247572
C 30.63564897 3.60804053 6.39482390 -0.00021788 0.00030155 0.00864496
C 2.47006242 0.49249616 7.80648705 -0.00108343 -0.00001859 -0.00146902
C 30.84486094 3.50964644 10.95245371 0.00513089 -0.00528061 -0.00178778
C 2.57715432 0.46259457 12.46735431 -0.00311029 -0.00734239 -0.00467169
C 30.75981017 3.68042788 15.81917685 -0.00015022 0.00128800 0.00321255
C 2.81781815 0.56709351 17.27801166 -0.00600736 0.00770617 -0.00642420
C 30.35940982 3.50604079 20.63297222 0.00171931 -0.00052867 -0.00532680
C 2.39252092 0.35807489 21.86308333 -0.00273709 0.00275271 -0.00275496
C 31.07889213 9.27081722 1.82414234 -0.00209283 -0.00182366 -0.00210401
C 2.84958434 6.17807385 2.96196568 0.00158406 0.00126244 -0.00224761
C 30.86814414 9.19987274 6.47278256 -0.00237904 -0.00148594 -0.00203327
C 3.20831848 6.27830081 7.47388378 -0.00690099 -0.00206992 -0.00353756
C 31.02592890 9.16034616 11.02980468 -0.00035778 0.00432532 0.00633155
C 2.87622061 6.23885143 12.16315586 0.00041247 0.00592319 -0.00397412
C 0.13328470 8.91907376 15.80841817 -0.00413577 0.01628145 -0.00384477
C 2.93372675 6.30442741 17.34787896 -0.00368340 0.00694274 0.00569005
C 31.13933333 9.03375589 20.40314594 -0.00153413 -0.00103844 -0.00132179
C 2.77745966 5.99574991 22.15635355 0.00543311 -0.00016749 -0.00105590
C 0.37128576 14.84366587 1.70057728 0.01005762 0.00403042 0.00869566
C 3.62511415 11.71969031 3.05133814 -0.00157912 0.00049576 -0.00265456
C 0.54369488 14.61729471 6.40581369 0.00021735 0.00751336 -0.00241510
C 3.66097557 11.90125020 7.88701104 -0.00368846 0.00055237 -0.00136637
C 0.31955100 14.67712956 11.18497834 0.00165736 0.00320843 -0.00392864
C 3.43063735 11.83411703 12.55812317 0.00126670 -0.00194511 -0.00427036
C 0.38237623 14.65983075 15.89698909 -0.00156088 0.00417143 -0.00483878
C 3.34671051 11.65714381 17.30995552 -0.00347323 0.00498808 -0.00305367
C 0.40905396 14.69458852 20.65703324 0.00687532 -0.00209201 0.00505377
C 3.17889439 11.64139109 22.09074191 -0.00582150 -0.00026652 0.00100155
C 0.47130695 20.36739122 1.81268771 0.00656835 -0.00050394 0.00518438
C 3.68974267 17.72302590 3.14818528 -0.00225258 -0.00065404 -0.00248170
C 0.72720364 20.19652512 6.58146794 -0.00094960 -0.00824236 -0.00130662
C 3.79881577 17.28297291 7.80665459 0.00124522 -0.00132745 0.00315729
C 0.88933432 20.40497132 11.21305767 -0.00550999 -0.00216758 0.00234628
C 3.44369431 17.32434867 12.52172860 0.00202420 -0.00380006 0.00382215
C 0.79249861 20.53558376 15.93428444 -0.00356724 -0.00341610 0.00460969
C 3.70502444 17.50609723 17.33004281 0.00122102 -0.00788299 -0.00242833
C 0.52927372 20.63499242 20.78513577 0.00000237 0.00196927 -0.00168711
C 3.80663982 17.59456864 22.14327250 -0.00117046 -0.00125834 0.00372107
C 0.00171474 26.97267546 1.63895947 0.01674142 -0.00258735 -0.00258475
C 3.05999086 24.08574180 3.00695278 -0.01191877 -0.00135976 -0.00555763
C 0.05792899 27.06689927 6.46587173 -0.00274266 -0.00173122 0.00323123
C 3.23549039 24.19067620 7.69654725 -0.00146419 -0.00146501 -0.00359713
C 31.16657152 27.16736826 11.19494493 -0.00236092 0.00103532 0.00188668
C 3.01800990 24.16326409 12.65700930 -0.00359104 0.00325107 0.00104655
C 0.06039522 27.40086641 15.93248342 -0.00583977 0.00343162 0.00170533
C 3.31390354 24.10671231 17.05221667 -0.00111750 0.00250967 0.00631176
C 31.16135578 26.75706865 20.61660161 -0.01091067 0.00653926 -0.00038908
C 3.20134098 23.81058695 21.91521749 0.00393770 -0.00491847 -0.00169572
C 5.91457941 3.17911613 1.51163640 -0.00766264 0.00213557 -0.00428321
C 8.98854349 0.26550709 2.96324035 -0.00126470 -0.00503859 -0.00815279
C 6.06331209 3.15614370 6.48973219 0.00160123 0.00260513 -0.00369790
C 8.96954845 0.26718356 7.67785131 -0.00310283 -0.00091460 0.00068195
C 5.76443398 3.18520055 11.12319458 -0.00571831 0.00476653 0.00027061
C 9.10926252 0.10558968 12.48460892 -0.00989618 -0.00055640 -0.00178393
C 6.01322885 3.16601868 15.80013609 0.00517937 -0.00073148 0.00240286
C 9.38352193 0.30352239 17.25955101 0.00326177 0.00448157 0.00059378
C 6.21337222 3.13234524 20.64950231 0.00282420 0.00156085 0.00379190
C 9.20475178 0.19457486 22.07234137 0.00143355 0.00211600 0.00114526
C 6.14957221 8.94265098 1.59810718 0.00227737 0.00148507 0.00665287
C 9.54783256 5.73728235 3.17238293 -0.00135398 -0.00203947 0.00184767
C 6.84208352 8.84194820 6.47600716 0.00076776 -0.00158489 0.00723042
C 9.75612909 5.86724123 7.87349150 -0.00405664 0.00022502 -0.00082465
C 6.46695471 8.83624491 11.37473331 -0.00068605 0.00504535 -0.00529888
C 9.44447420 5.66819021 12.57942330 0.00328616 -0.00038274 -0.00918862
C 6.60125654 8.88378578 15.92567402 0.00985076 -0.00275715 -0.00104752
C 9.61555020 5.73176767 17.19651953 0.00227988 0.00408235 -0.00211192
C 6.54771697 8.39969066 20.62786261 0.00295064 0.00490552 -0.00294491
C 9.67046141 6.11001049 22.15969272 0.00461480 -0.00489328 -0.00206215
C 6.83440453 14.55859004 1.83652147 -0.00173260 -0.00335005 0.00006391
C 10.00985984 11.47712526 3.11346449 0.00386798 -0.00248150 0.00009683
C 6.86530242 14.55326387 6.59706016 0.00221189 -0.00197763 -0.00240987
C 10.15219463 11.58064509 7.68405784 -0.00209836 0.01070418 0.00293203
C 6.93746826 14.34920434 11.24012599 0.00138741 0.00170978 0.00266552
C 9.81344037 11.44589264 12.60582985 -0.00595020 -0.00450157 0.00602722
C 6.78302556 14.40002167 16.01252813 -0.00569388 -0.00291371 -0.00623915
C 9.74052876 11.12704046 17.48244966 0.00489443 0.00147307 -0.00472249
C 6.80190562 14.20842091 20.84881227 -0.00285011 -0.00243504 -0.00415247
C 9.85467933 11.57788410 22.00600306 -0.00345439 0.00060508 -0.00366086
C 6.16445317 20.90789640 1.72489626 -0.00245423 -0.00017801 -0.00002784
C 9.41956399 17.88653999 3.03511146 -0.00214049 -0.00648805 -0.00453630
C 6.34607664 21.07581828 6.44277123 -0.00598832 0.00014422 -0.01083142
C 9.25837099 17.93313667 7.78401402 0.00148992 -0.00158342 -0.00459400
C 6.30437097 21.03240841 11.28611129 0.00188967 0.00122414 -0.00308569
C 9.20416780 17.92806279 12.42182327 -0.00095119 0.00028454 0.00394657
C 6.37125664 21.13002443 15.98699525 -0.00190829 -0.00374090 0.00810181
C 9.46918984 18.12495240 17.33387805 -0.00461813 -0.00432826 -0.00550272
C 6.34852999 21.02651601 20.60723106 0.00038758 -0.00128649 -0.00225441
C 9.19346104 17.57417512 22.08081543 -0.00358388 -0.00595176 0.00062595
C 5.58037131 27.57683677 1.62666017 -0.00031142 0.00092266 -0.00343968
C 8.81494722 24.85504424 2.91898667 -0.00365935 -0.00678888 -0.00033719
C 5.35943232 27.67642911 6.35592731 0.00331468 0.00023909 -0.00357936
C 8.74814631 24.39409853 7.67498211 -0.00354650 -0.00245436 -0.00275189
C 5.44997849 27.68336166 11.10745511 0.00553663 -0.00178364 -0.00059847
C 8.94761722 24.49413345 12.51494731 -0.00158465 -0.00733533 -0.00293072
C 5.57223245 27.50732873 15.91735048 -0.00467737 0.00051038 0.00480610
C 8.92211822 24.57908604 17.32978272 -0.00025883 -0.00038325 0.00250330
C 5.64633339 27.58257585 20.53619130 -0.00446478 0.00137462 0.00149611
C 8.91215259 25.00231284 21.87570738 0.00296645 0.00431608 -0.00188771
C 12.44336946 2.84978239 1.81369873 -0.00355409 -0.00527439 -0.00067036
C 15.91395774 29.60200752 3.14228270 -0.00388192 -0.00196885 -0.00022054
C 12.75173487 2.71570540 6.35641984 0.00040718 -0.00071302 0.00311345
C 15.71230914 29.72734267 7.74884512 0.00227228 -0.00011316 0.00259819
C 12.69858869 2.76610084 10.96157421 0.00637579 -0.00129819 0.00233619
C 15.81474956 29.92130053 12.39985532 0.00260322 -0.00805674 -0.00694967
C 12.75337300 2.76127558 16.00970547 -0.00099804 0.00605605 -0.00212300
C 15.76814726 29.87452497 17.32901596 0.00639998 -0.00646558 -0.00077833
C 12.80532570 2.80985469 20.76632861 0.00384788 -0.00172173 -0.00044448
C 15.67677189 29.89073374 22.19023746 0.00049997 -0.00345522 0.00031627
C 13.42541603 8.42841451 1.75618020 0.00710655 -0.00121281 -0.00267050
C 16.33866724 5.00969749 2.89846628 0.00360277 0.00510401 0.00257694
C 13.37027200 8.45127710 6.46337287 0.00113513 0.00164004 0.00503053
C 16.12893495 5.19035133 7.60921757 -0.00176850 0.00841566 -0.00379344
C 13.40016620 8.48646963 11.02099125 0.00223088 -0.00023585 -0.00496123
C 16.20360070 5.30527515 12.30093048 -0.00053623 0.01297159 -0.00004133
C 12.99215955 8.36842628 15.73083205 -0.00538168 0.00637823 0.00254483
C 16.22224813 5.34605503 17.18918140 0.00373908 0.00320564 0.00187156
C 13.17779442 8.36500364 20.65473087 0.00134446 0.00125004 -0.00171733
C 16.25694628 5.41320212 21.80894864 -0.00094376 0.00441080 -0.00045199
C 12.42272212 14.85520606 1.58088477 0.00512593 -0.00447190 -0.00705326
C 15.65573837 11.97960364 3.05118779 -0.00265365 -0.01178954 -0.00132213
C 12.58497517 15.23339419 6.45161774 0.00461751 -0.00258418 0.00292293
C 15.60826017 12.15485597 7.73929519 -0.00316914 0.00180904 0.00286172
C 12.53234640 15.16478900 11.22845619 -0.00042028 0.00047266 0.00049002
C 15.50647727 12.31165877 12.65382860 -0.00099858 -0.00276063 -0.00151554
C 12.34371663 14.96010707 15.82874475 -0.00258168 0.00155610 0.00369482
C 15.53699589 11.94677723 17.39693425 -0.00470415 -0.00167951 -0.00472395
C 12.46715958 15.00593204 20.50434053 -0.00549815 0.00260055 0.00292379
C 15.71978143 11.98558754 22.03795927 0.00375460 0.00190600 -0.00881117
C 11.87548893 21.49194100 1.75170417 -0.00430278 -0.00070368 0.00303877
C 14.96648264 18.78600974 3.11646202 0.00147748 -0.00492423 0.00898477
C 11.55025682 21.67617351 6.38089804 0.00126556 0.00892871 0.00055407
C 14.86354038 18.55328018 7.57793220 -0.00756267 0.00153366 0.00070995
C 11.84485412 21.60896858 11.18748032 -0.00052312 -0.00243438 -0.00488008
C 15.26984689 18.70587452 12.68871021 -0.00038580 0.00357701 0.00126443
C 11.67204034 21.49367247 16.00211727 0.00571909 0.00445564 0.00256445
C 14.82285767 18.57157465 17.31040446 0.00018503 -0.00676681 -0.00381514
C 11.75461581 21.86500719 20.82929196 -0.00114570 -0.00442283 0.00235698
C 14.91666527 18.85482882 22.17111515 -0.00315888 0.00208133 -0.00485817
C 11.96586701 27.53411832 1.74587376 0.00305571 0.00705403 -0.00452731
C 15.60563646 24.35388590 3.02446314 -0.00180096 -0.00015700 -0.00498892
C 12.21602144 27.22186132 6.39533150 0.00077759 0.00143726 0.00155813
C 15.22427013 24.04902885 7.98101263 -0.00034994 0.00879653 0.00289505
C 12.29699244 27.29521600 11.11350812 0.00299684 -0.00363128 -0.00141210
C 15.36070786 24.25343450 12.72224581 -0.00605415 -0.00278326 0.00085498
C 12.16082468 27.46260946 15.86136200 0.00390906 0.00639203 0.00387139
C 15.30610577 24.17859100 17.49905963 -0.00030557 -0.00165561 -0.00649164
C 12.36945649 27.23265997 20.64601515 -0.00238842 0.00359560 0.00108116
C 15.59194061 24.31629223 21.95366684 -0.00176030 -0.00249778 -0.00298786
C 19.57231632 2.32817675 1.60253151 0.00106789 0.00103740 -0.00315398
C 22.43072944 29.54600233 2.92522726 0.00310025 0.00365585 -0.00587536
C 19.46313057 2.36731438 6.62313541 -0.00203296 -0.00432676 -0.00565432
C 22.46775891 29.35426807 7.51612917 0.00328301 -0.00500833 0.00012473
C 19.63134052 2.10152960 11.21598342 0.00015546 0.00388486 0.00321121
C 22.54091263 29.27262126 12.29312283 -0.00238664 -0.01066815 -0.00858926
C 19.27272564 2.16292617 15.86490351 0.00466730 -0.00165792 -0.00124043
C 22.41867704 29.44682109 17.27748332 -0.00366072 0.00172650 0.00550441
C 19.40420452 2.23445361 20.72668718 -0.00043030 -0.00170237 -0.00038521
C 22.70956859 29.18935653 21.90699170 0.00082908 0.00085505 -0.00434079
C 18.79932366 8.92637821 1.75301617 -0.00023587 -0.00527817 0.00971420
C 21.73568935 6.12447463 3.08378719 0.00290176 -0.00104998 0.00077512
C 18.72471126 8.93288904 6.45345239 -0.00296778 -0.00618185 -0.00105314
C 21.91007206 5.97303469 7.91024859 -0.00517218 0.00061196 -0.00128998
C 18.54320654 9.11163605 11.21934407 -0.00231301 0.00594700 -0.00292639
C 21.64747558 5.94607712 12.52618166 -0.00100099 0.00347786 -0.00232250
C 18.51306666 9.06802244 16.01448282 0.00053773 -0.01100281 0.00037150
C 21.53908190 6.14251645 17.22919428 0.00252334 0.00474039 -0.00432759
C 18.80450965 9.00241657 20.73511986 -0.00306920 -0.00214555 0.00280810
C 22.17948053 6.08750517 21.96044755 0.00233291 -0.00086248 0.00005564
C 18.02477680 15.49860094 1.55036189 0.00223429 0.00041708 0.00013127
C 21.15359285 12.59104617 2.94132415 0.00573524 0.00533692 -0.00301656
C 18.05285075 15.72125676 6.30745488 -0.00468552 0.00028758 0.00809670
C 21.31819667 12.76321318 7.79877831 0.00249578 -0.00370266 0.00705606
C 18.12303474 15.77809323 11.16202721 -0.00253924 -0.00007278 -0.00132378
C 21.12747316 12.63203524 12.57525121 0.00455555 0.00083273 -0.00901659
C 18.04340628 15.84730760 16.03011304 0.00093184 -0.00428251 0.00398842
C 21.47039854 12.84002029 17.12871552 0.00435633 -0.00057542 0.00907660
C 17.98841125 15.64371449 20.63374396 0.00019816 0.00122338 0.00078251
C 21.27828708 12.86766299 21.89156548 -0.00213932 -0.00201041 0.00040303
C 18.35058239 21.20958157 1.79661048 0.00268849 -0.00281274 0.00013494
C 21.74063900 18.19737957 3.19148730 -0.00003216 -0.00313506 0.00744473
C 18.56379779 21.15322040 6.47457441 0.00163473 -0.00097735 0.00233275
C 21.56330459 18.51383864 7.83333995 -0.00872569 -0.00524424 0.00825361
C 18.44383394 21.30606117 11.27941049 0.00633744 -0.00479815 0.00195515
C 21.75112886 18.39662847 12.63623089 0.00389450 0.00740761 0.00734636
C 18.24893237 21.14492046 16.07759078 0.00149027 -0.00146263 0.00306360
C 21.79114139 18.29001171 17.30155200 0.00154391 -0.00297036 -0.00565337
C 18.43312099 21.05718226 20.73198917 -0.00025481 0.00852765 -0.00496105
C 21.49101010 18.07341248 22.11750730 0.00067906 0.00078063 0.00074945
C 18.80514036 26.89602368 1.78200520 0.00519910 -0.00257856 0.00023952
C 22.03619474 23.62924630 2.99308404 -0.00907267 -0.00054328 -0.00243530
C 18.78157714 26.52524938 6.53692451 -0.00210138 0.00383292 0.00285700
C 22.13387233 24.03503201 7.84706806 -0.00217976 0.00236571 0.00635293
C 18.79996041 26.81496106 11.19495470 0.00600451 -0.00036085 -0.00305926
C 22.15543452 23.92649777 12.68571007 -0.00448064 -0.00007363 0.00148613
C 19.05532478 26.76920619 15.89942034 0.00731300 -0.00180957 -0.00732974
C 21.88226409 23.77428621 17.33784372 -0.00056210 0.00313033 -0.00599537
C 19.00458143 26.83596139 20.62323052 -0.00216253 -0.00102930 0.00046639
C 21.98830747 23.79772993 22.13996226 -0.00167823 0.00237582 -0.00109879
C 24.98081511 3.08612638 1.68985441 -0.00050712 0.00782802 0.00067495
C 27.94656124 30.03510775 3.14920801 -0.00634020 0.00647677 -0.00589054
C 25.14110706 2.82404566 6.43299280 0.00752670 0.00190091 -0.00103187
C 28.23740327 0.15582039 8.01597410 0.00024424 -0.00235955 0.00548886
C 24.91005530 2.62255164 11.17621393 -0.00779379 0.00387560 0.00132346
C 28.24554665 0.13929572 12.64878050 0.00217560 -0.00357986 0.00743562
C 24.95294329 3.12651596 15.84811265 0.00325195 0.00492422 -0.00090924
C 27.80523685 0.00308699 17.30322209 -0.00057138 -0.00489596 -0.00179890
C 25.01082120 3.12066771 20.60741049 -0.00270798 0.00948123 -0.00106078
C 28.12048998 29.80065895 22.07236123 -0.00180774 -0.00174470 0.00384458
C 24.47102509 9.76512873 1.60882647 -0.00059617 -0.00292010 -0.00048966
C 27.75154953 6.87215171 2.89840915 -0.00124132 0.00036846 -0.00030366
C 24.24647871 9.89394446 6.34878052 -0.00029273 0.00499216 -0.00042376
C 27.25948690 6.67165392 7.62311227 -0.00426916 0.00003924 -0.00384911
C 24.14071216 9.72562271 11.29796851 0.00575720 -0.00220518 -0.00079090
C 27.26085923 6.46741377 12.46729244 -0.00486413 0.00023611 -0.00266286
C 24.10823428 9.93358176 15.86980631 -0.00346919 -0.00355878 0.00166015
C 27.47823164 6.62041674 16.94462769 -0.00034092 0.00346569 0.00093345
C 24.50227149 9.77631004 20.63441648 0.00798624 0.00287620 0.00462501
C 27.60303241 6.71907438 21.76398576 0.00814297 0.00622678 -0.00494322
C 24.73644249 15.45094820 1.92799090 -0.00418986 0.00650694 -0.00248362
C 27.94198425 12.34674862 2.94432831 0.00486099 0.00381543 -0.00438735
C 24.70787873 15.28212925 6.59063297 -0.00179265 0.00186255 0.00118445
C 27.85093432 12.39538109 7.75681318 -0.00289073 0.00068066 0.00601343
C 24.74949518 15.18105127 11.33248023 -0.00299425 -0.00114520 -0.00442115
C 27.86136679 12.16376340 12.45674093 0.00472865 -0.00784921 -0.01042267
C 24.77459328 15.38735132 15.83611156 0.00154103 -0.00753922 0.00139448
C 27.72847697 12.27319250 17.31053848 -0.00122690 -0.00189421 0.00506702
C 24.66408589 15.17149086 20.77949969 -0.00106769 -0.00500940 -0.00020862
C 27.86867730 12.18130647 21.94719312 0.00200588 -0.00436880 -0.00458847
C 25.25815725 20.80597290 1.83608333 0.00532380 0.00622706 -0.00184406
C 28.34160032 17.99387516 3.15211903 0.00119847 0.00160512 -0.00067270
C 25.36342048 20.82587492 6.61755233 0.00173601 0.00590552 0.00657653
C 28.41841027 17.75782793 7.88098642 -0.00065137 -0.00688082 0.00524158
C 25.19627311 20.87859078 11.35085325 -0.00038053 -0.00000514 -0.00296866
C 28.50253301 17.79636240 12.55300819 -0.00351484 -0.00422616 -0.00191767
C 25.40870172 20.89848854 16.16135357 0.00308673 0.00394313 0.00546828
C 28.25866092 18.26800927 17.21205644 0.00309172 0.00257520 0.00190888
C 25.05472722 20.78734842 20.89546208 -0.00466048 -0.00574940 -0.00360968
C 28.22743179 17.77208280 22.11905144 -0.00584006 -0.00313396 -0.00345298
C 25.53316784 26.29989091 1.77683816 0.00324804 -0.00340937 -0.00118235
C 28.64345491 23.54930781 3.09798307 0.00580832 0.00299764 -0.00144341
C 25.48317103 26.45291377 6.46018027 -0.00145974 -0.00517480 0.00188765
C 28.83619069 23.58082507 7.76491256 -0.00099349 -0.00133581 0.00105316
C 25.61141084 26.66331688 11.22360908 -0.00776729 -0.00025054 -0.00133249
C 28.85354042 23.42132579 12.53303904 0.00219029 0.00443626 -0.00046171
C 25.65107308 26.43503397 16.11369966 0.00518609 -0.00342228 0.00414675
C 28.60245667 23.67324418 17.23649090 0.00167472 -0.00058656 0.00591416
C 25.56720207 26.42132605 20.68293889 -0.00118916 -0.00035224 0.00005505
C 28.46683584 23.66446988 22.07402908 -0.00066122 0.00025275 0.00251423
N 31.19738950 4.24283653 0.85427647 0.00120052 -0.00150094 0.00068930
N 3.45588023 5.23380709 3.72904799 0.00117009 0.00026805 0.00194139
N 5.27267161 2.28694690 0.75713729 -0.00195945 -0.00162520 0.00426947
N 1.27575982 1.10901454 3.64447010 -0.00602627 -0.00132372 0.00130302
N 0.31592320 4.34587978 5.63823388 0.00018316 -0.00179088 -0.00121953
N 3.68038841 5.30968283 8.34482698 -0.00547397 0.00090589 0.00039157
N 5.06140077 2.51186029 5.87361851 0.00057839 -0.00368752 0.00381139
N 1.52769890 1.26258157 8.47393787 -0.00474004 0.00582260 -0.00102506
N 0.25500059 4.45127504 10.21784746 0.00186485 -0.00493136 0.00457789
N 3.51430462 5.21355321 12.84277266 -0.00253319 -0.00133658 0.00419322
N 4.98394395 2.25652508 10.43034008 -0.00107831 0.00012107 0.00550815
N 1.70136137 1.25940850 13.12192494 0.00008913 -0.00560037 -0.00396727
N 0.25268070 4.55846541 15.06973211 -0.00455877 -0.00080705 -0.00487752
N 3.64265770 5.24116130 17.90865174 0.00885585 0.00002429 -0.00375969
N 5.33258946 2.31435228 15.00863842 -0.00077006 0.00020690 0.00328641
N 1.88517644 1.44108879 17.80277241 -0.00515936 0.00099402 0.00259988
N 0.08776262 4.31477765 20.19816331 0.00280405 0.00344885 0.00452671
N 3.13153029 4.96520916 22.96757084 -0.00214169 0.00004325 -0.00321453
N 5.40098553 2.29931932 19.96319484 0.00002610 0.00643993 0.00273602
N 1.55526843 1.19041822 22.50367185 0.01394804 -0.00223556 -0.00657062
N 0.65763306 10.07914234 0.99446863 0.00522510 0.00430616 -0.00137748
N 4.22608603 10.80514034 3.86200140 0.00292583 -0.00857584 -0.00353397
N 5.48020896 7.88419227 1.09591579 0.00469750 -0.00211821 0.00005571
N 2.37088656 7.23846216 3.65045161 -0.00033254 -0.00004990 -0.00099549
N 0.60312624 10.03374266 5.97100684 -0.00005229 0.00167239 0.00250099
N 4.30625756 10.77780037 8.46134811 0.00103761 0.00439452 -0.00099504
N 6.25796238 7.80754135 5.81460164 -0.00093646 0.00401040 -0.00425231
N 2.43191129 7.24080556 8.02081301 -0.00728368 0.00881786 -0.00080482
N 0.56131296 10.19571345 10.56876956 -0.00482749 -0.01291956 -0.00236091
N 4.06686469 10.77319833 13.23262809 -0.00225207 0.00249004 -0.00589175
N 5.71441981 7.93091563 10.64714382 -0.00350724 0.00247822 0.00259589
N 2.38365114 7.22714224 12.93539190 0.00618796 0.00127301 0.00483366
N 0.74830384 9.90326472 15.07433743 0.00705625 -0.00721919 0.00888099
N 3.98773623 10.63049022 17.95302732 -0.00196403 0.00165764 0.00081280
N 5.65823925 8.12381807 15.28025311 0.00478947 -0.00363156 0.00140239
N 2.26492712 7.06980377 18.24134003 -0.00295673 0.00802855 0.00150535
N 0.45383941 10.01162972 19.60315548 -0.00132778 -0.00234233 -0.00030178
N 3.95342651 10.73287815 22.66910951 0.00247258 0.00306657 -0.00447679
N 5.75750374 7.70377284 19.81584353 -0.00544147 -0.00254180 -0.00251197
N 2.26045400 7.14261600 22.67693836 0.00452336 0.00156893 -0.00788007
N 1.08620011 15.75453937 1.01220200 0.00028721 0.00130886 0.00492452
N 4.78131331 17.16324156 3.80093306 -0.00114316 0.00070145 0.00158788
N 6.01387057 13.79393296 1.08219629 0.00169288 0.00656151 0.00362681
N 2.70250944 12.54909241 3.72806520 -0.00605615 0.00932337 -0.00190045
N 1.26217535 15.54243741 5.74488525 0.00521277 -0.00514413 -0.00385513
N 4.61659165 16.54148894 8.63038591 -0.00172308 0.00339702 0.00092239
N 6.34728412 13.62681801 5.78345548 0.00623149 -0.00476615 -0.00547977
N 2.87430271 12.68513104 8.59424534 -0.00008343 -0.00119417 -0.00222158
N 1.10930309 15.55806497 10.52503201 0.00109479 -0.00442342 0.00114039
N 4.40184499 16.62405294 13.20414710 0.00255186 0.00306114 0.00410516
N 6.26745874 13.44140718 10.48172013 -0.00266494 0.00078372 0.00064007
N 2.89102986 12.78163085 13.32151250 0.00206221 -0.00539624 -0.00207115
N 1.04039368 15.66117828 15.14945960 -0.00127038 0.00124161 0.00128229
N 4.33948356 16.60057764 18.10984273 0.00216993 -0.00391865 -0.00493360
N 5.97627622 13.52772972 15.33064799 -0.00065435 0.00297681 -0.00179272
N 2.64763570 12.62324009 18.07110958 0.00259107 -0.00574982 0.00098165
N 1.23283127 15.50297292 20.02934932 0.00155399 0.00546732 -0.00702598
N 4.61903437 16.76256964 22.86153774 0.00280165 0.00135404 0.00199195
N 6.10582218 13.30791212 20.15754047 0.00375579 -0.00214099 0.00342306
N 2.75194319 12.73171779 22.76219230 0.00009033 -0.00852062 0.00388230
N 1.31577853 21.26811782 1.24395442 -0.00268959 -0.00021080 0.00214908
N 3.98594819 23.37788620 3.69494455 0.00417477 0.00134794 0.00032673
N 5.32597520 20.15877470 1.00175110 -0.00456915 0.00471389 -0.00371290
N 2.72131811 18.34369712 3.88953702 -0.00241805 0.00228935 0.00140304
N 1.39741753 21.14963730 5.95854405 -0.00149439 -0.00525927 0.00172370
N 4.25867781 23.69034898 8.48675287 -0.00306844 0.00074133 -0.00486061
N 5.34897172 20.33506027 5.97271479 0.00017057 -0.00629004 0.00123450
N 2.89093669 18.06046910 8.44180710 -0.00581645 0.00254924 -0.00130748
N 1.59859573 21.31418739 10.43601889 -0.00286077 -0.00263832 0.00444026
N 4.02216230 23.59553015 13.28803580 -0.00372231 -0.00345943 0.00412964
N 5.46375425 20.24383960 10.57313394 -0.00320128 -0.00135979 0.00435540
N 2.53667661 17.96553233 13.34354017 -0.00162350 -0.00010751 0.00171896
N 1.47029490 21.44311959 15.12232260 0.00036331 -0.00160436 -0.00403211
N 4.26449889 23.59006774 17.82658375 -0.00418998 0.00279157 -0.00361310
N 5.55881200 20.35303414 15.14838677 0.00161717 -0.00460047 0.00221304
N 2.85797984 18.37983665 18.05323962 0.00213115 0.00092048 -0.00129639
N 1.35750356 21.24130239 19.95619143 0.00262059 -0.00002157 0.00243306
N 4.04455323 22.84349991 22.57435701 0.00138545 0.00556532 -0.00185296
N 5.61518468 20.35683402 19.80992044 -0.00371687 -0.00432918 0.00234351
N 2.96188531 18.37475745 22.85638755 0.00175056 -0.01064837 0.00028718
N 0.74914246 27.88907542 1.03046996 -0.00390137 -0.00118641 0.00962123
N 3.03210819 29.75866767 3.76568908 -0.00167075 0.00392362 0.00228798
N 4.78730635 26.86385165 0.74914537 -0.00261107 0.00039442 0.00248392
N 2.02955326 24.69375247 3.72295779 -0.00772731 -0.00532757 -0.00094789
N 0.79952211 27.81812205 5.67285632 0.00147423 -0.00089736 -0.00504301
N 3.21933468 29.66752796 8.52177626 -0.00624599 -0.00278431 -0.00084944
N 4.61548599 26.72634735 5.71819365 0.00854101 -0.00088312 0.00316996
N 2.15011823 24.67802283 8.36574661 0.00374539 -0.00096291 0.00243050
N 0.67710459 28.04690642 10.44357359 -0.00223821 -0.00226955 -0.00083935
N 3.53306143 30.03796751 13.31434461 0.00153027 0.00048781 -0.00861912
N 4.65093460 26.80094873 10.42251638 0.00073807 -0.00352060 -0.00106953
N 1.98411144 24.62989457 13.42186500 -0.00116781 0.00092755 0.00241728
N 1.09019109 27.99936932 15.24442518 0.00140932 0.00004359 0.00267173
N 3.26468301 29.65195702 18.08195377 -0.00131929 0.00156345 -0.00193765
N 4.58071345 26.84966465 15.06265358 -0.00522433 -0.00987723 -0.00037788
N 2.16697397 24.56262206 17.61092348 0.00197899 -0.00754146 0.00165373
N 0.77351306 27.64439597 20.02778052 -0.00543781 -0.00493460 0.00136201
N 3.44590650 29.99868045 22.55740862 0.00106292 -0.00487087 -0.00014936
N 4.76615486 26.83460069 19.82669387 -0.00424289 0.00276627 -0.00525896
N 2.19259252 24.33888973 22.65620207 -0.00195511 -0.00488885 0.00113910
N 6.60476490 4.10504981 0.84252461 0.00133364 -0.00535743 -0.00331320
N 10.31442083 4.87663296 3.89116338 -0.00243424 -0.00183670 -0.00430619
N 11.73261255 1.84840345 1.10775724 -0.00524375 -0.00301273 -0.00326964
N 8.18446220 1.11136082 3.70632082 -0.00133821 0.00218622 0.00423881
N 6.85203194 3.93804727 5.61480632 -0.00638789 -0.00350186 0.00127327
N 10.26840548 4.76376576 8.50847689 -0.00072567 -0.00240686 0.00032121
N 11.94947220 1.92288883 5.62803994 0.00037651 -0.00301706 0.00737759
N 8.37004425 1.20191275 8.47205652 0.00522922 0.00137605 0.00285262
N 6.48450538 4.05189919 10.41045133 0.00357057 0.00060133 -0.00036676
N 10.11221504 4.67135772 13.22447771 0.00266693 -0.00832787 -0.00344900
N 11.89468099 1.88412682 10.30615660 -0.00281926 -0.01000421 0.00236754
N 8.23380632 0.90230064 13.17240536 -0.00130953 -0.00016408 -0.00151430
N 6.58404499 4.23293249 15.13895976 -0.00292219 -0.00153519 0.00494400
N 10.26818647 4.84701671 17.92060500 -0.00752890 0.00238453 -0.00208273
N 12.00203179 1.95085182 15.24798941 -0.00103289 0.00199115 -0.00977720
N 8.58718111 1.20418150 17.83376647 -0.00336408 -0.00505063 0.00483863
N 7.10830691 3.88711920 19.94623149 0.00516481 -0.00551893 -0.00319657
N 10.07012445 5.07617287 22.99844675 0.00234579 0.00227971 0.00236997
N 11.99612575 1.88848135 20.17899441 -0.00142479 0.00936465 0.00020246
N 8.50928011 1.06557010 22.83481075 0.00107527 -0.00783953 0.00441427
N 6.78424979 9.80575870 0.74146593 -0.00080659 0.00011702 0.00536426
N 10.91816938 10.83119739 3.83772759 -0.00630093 0.00241975 -0.00552300
N 12.51548548 7.76462354 1.05230811 0.00149791 -0.00229050 0.00614229
N 8.99024135 6.75616680 3.86806049 -0.00243174 -0.00039332 -0.00189154
N 7.29552366 9.89270645 5.75033183 0.00101238 0.00426067 -0.00056085
N 10.90261304 10.64894905 8.33343146 0.00338547 0.00363700 0.00224014
N 12.51440927 7.71407311 5.77306164 -0.00584604 -0.00129589 -0.00061891
N 9.11944616 6.80825627 8.65011200 0.00098888 0.00393068 -0.00037185
N 7.15954822 9.74894410 10.66356049 0.00178147 -0.00278573 -0.00304223
N 10.58905257 10.60731955 13.30208663 -0.00045215 0.00359519 0.00434006
N 12.51753965 7.67139662 10.34268418 0.00702106 -0.00296316 0.00651423
N 9.05398727 6.75527901 13.33638006 -0.00004744 -0.01256926 -0.00011492
N 7.54352108 9.40581138 15.17026226 0.00236475 0.00714030 0.00213603
N 10.78066663 10.65110103 18.24495276 0.00108775 0.00222469 -0.00003876
N 12.41165780 7.35862527 15.01711423 -0.00075764 -0.00133398 0.00873992
N 9.10967819 6.80504623 17.93076105 -0.00299745 -0.00323228 0.00092598
N 7.39156270 9.34911326 19.94296731 0.00272761 -0.00465198 0.00220479
N 10.77131112 10.82280270 22.64638251 0.00339828 -0.00067266 -0.00299223
N 12.25351978 7.64570229 19.95241941 -0.00379123 -0.00029588 -0.00080215
N 9.03307900 7.08804304 22.79147079 -0.00006540 0.00724725 0.00117253
N 7.79448548 15.35497810 1.15585316 0.00331937 0.00290032 -0.00306600
N 10.26915005 17.39256176 3.92870964 0.00362621 -0.00362899 0.00672069
N 11.57655176 14.09375526 0.84012529 0.00597842 -0.00169795 0.00347759
N 9.32908642 12.42703158 3.77909675 0.00099363 -0.00208925 0.00498833
N 7.81580852 15.33135208 5.97067490 -0.00149820 -0.00188583 0.00319297
N 10.25385753 17.31305591 8.47855751 -0.00320513 -0.00195833 0.00528599
N 11.80620538 14.35912302 5.79820904 0.00223145 -0.00119662 -0.00319028
N 9.36050007 12.25597328 8.58772131 0.00412223 0.00023032 -0.00067373
N 7.67554412 15.21029300 10.48476468 -0.00378167 0.00514932 -0.00049139
N 10.16358384 17.36882432 13.24830413 0.00289292 -0.00826887 0.00402709
N 11.63726693 14.43757366 10.52645431 0.00116226 0.00092840 -0.00170381
N 8.83208899 12.12180196 13.39477004 0.00403887 0.00337940 0.00554572
N 7.55176367 15.22583352 15.26447403 -0.00361436 0.00133187 -0.00502998
N 10.43574889 17.52320048 18.08678687 0.00011764 0.00362916 0.00833989
N 11.61498628 14.03077868 15.10389011 0.00081617 0.00765325 0.00247518
N 8.67557247 11.61792306 18.18556270 -0.00064431 -0.00181279 -0.00290447
N 7.66756151 14.90775642 20.08088301 0.00446129 -0.00435614 0.00062348
N 10.34007843 17.26007414 22.75395913 0.00061985 -0.00033168 0.00247301
N 11.65359296 14.27631978 19.69953856 0.00199984 -0.00330456 -0.00106458
N 8.98125505 12.26404301 22.79041992 -0.00454082 0.00215796 0.00474879
N 7.05727031 21.57571000 0.87939693 -0.00115360 0.00244525 0.00327256
N 9.82123849 24.29813686 3.69311224 0.00736515 -0.00203659 0.00394533
N 11.08207651 20.71446521 1.00100753 0.00167633 0.00029538 -0.00135215
N 8.27422587 18.35971919 3.65650560 -0.00120841 0.00083012 0.00048847