2000
Time=36000.00000001 pbc="T T T" Lattice="30.86658524 0.00000000 0.00000000 0.00000000 30.10475948 0.00000000 0.00000000 0.00000000 23.69773513" energy=-12042.60663438 virial="-21.33257855 -4.08221778 -22.93790865 -4.08221778 -25.94070204 -15.57640760 -22.93790865 -15.57640760 -51.21032964" stress="0.00118476 -0.00017809 -0.00107352 -0.00017809 0.00092578 -0.00073117 -0.00107352 -0.00073117 0.00046623" Properties=species:S:1:pos:R:3:vel:R:3
C 30.26031838 3.46063253 1.78077499 -0.00380083 0.00818506 -0.00135615
C 2.40220565 0.53009490 3.03965382 0.00074566 -0.00549521 -0.00433239
C 30.19454588 3.56271826 6.47685563 -0.00427679 -0.00374250 -0.00263006
C 2.32665510 0.44740948 7.77311591 0.00191816 0.00311942 -0.00850671
C 30.18091450 3.50392165 11.18542277 0.00249871 -0.00259390 -0.00818698
C 2.49231644 0.58755979 12.54685527 0.00031516 -0.00098789 -0.00625965
C 30.46146264 3.47676939 16.03270303 -0.00104507 -0.00130051 0.00155572
C 2.72106789 0.56146912 17.11897968 0.00027767 0.00325623 -0.00722903
C 30.30692688 3.54058406 20.68579511 0.00135850 0.01072779 -0.00079367
C 2.39980671 0.57108350 22.03278669 -0.00677373 -0.00067610 -0.00440274
C 30.59649535 9.22694320 1.75616871 -0.00250508 -0.00002209 -0.00754292
C 2.90536316 6.04540935 2.89636011 0.00301064 0.00249495 -0.00012677
C 30.59719704 9.21639554 6.51862960 0.00342463 0.00133113 0.00355160
C 2.78419349 6.04199257 7.67029395 -0.00612500 -0.00383980 0.00255506
C 0.12363524 9.29157124 11.16508647 0.01519981 0.00209318 0.00608727
C 2.94345331 6.07654597 12.35603913 0.00177375 0.00151343 -0.00284561
C 30.66160667 9.26758032 15.93669435 0.00357573 0.00374136 0.00108241
C 2.81368558 6.27204875 17.19104461 0.00036661 -0.00269670 -0.00541088
C 30.47483628 9.14462844 20.62042972 0.00473141 0.00160129 0.00340654
C 2.91983118 6.33626204 21.89652557 -0.00145872 0.00064413 -0.00252218
C 0.11627303 14.87925737 1.66509897 -0.00569194 0.00090161 0.00618937
C 3.51575999 11.81792813 3.09232683 0.00942779 0.00142165 -0.00616003
C 0.12277543 14.93383235 6.60909110 -0.00209701 -0.00061864 -0.00158957
C 3.53801752 11.75140861 7.69342061 0.00048861 -0.00165710 0.00354956
C 0.27598150 15.01342052 11.20619104 0.00116176 -0.00214068 0.00342504
C 3.26243841 11.76838545 12.43343364 -0.00287401 0.00592291 0.00141164
C 0.02778923 14.78762486 15.88410216 0.00824118 0.00250712 0.00148865
C 3.45485418 12.00407889 17.15453753 -0.00630769 0.00568939 -0.00245737
C 0.10798840 14.65513534 20.69541593 0.00072803 -0.00064921 0.00217913
C 3.40832054 11.91402911 21.88246850 -0.00024971 -0.00525253 -0.00383023
C 0.50066730 20.38728543 1.65898021 0.00070452 0.00243534 0.00409870
C 3.55678870 17.45992442 2.99394292 0.00018858 0.00007712 -0.00359809
C 0.60217903 20.38842033 6.35122958 0.00899517 -0.00514685 -0.00277339
C 3.54943743 17.37726812 7.86608008 -0.00208258 0.00109815 0.00257379
C 0.68907196 20.51705408 11.39872829 -0.00668829 -0.00187885 0.00369219
C 3.45333154 17.36522898 12.56791485 -0.00055677 0.00161689 0.00329739
C 0.71806092 20.39744979 16.04419590 -0.00236994 0.00022053 -0.00540210
C 3.74965391 17.25494434 17.21160239 0.00112661 -0.00435731 -0.00049210
C 0.64144797 20.15573784 20.59442626 0.00070799 -0.00220716 -0.00584816
C 3.91159509 17.42729820 22.11569137 -0.00226282 0.00113447 -0.01042033
C 0.03409458 26.63254463 1.79765921 -0.00163477 -0.00062256 0.00395144
C 2.98756311 23.71817452 3.11064593 0.00807155 0.00325218 0.00592146
C 30.79427062 26.99197167 6.73752549 -0.00310666 -0.00319990 -0.00371028
C 2.89093148 23.85670068 7.80365688 0.00395775 0.00066885 0.00440181
C 30.85913096 26.93619621 11.23488598 0.00793965 -0.00344178 -0.00130415
C 2.67587018 24.08959385 12.67039474 0.00062538 0.00359356 0.00221270
C 30.83009631 27.01314512 16.23020265 -0.00097278 0.00137105 -0.00069739
C 2.91601843 24.38573406 17.44231547 0.00888708 -0.00195677 0.00296512
C 30.76829376 27.42199065 20.80251196 0.00206447 -0.00406710 -0.00125368
C 2.79214585 24.04184993 22.11008359 -0.00080902 0.00365406 0.00297404
C 6.06609933 3.21051869 1.60332866 0.00826562 0.00308395 -0.00126007
C 9.04202778 0.37149209 2.94182222 0.00373984 0.00149080 0.01174956
C 6.01960300 3.16525272 6.44327449 0.00136672 -0.00263858 0.01244534
C 9.05893414 0.15362609 7.81285119 -0.00158760 -0.00748193 -0.00423759
C 6.20369221 3.09252144 11.03720680 0.00029394 0.00348452 -0.00242093
C 8.92424921 0.15101333 12.43789437 -0.00069046 0.00265866 -0.00421782
C 5.81424603 3.46770557 15.58865985 0.00440303 -0.00086333 0.00420012
C 8.94333220 30.04837062 17.19697302 0.00097287 0.00241956 0.00173266
C 6.21908152 3.18706782 20.42019249 0.00121770 -0.00117598 -0.00121278
C 9.30139873 0.07247818 22.07954679 -0.00501393 -0.00037084 0.00547110
C 6.20257959 8.62754848 1.63630746 -0.00114584 0.00578223 -0.00031630
C 9.50200537 5.93574037 3.21587513 0.00060939 -0.00445402 0.00166322
C 6.23716925 8.65440695 6.51417165 -0.00054283 -0.00273348 0.00264985
C 9.39852137 5.72413094 7.76941526 -0.00429900 -0.00156365 -0.00224785
C 6.27094331 8.87384748 11.09578595 0.00455343 0.00448814 -0.00204405
C 9.60006772 5.80291349 12.58939372 0.00045905 -0.00355715 -0.00607742
C 6.19284720 8.47616387 15.73946012 -0.00377576 0.00106686 0.00062811
C 9.56804868 5.66671840 17.36594117 0.00150239 0.00306674 -0.00222053
C 6.47550324 8.75615263 20.43818185 0.00676008 0.00179041 -0.00441689
C 9.60432255 5.90708721 22.01090860 0.00730453 -0.00244031 -0.00424572
C 6.81235837 14.32585094 1.57438915 -0.00261448 -0.00133940 -0.00062606
C 9.61976951 11.29463892 2.94750225 -0.00229117 -0.00353400 -0.01260866
C 6.83228526 14.45350538 6.30168594 0.00077641 0.00349185 0.00244243
C 9.88709335 11.56502718 7.62212629 0.00222089 -0.00635831 0.00425105
C 6.77959265 14.35689454 11.09087567 -0.00528109 0.00065037 -0.00131643
C 9.54358807 11.19048041 12.43574798 -0.00087156 0.00443193 -0.00299737
C 6.87844140 14.44828306 15.69404651 -0.00024264 0.00552997 0.01022141
C 10.13896014 11.63607237 17.45551772 -0.00002153 0.00384612 -0.00112629
C 6.76157177 14.36931371 20.52822173 -0.01304692 0.00340347 -0.00479869
C 9.58673723 11.56825784 21.99735000 0.01326011 0.00155517 -0.00051261
C 6.14175360 21.24653011 1.61016063 0.00020691 0.00393415 -0.00843028
C 9.33208025 18.09186952 3.04226920 0.00746935 0.00311722 0.00085772
C 6.08934545 21.09490890 6.59422906 0.00138610 -0.00115768 0.00049491
C 9.31043503 17.96354319 7.78577339 -0.00185268 0.00064586 -0.00588749
C 6.05516929 20.73195882 11.27613594 0.00096003 0.00145700 -0.00172667
C 9.22027247 17.96380009 12.56398733 0.00148700 0.00002990 0.00946953
C 5.87339927 20.96625060 16.04136711 -0.00150583 0.00396886 0.00029985
C 9.14422779 18.34297916 17.37104284 -0.00109218 0.00322003 0.00353735
C 6.23443463 21.25380417 20.77675554 0.00977886 0.00423437 0.00581101
C 9.41964395 18.00601045 22.07025870 -0.00818736 -0.00078044 -0.00619191
C 5.41314184 27.73592471 1.72980093 -0.00139565 -0.00185609 0.00330661
C 8.62869354 24.47165747 3.02486783 0.00085005 0.00235844 -0.00008201
C 5.49670097 27.61832237 6.28338807 -0.00221403 -0.00289883 -0.00193896
C 8.61288555 24.42364945 7.79820037 -0.00457313 -0.00044143 0.00542184
C 5.52009067 27.53073724 11.09764944 -0.00355776 -0.00142106 0.00459918
C 8.75906461 24.59176497 12.57610995 0.00236588 0.00545630 -0.00039247
C 5.54375064 27.90966693 15.84460346 0.00925951 0.00750854 -0.00063761
C 8.72938744 24.82526397 17.26058598 -0.00229785 -0.00894150 -0.00126713
C 5.65115011 27.72012708 20.69971764 -0.00485653 -0.00553933 -0.00627293
C 8.66709908 24.55385563 21.97867241 0.00397448 0.00211919 -0.00311635
C 12.41421251 3.09311713 1.71098157 -0.00006886 0.00443474 0.00302266
C 15.52343813 29.89447492 3.25357422 0.00180459 0.00251702 -0.00226982
C 12.46797915 2.99474105 6.63345502 0.00413135 -0.00058621 0.00666157
C 15.59208448 29.87459888 7.94538150 0.00210274 0.00229480 0.00017506
C 12.65572959 2.93845391 11.39009095 -0.00135486 0.00075325 -0.00190156
C 15.47796079 29.96614501 12.61298920 -0.00705047 -0.00055420 -0.00013202
C 12.45746205 2.94015132 15.94242094 0.00147551 0.00301022 0.00047462
C 15.66086381 30.03720067 17.26746997 0.00296970 0.00270824 0.00256314
C 12.56717673 2.72389006 20.71779415 0.00371005 -0.00132446 0.00531073
C 15.41741556 0.01690041 22.10968001 -0.00175651 -0.00409269 0.00709774
C 13.12551904 8.55403919 1.50172393 0.00183637 0.00396595 -0.00214201
C 16.16523209 5.39730116 2.94718653 -0.00168166 -0.00179977 -0.00372892
C 13.04472605 8.48297699 6.52781059 -0.00032745 -0.00569734 0.00428742
C 16.09409493 5.60472060 7.71199865 0.00494988 0.00543222 0.00225990
C 12.94800673 8.56831462 11.23156432 0.00418014 -0.00090145 -0.00007916
C 15.97522677 5.62562081 12.36297907 -0.00133516 0.00431442 0.00247631
C 13.25344033 8.68188919 15.93432873 0.00132587 0.01211480 -0.00173785
C 16.03389512 5.42150090 17.07547651 -0.00238307 -0.00080585 -0.00227004
C 13.18846066 8.39150779 20.66104123 0.00231656 -0.00281060 0.00532096
C 15.99763006 5.33312983 21.82633903 -0.00189123 0.00168333 -0.00201450
C 12.42240023 15.05940332 1.52066955 0.00147574 -0.00086194 -0.00332240
C 15.40453227 12.12997933 2.95093747 0.00308993 0.00069792 -0.00204844
C 12.14011827 15.35097333 6.45925959 -0.00202888 -0.00294369 -0.00086746
C 15.47424284 11.99913540 7.78070769 0.00491132 -0.00220397 -0.00269877
C 12.43125659 14.91252482 11.28395925 0.00107538 -0.00014451 -0.00126905
C 15.56050384 12.29362938 12.38791940 0.00021488 -0.00188602 -0.00570419
C 12.27226519 15.10939687 15.91465109 -0.00460566 -0.00308594 0.00798849
C 15.42344183 12.36724114 17.20510021 -0.00424312 0.00351676 0.00627932
C 12.28619322 14.86011743 20.52459910 0.00570117 0.00181343 -0.00477471
C 15.59322188 12.09175106 21.88771252 0.00645619 -0.00314492 0.00045795
C 11.74092470 21.86408935 1.71023595 0.00313284 -0.00279319 -0.00546120
C 14.81068165 18.70386863 2.88017676 -0.00195891 -0.00323515 0.00123509
C 11.54544520 21.68989411 6.57167373 0.00483963 -0.00159878 0.00279639
C 14.98899485 18.88755473 7.72922660 -0.00081595 -0.00098600 0.00568080
C 11.71736778 21.56449166 11.48839801 0.00186837 -0.00019717 0.00156909
C 15.04469823 18.88769525 12.53800352 0.00056004 -0.00716345 0.00359325
C 11.58846630 21.75564416 16.07363344 0.00707805 -0.00204063 -0.00192780
C 15.01273404 18.65526957 17.31820636 0.00150921 -0.00587817 -0.00085610
C 11.79108511 21.56687966 20.75978251 0.00557044 0.00096382 0.00244153
C 14.67261464 18.56668694 21.85010642 -0.00105052 0.00373453 0.00026166
C 11.93790941 27.42927838 1.72419126 -0.00136473 0.00113449 -0.00129939
C 14.90390250 24.47221591 3.14792211 0.00020143 0.00242099 -0.00266911
C 12.00179482 27.24670387 6.46989275 0.00583748 -0.00157635 0.00428595
C 15.20683775 24.41941652 7.83552457 -0.00234721 -0.00229477 0.00094964
C 12.10201341 27.21146124 11.22833215 -0.00048341 -0.00335819 0.00499614
C 15.15436179 24.30277356 12.57765029 -0.00094981 0.00180256 -0.00621136
C 12.12036896 27.19877460 15.91600987 0.00134103 0.00328355 0.00255114
C 15.33202245 24.15841179 17.16021451 0.00352279 0.00362500 0.00063483
C 12.13990502 27.26948643 20.51409823 0.00341580 0.00357942 -0.00436344
C 15.46897918 24.41690558 22.08102605 0.00241312 0.00355694 0.00072681
C 19.12668893 2.38621930 1.77009117 -0.00010274 0.00105570 0.00354936
C 22.33419733 29.70710654 3.04892028 -0.00939097 0.00298569 -0.00874229
C 19.07369133 2.44187199 6.58688143 -0.00445823 -0.00467305 0.00498619
C 22.03768822 29.70141825 7.76114083 -0.00110061 0.00860189 0.00604873
C 19.08945268 2.38283127 11.25158753 -0.00599610 -0.00567716 0.00411939
C 22.16001009 29.43881009 12.48773379 -0.00144670 0.00142087 -0.00485506
C 19.16878994 2.52290438 15.90399810 0.00407366 -0.00068453 -0.00110749
C 22.22338872 29.37710299 17.13169443 -0.00378161 0.00465381 0.00140356
C 18.80525994 2.32641172 20.50452413 0.00300635 -0.00251836 0.00140906
C 22.01661121 29.57920401 21.80084606 -0.00056630 -0.00140699 0.00878979
C 18.42016756 8.98540063 1.61381605 -0.00059732 0.00084313 0.00493140
C 21.56716881 5.96225620 2.77342123 0.00221915 -0.00154061 -0.00366200
C 18.52497486 9.25993451 6.42940263 -0.00025741 -0.00605708 -0.00618705
C 21.48076114 6.10818900 7.61117847 0.00561052 0.00155088 -0.00788195
C 18.67045451 9.16014922 11.01854555 0.00087766 0.00246980 -0.00211784
C 21.60858995 6.06900038 12.47801217 -0.00321805 -0.00686706 0.00023909
C 18.80430912 9.03437882 15.94272262 0.00671110 0.00224170 -0.00039884
C 21.85503833 5.98748366 17.15850243 -0.00657949 0.00267670 0.00086030
C 18.73296403 9.28666237 20.55791620 0.00040751 -0.00764969 0.00380202
C 21.56418824 6.02820730 21.94773889 -0.00498972 -0.00144854 0.00202707
C 17.89847560 15.63645942 1.83191479 -0.00540419 0.00022433 -0.00054434
C 20.90603685 12.56420954 2.92578963 -0.00549858 -0.00097365 0.00129590
C 17.80149856 15.59449293 6.48880274 -0.00395356 -0.00422801 0.00673878
C 21.40082061 12.71904221 7.66310248 -0.00134207 -0.00089284 0.00115194
C 18.03371991 15.58628872 11.14614489 0.00402437 0.00030861 -0.00224752
C 21.13741143 12.47291325 12.37624504 0.00188262 0.00088096 -0.00224899
C 18.10865033 15.73984272 15.91800747 -0.00328982 -0.00405144 0.00273746
C 20.92977739 12.63641016 17.00151802 -0.00461549 0.00121013 0.00464670
C 18.07235927 15.63074593 20.72327959 0.00411720 -0.00103364 0.00408354
C 21.08337555 12.69023181 21.91484728 0.00099161 -0.00309428 0.00406237
C 18.23634896 21.64434661 1.73687271 0.00450604 -0.00307841 0.00028257
C 21.33975030 18.37329067 2.84033134 0.00435207 0.00006266 0.00621148
C 18.44815756 21.41931369 6.47203308 -0.00461521 0.00234308 -0.00355251
C 21.40542938 18.26808857 7.43227172 -0.00054772 -0.00063869 0.00736343
C 18.52902394 21.48914144 11.21914097 0.00019659 -0.00355812 -0.00197028
C 21.20114738 18.21921565 12.60166071 -0.00161532 0.00494794 -0.00114476
C 18.46639088 21.30814540 15.90247045 0.00549929 0.00063526 -0.00069179
C 21.62522190 18.36700235 17.15852994 0.00090192 -0.00908818 0.00621710
C 18.28971857 21.18313352 20.72349436 -0.00371191 0.00442241 -0.00149421
C 21.36578384 18.22801159 21.88954277 -0.00161031 0.00095597 0.00586543
C 18.73828666 26.80844507 1.89133543 0.00769892 0.00056839 -0.00029704
C 22.02726689 24.43651870 3.27142951 0.00205215 -0.00187053 0.00003355
C 18.81852195 27.09267159 6.57646962 -0.00046798 0.00005780 0.00346197
C 21.73207609 23.99193427 7.95304278 -0.00506254 -0.00122399 -0.00320061
C 18.67635848 26.95259302 11.35623438 0.00179876 -0.00042675 -0.00112812
C 21.48929550 23.94930778 12.58255811 -0.00166221 -0.00270575 -0.00350307
C 18.58341343 26.74784152 15.85887569 -0.00942014 0.00109469 0.00925075
C 21.70830707 24.08072719 17.43715710 -0.00432913 -0.00718608 0.00778555
C 18.83408854 26.90968179 20.71129668 -0.00048688 0.00377285 0.00286715
C 21.95526562 23.94675992 21.96876515 -0.00389779 -0.00629486 0.00011534
C 24.57942459 2.82377665 1.68524686 0.00889016 0.00306320 -0.00271096
C 27.83198848 29.96646736 3.01740852 -0.00311411 -0.00127374 0.00648617
C 24.78823334 2.97115968 6.50520027 0.00127460 0.00239446 0.00665677
C 27.90184419 0.14856463 7.87989695 -0.00450507 0.00817440 0.00819182
C 24.58906234 3.08309514 11.12692535 0.00247017 -0.00305629 -0.00638629
C 27.75140919 29.74752835 12.55572955 0.00128470 -0.00513178 0.00296219
C 24.79595851 2.96205389 15.85656492 0.00036126 0.00760194 0.00049186
C 27.78702629 30.07952174 17.38512543 0.00021004 0.00217354 -0.00405077
C 24.58621538 3.20238468 20.77884112 -0.00207449 0.00048532 -0.00240539
C 27.87082349 0.19761950 22.08466083 -0.00498035 -0.00580445 -0.00140179
C 23.89130221 9.74755074 1.64423114 -0.00325443 0.00312269 -0.00688939
C 27.07344246 6.42767852 2.87443364 -0.00206385 0.00205039 -0.00464776
C 24.20645942 9.50587239 6.42481715 0.01012925 0.00237336 0.00226370
C 27.45173382 6.68441455 7.59145354 -0.00361072 -0.00725416 0.00087928
C 24.40701319 9.60338022 11.16380298 -0.00354881 0.00059027 0.00025730
C 27.31040755 6.37395295 12.52198686 0.00917511 0.01136051 0.00262535
C 24.22140183 9.42334106 15.68690541 0.00389709 0.00488468 0.00047709
C 27.51744014 6.59768844 17.03017296 -0.00030199 0.00031151 -0.00233843
C 24.08659466 9.48730631 20.43620441 0.00147847 -0.00499978 -0.00679875
C 26.90017647 6.51173360 21.92480271 -0.00783785 0.00527365 0.00523859
C 24.40735400 15.44495350 1.65677197 -0.00762700 0.00084548 0.00651394
C 27.61430580 12.19938120 3.08165662 -0.00016923 -0.00249051 0.00469695
C 24.54850348 15.21464614 6.43502240 0.00448325 0.00010058 0.00365086
C 27.73718656 12.35951514 7.85819727 -0.00193398 0.00511952 0.00216872
C 24.50111673 15.52554583 11.31113247 -0.00168720 0.00036328 0.00096171
C 27.70072017 12.25737100 12.43629827 0.00693478 -0.00560069 -0.00665037
C 24.69627090 15.06873843 16.02253873 -0.00318617 -0.00173646 -0.00359459
C 27.69298625 12.25087203 17.33546309 0.00135882 0.00241672 -0.00275296
C 24.41096245 15.11348018 20.69130205 -0.00030882 0.00542128 -0.00089978
C 27.81203956 12.26392073 22.06898350 -0.00126743 0.00098050 0.00349669
C 24.82491803 20.82241165 1.87274572 0.00125830 0.00816345 0.00082235
C 27.82569953 17.87545617 3.10949054 -0.00131292 -0.00004701 -0.00245053
C 24.83925290 20.71291384 6.47958163 0.00517164 0.00184398 0.00158579
C 28.13349221 18.10669941 7.88791567 -0.00497139 0.00801191 0.00078383
C 24.57304640 20.90720180 11.17504657 -0.00046897 -0.00227728 -0.00112735
C 27.88103209 17.89313659 12.69855972 -0.00435556 -0.00260521 0.00228115
C 24.84162954 20.81476976 15.97701442 0.00475204 0.00498525 0.00171777
C 27.88821274 17.92042071 17.17108141 0.00037151 0.00666396 0.00486390
C 25.04147527 20.96376524 20.58728463 0.00673491 -0.00047628 -0.00044501
C 27.96575906 17.96717743 22.02860597 -0.00556743 -0.00153061 -0.00065762
C 25.41843777 26.54443350 1.78342937 -0.00697935 0.00057009 0.00775975
C 28.38675403 23.51286269 3.20688255 0.00444960 -0.00683678 0.00210849
C 25.32951301 26.67372257 6.57361950 -0.00293949 0.00121203 0.00388860
C 28.30661077 23.47054212 7.73989362 -0.00754927 0.00449041 0.00520271
C 25.37466341 26.36294171 11.18446099 -0.00483497 0.00651943 0.00090627
C 28.21171487 23.41391884 12.51756123 -0.00364384 0.00542715 0.00138233
C 25.17480114 26.54878210 16.10046766 -0.00031696 0.00215927 0.00303477
C 28.35539768 23.49808287 17.17193051 0.00143716 0.00400419 0.00047896
C 25.23388593 26.50602180 20.74522802 -0.00181329 0.00132061 0.00526415
C 28.44497283 23.44445612 21.93836876 0.00187316 -0.00162594 0.00219145
N 0.10520887 4.29731421 0.98006451 0.00203523 -0.00198094 -0.00097956
N 3.50968121 5.07809881 3.67596206 -0.00413201 0.00357292 -0.00578454
N 5.34654661 2.23300899 0.95572081 -0.00336077 0.00418008 -0.00228011
N 1.78664339 1.44560633 3.87285141 0.00349144 -0.00492411 0.00677404
N 0.05269880 4.33193257 5.67835884 0.00182440 0.00077640 -0.00135223
N 3.57003773 5.12324738 8.33525305 0.00532858 0.00554810 0.00269412
N 5.28863053 2.35005716 5.69397675 0.00338879 -0.00359079 0.00074823
N 1.42041648 1.23578872 8.38997922 -0.00882669 -0.00111143 0.00558467
N 0.27128164 4.18524947 10.49581868 0.00264167 -0.00058185 -0.00143106
N 3.60449575 5.13517146 13.02004208 0.00374088 0.00484573 -0.00309720
N 5.46220932 2.12724142 10.37594256 0.00561182 -0.00066621 -0.00247508
N 1.73008690 1.37896118 13.31346344 -0.00526725 -0.00743942 0.00221490
N 0.35349289 4.29085159 15.23440170 -0.00175272 -0.00425526 0.00413558
N 3.38048091 5.36977539 17.99733259 -0.00086692 -0.00082980 -0.00096627
N 5.13633911 2.48129208 14.89211403 -0.00229707 0.00442949 0.00476990
N 1.84175585 1.22317902 17.96513035 -0.00397533 0.00336498 0.00883637
N 0.28661018 4.36794224 20.07513421 0.00652280 0.00675200 -0.00031154
N 3.52868643 5.29639183 22.47590634 0.00151368 0.00113631 -0.00385369
N 5.51485156 2.27716273 19.68495017 0.00063400 -0.00294130 -0.00033783
N 1.50252250 1.33753101 22.74834172 -0.00224893 -0.00034809 0.00285363
N 0.21973171 10.19422142 0.98568580 -0.00169168 -0.00519322 -0.00108523
N 4.08075121 10.79761619 3.78649218 -0.00245237 0.00491557 -0.00313660
N 5.41250845 7.74879226 0.94201739 -0.00629193 -0.00206860 0.00277174
N 2.18654851 6.92201536 3.62263647 0.00142989 0.00202391 0.00093311
N 0.39460674 10.10399732 5.82033552 -0.00222764 0.00059585 0.00197197
N 3.92757109 10.69575594 8.52860169 -0.00461896 0.00768840 -0.01036679
N 5.50765786 7.76695962 5.80640199 0.00282128 -0.00107882 -0.00165997
N 2.06266423 6.90156076 8.42391655 0.00306867 0.00037240 0.00013454
N 0.88800164 10.17213312 10.38910073 0.00626092 -0.00487228 0.00329960
N 3.78896607 10.63881063 13.00885523 0.00416517 0.00236291 0.00339552
N 5.52108775 7.89265539 10.49066353 0.00032034 -0.00118444 0.00106907
N 2.14027158 6.96031282 13.06101681 0.00002601 -0.00412609 -0.00085249
N 0.68297226 10.08254766 15.26951092 0.00640417 0.00103540 -0.00123605
N 3.91829819 11.00790386 17.92538436 -0.00225602 0.00109847 -0.00098265
N 5.37216070 7.78070848 14.92624114 0.00070775 -0.00112336 0.00073991
N 2.10092675 7.25396579 17.83974879 -0.00510092 -0.00038557 0.00471992
N 0.38213584 10.26522345 20.07378160 -0.00076052 -0.00147067 0.00323355
N 4.01455808 10.87343441 22.50823419 0.00253662 -0.00363997 -0.00318025
N 5.64568002 7.91769357 19.75131689 -0.00691364 -0.01017901 0.00414888
N 2.19842885 7.18349748 22.73823632 -0.00113760 -0.00500230 0.00082550
N 1.08937944 15.63871321 1.08541964 0.00016520 0.00285261 -0.00764172
N 4.39076418 16.82797360 3.86451642 0.00496211 -0.00392956 -0.00884190
N 5.88542965 13.71471265 0.80309010 0.00125606 -0.00304411 -0.01005321
N 3.04245529 12.88287200 3.81769658 0.00022135 0.00238771 0.00140941
N 0.87384438 15.84521412 5.95144008 -0.00598358 -0.00356821 -0.00100550
N 4.41941737 16.60259079 8.59594273 -0.00438090 0.00037631 -0.00104788
N 6.05681357 13.70510424 5.50465348 -0.00517305 -0.00363943 -0.00231721
N 2.93495956 12.79313875 8.33870997 -0.00121121 -0.00375599 -0.00278505
N 0.80514689 16.05606914 10.43524063 -0.00411754 0.00175899 -0.00564924
N 4.42429473 16.54629512 13.13230075 0.00147480 0.00354859 -0.00526529
N 6.02836657 13.48201200 10.36221391 -0.00441392 -0.00335572 -0.00103842
N 2.74018804 12.71087567 13.25086382 0.00088966 0.00380440 -0.00345559
N 0.84869153 15.65891130 15.28142550 -0.00608633 -0.00042310 0.00031570
N 4.55479841 16.37708794 17.86867727 -0.00246445 0.00417267 0.00155306
N 6.15391360 13.48323824 15.06018640 -0.00295870 0.00553640 -0.00608174
N 2.77262409 13.00139010 17.88311361 0.00278127 0.00263736 -0.00108785
N 0.80097340 15.60383065 20.00208678 -0.00312894 0.00204700 0.00065640
N 4.65673050 16.54771066 22.87873496 0.00097685 -0.00501517 -0.00297238
N 6.07207986 13.44405866 19.83346605 -0.00076308 0.00085756 0.00417464
N 2.70276903 12.73477384 22.70090681 -0.00454322 -0.00711861 0.00558459
N 1.14872877 21.37627562 1.05314262 0.00464905 -0.00043009 -0.00043700
N 4.15148010 23.36074196 3.71965816 0.00014468 0.00221526 -0.00601645
N 5.27207993 20.46692575 0.91234969 -0.00424100 -0.00615569 -0.00042617
N 2.63767470 18.32419804 3.55154678 -0.00517915 -0.00480917 0.00299320
N 1.36269995 21.26986237 5.66579265 0.00185742 -0.00064874 -0.00280484
N 3.93697029 23.26685390 8.45652186 0.00807618 -0.00855567 0.00317635
N 5.38523708 20.36873890 5.71075619 -0.00053811 -0.00180388 0.00030450
N 2.79949771 18.21393549 8.66088810 -0.00037870 0.00371940 -0.00306824
N 1.44900335 21.33018008 10.58670088 -0.00193092 -0.00156804 -0.00365547
N 3.75235009 23.46828618 13.35669075 -0.00082344 0.00122582 0.00025734
N 5.33511969 19.98655187 10.37099884 -0.00147522 0.00444759 -0.00439295
N 2.69560106 18.07834602 13.42771156 -0.00865176 -0.00173442 -0.00044794
N 1.28798169 21.36992128 15.28552021 0.00200453 0.00128687 0.00380098
N 3.84812686 23.69926983 18.14770154 -0.00167822 -0.00502550 0.00169194
N 5.02371696 20.15193239 15.46737608 0.00784292 0.00110868 0.00026608
N 3.07144947 18.19021582 17.99242451 -0.00302492 -0.00317483 -0.00420179
N 1.39679500 20.94980250 19.85757448 0.00699075 -0.00007513 0.00132605
N 3.87893972 23.53703455 22.74046952 0.00086957 -0.00391419 0.00125516
N 5.29409199 20.40722089 20.24465676 0.00023723 0.00385863 0.00730195
N 2.86103804 17.98418392 22.80462509 0.00574801 -0.00117856 -0.00085208
N 0.90522850 27.53143043 1.26885491 0.00031183 0.01042229 -0.00479766
N 3.07390960 29.61072779 3.63450532 -0.00326221 -0.00228383 0.00109829
N 4.67157409 26.78636065 1.02333962 -0.00297414 -0.00378284 0.00178360
N 2.10410379 24.30243607 3.92362383 -0.00232376 -0.00197715 -0.00601252
N 0.97549999 27.60347328 6.08760129 0.00149227 -0.00026084 -0.00089298
N 3.24955604 29.89163265 8.48185739 -0.00166234 -0.00004837 0.00036039
N 4.58112305 26.98747796 5.56759585 0.00436537 -0.00275349 0.00217058
N 1.86349633 24.33560432 8.53586667 -0.00413736 0.00060386 0.00728085
N 0.75163592 27.73553331 10.47515139 0.00060726 -0.00556614 -0.00518465
N 3.05321621 29.64153897 13.25472449 -0.00733693 0.00098899 0.00019674
N 4.66220336 26.75322796 10.42056627 0.00141511 -0.00103345 0.00063346
N 1.90014033 24.88936789 13.45034246 -0.00042570 0.00379953 -0.00354220
N 0.71854554 27.83990827 15.45573746 -0.00352842 0.00658366 -0.00014223
N 3.64587438 29.89605563 17.81518129 0.00822183 0.00291803 0.00169345
N 4.86784148 27.06251683 15.07325599 0.00067031 -0.00727821 -0.00551809
N 1.80309968 24.75931995 18.15525537 -0.00236200 0.00197188 -0.00034878
N 0.65183992 28.15875116 19.93142157 -0.00545532 -0.00480206 -0.00190784
N 3.19261124 29.80466188 22.86434476 0.00380867 -0.00279509 0.00531856
N 4.77028085 26.94977032 19.99584794 -0.00098001 -0.00242068 0.00261610
N 1.69721731 24.32378432 22.87301308 -0.00026617 -0.00387428 0.00466535
N 6.85940349 3.94281324 0.86046596 0.00018881 -0.00015375 -0.00295397
N 10.03866038 4.92786546 3.91995834 -0.00173379 -0.00208149 0.00434162
N 11.57350778 2.16547084 1.11751888 0.00121441 0.00289897 -0.00635285
N 8.46321600 1.30911148 3.74903406 0.00755430 0.00056265 -0.00285980
N 6.72477925 4.09778563 5.71035401 0.00140996 0.00809849 -0.00233447
N 10.18882426 4.91832689 8.48844630 -0.00457405 -0.00159382 -0.00622765
N 11.66061809 2.14284559 5.92903582 -0.00524679 0.00074236 0.00756087
N 8.50146980 1.09451032 8.59239504 -0.00937231 0.00373198 -0.00525788
N 6.91005565 3.92074933 10.21532143 -0.00037870 0.00073782 -0.00076316
N 10.03527237 4.74119846 13.31323860 -0.00188152 -0.00143779 0.00304488
N 11.80347779 2.21473322 10.68576991 0.00602221 -0.00380211 -0.00035353
N 8.42427810 1.15609761 13.13742776 -0.00008761 0.00151647 0.00789316
N 6.58809506 4.29853525 14.89686725 -0.00438864 0.00160327 -0.00152758
N 10.53272503 5.04377349 18.11578975 0.00495936 -0.00110397 -0.00115707
N 11.62432373 2.02182627 15.31223299 -0.00073341 0.00198656 -0.00095994
N 8.35571701 0.95018347 17.87975021 -0.00696356 0.00691772 -0.00404874
N 6.88204623 4.12805460 19.72225066 0.00148193 0.00093320 -0.00021858
N 10.03257523 4.77523270 22.60795800 -0.00572967 -0.00193241 0.00773492
N 11.85723328 1.78682424 20.05628520 -0.00238146 -0.00119605 0.00179717
N 8.69454087 1.12572123 22.72958637 0.00113177 -0.00257434 0.00467513
N 7.00016602 9.45449962 0.93880010 0.00152893 0.00266815 0.00231390
N 10.54891435 10.57855342 3.57865605 -0.00498497 -0.00399157 0.00187669
N 12.19072882 7.82284723 0.80033642 -0.00637023 0.00459395 -0.00167559
N 8.95233318 6.92850326 3.96407596 -0.00528947 -0.00062997 -0.00327323
N 7.06758640 9.52680049 5.82447085 0.00296109 -0.00021973 0.00122766
N 10.74452884 10.79339042 8.39346780 -0.00726397 0.00498186 -0.00040982
N 12.29592478 7.58910864 5.84023836 0.00788957 0.00770421 -0.00116000
N 8.87884253 6.75586423 8.45820483 -0.00201308 -0.00005842 -0.00095816
N 7.13585589 9.46763056 10.27432003 0.00116799 0.00173639 -0.00327868
N 10.50250223 10.59872329 13.19568257 -0.00262330 -0.00137665 0.00747747
N 12.22416060 7.58280567 10.66142249 0.00088915 -0.00344723 -0.00824413
N 9.03704256 6.78176217 13.31121787 0.00778718 0.00101977 0.00286653
N 7.04574798 9.39678612 15.14465679 0.00155515 0.00216109 0.00022799
N 11.07884026 10.97647271 18.21158474 -0.00065282 -0.00222663 -0.00532787
N 12.40859565 7.83282788 15.31225486 0.00392056 0.00147451 -0.00188330
N 8.93658532 6.68915033 17.98124094 -0.00372148 -0.00235090 0.00384635
N 6.99056063 9.74677616 19.72996869 0.00501157 0.00380746 0.00072704
N 10.60109433 10.87367566 22.62623991 0.00451049 -0.00024651 -0.00240271
N 12.23348112 7.69640283 19.93276210 0.00194250 0.00432729 0.00229225
N 9.07422684 6.86960787 22.79355768 0.00051486 -0.00337485 -0.00794669
N 7.68942525 15.11050388 0.83184906 -0.00502326 -0.00115221 0.00220449
N 10.30444324 17.70425500 3.84661010 0.00011515 -0.00086537 0.00432402
N 11.63528002 14.22475035 0.82812275 -0.00337978 0.00063118 -0.00416823
N 8.68312908 11.98275029 3.79373574 0.00579383 0.00165628 0.00224272
N 7.51235495 15.37887292 5.62937855 -0.00094687 -0.00302090 -0.00310206
N 10.25957264 17.32019977 8.56737647 0.00279724 0.00744155 0.00941879
N 11.40815282 14.37729582 5.82103093 -0.00042088 -0.00282853 0.00172116
N 8.93474291 12.19132236 8.39984264 0.00059953 0.00608541 0.00059627
N 7.67367504 15.05865414 10.32501009 -0.00204619 0.00511349 0.00266723
N 10.39007695 17.67032518 13.28661877 0.00252969 0.00380306 0.00899477
N 11.65755518 14.29759229 10.37413218 -0.00158340 -0.00274503 -0.00336501
N 8.81121484 12.06148251 13.16855386 -0.00493994 -0.00036650 -0.00287842
N 7.75311071 15.08059470 14.92369992 -0.00512848 0.00455263 -0.00235061
N 10.18473949 17.99342922 18.16620724 -0.00623425 0.00210854 0.00380116
N 11.58022077 14.16757377 15.28641964 0.00078895 -0.00297732 -0.00470638
N 9.14426407 12.17908017 18.17104355 0.00258355 0.00384749 -0.00069899
N 7.54346542 15.20458437 19.87064620 0.00348748 0.00876775 -0.00612440
N 10.27863380 17.14920830 22.75317977 -0.00052007 0.00471927 0.00339995
N 11.38289344 14.16270385 19.78234530 -0.00134021 -0.00028307 -0.00466884
N 8.72276144 12.25027797 22.80395006 -0.00628487 -0.00490510 -0.00367581
N 7.03808755 21.89390667 0.86304807 0.00737080 -0.00385867 -0.00484925
N 9.55695709 23.75903054 3.68412151 0.00339358 0.00082369 -0.00349539
N 10.88030204 21.10651606 0.95834158 -0.00120803 0.00610709 -0.00312519
N 8.18123914 18.60974127 3.59082662 -0.01184860 -0.00654429 -0.00534031
N 6.94234698 21.98869479 5.98034842 0.00517503 0.00145772 -0.00177706