2000
Time=27000.00000000 pbc="T T T" Lattice="30.88665057 0.00000000 0.00000000 0.00000000 30.14417575 0.00000000 0.00000000 0.00000000 23.74328395" energy=-12041.55985165 virial="-48.63806934 -6.99359422 8.38685875 -6.99359422 -39.98478441 20.14794986 8.38685875 20.14794986 -139.04987715" stress="-0.00014162 -0.00034011 0.00040650 -0.00034011 0.00040353 0.00097641 0.00040650 0.00097641 -0.00365190" Properties=species:S:1:pos:R:3:vel:R:3
C 30.22979761 3.78102694 1.80849809 -0.00435953 0.00098300 0.00332324
C 2.54729381 0.51032748 2.91348561 -0.00215114 -0.00058405 0.00229153
C 30.18972538 3.41668157 6.43749651 0.00092127 -0.00335548 0.00563652
C 2.40746609 0.67978443 7.66736419 -0.00051995 -0.00194233 -0.00899473
C 30.26286426 3.50458357 11.31094908 -0.00309354 0.00258695 -0.00099306
C 2.34928534 0.57659633 12.53487797 -0.00199406 -0.00037063 -0.00383491
C 30.17717549 3.45083986 16.04549430 -0.00209092 0.00511233 0.00595600
C 2.64030586 0.48998244 17.26849054 0.00142286 0.00073863 0.00400788
C 30.29035753 3.78307508 20.67561535 0.00042970 -0.00249466 0.00261278
C 2.51374299 0.69239829 21.88366732 -0.00729860 -0.00046340 0.00050648
C 30.66043282 9.25440642 1.66919906 0.00813567 0.00172977 0.00324796
C 2.94532546 5.90756157 3.01796029 0.00095493 0.00223493 -0.00096110
C 30.54874132 9.20975069 6.43380988 0.00535438 0.00374672 -0.00058208
C 3.02928689 6.06214115 7.77041650 0.00062454 0.00540814 -0.01024205
C 30.51136425 9.31260972 11.28797791 -0.00131243 -0.00282785 -0.00243748
C 2.58884348 6.07565603 12.51988639 -0.00558150 0.00225538 -0.00090736
C 30.68308195 9.31926966 15.95164773 -0.00146955 0.00051970 0.00832143
C 2.86059021 6.36601881 17.28089966 -0.00076671 0.00814721 -0.00793291
C 30.57219652 9.52642684 20.69375753 -0.00025493 -0.00611791 -0.00389103
C 2.85111600 6.36669554 21.90237382 0.00446531 0.00463356 0.00360389
C 0.17539085 15.10146283 1.59641121 -0.00512765 0.00382312 -0.00805877
C 3.22545448 11.90632964 2.93108298 -0.00636171 -0.00782779 0.00465912
C 0.15776894 14.83095496 6.41167773 -0.00305132 0.00788155 -0.00326585
C 3.08105256 11.64657614 7.73270896 0.00270039 -0.00192179 0.00059212
C 0.09858171 14.83303052 11.27724570 -0.00256431 -0.00854853 -0.00218457
C 3.25096252 11.83064943 12.48043712 0.00588611 0.00291728 0.00671225
C 30.72714468 14.68773402 15.85541081 -0.00195148 -0.00103372 0.00032358
C 3.35387668 11.86049445 17.23083209 0.00038181 -0.00868216 0.00420726
C 0.29945286 15.15067527 20.65969951 0.00357453 0.00750746 -0.00494288
C 3.57408339 11.87530009 21.93752902 -0.00744438 -0.00293322 0.00201277
C 0.46919955 20.60448640 1.55307516 0.00299408 0.00194853 0.00376080
C 3.56505014 17.79662352 2.88833874 -0.00497654 0.00162011 0.00089156
C 0.69607543 20.63465634 6.52574778 -0.00168661 -0.00380308 0.00366935
C 3.77899349 17.57227345 7.53664641 -0.00449601 -0.00825431 0.00496477
C 0.87760231 20.35694245 11.14995302 0.00168570 0.00007122 -0.00227875
C 3.56890680 17.37756479 12.27854218 -0.00515727 0.00390845 -0.00254815
C 0.72106277 20.38012569 15.85863186 0.00060344 -0.00336471 -0.00311402
C 3.71529779 17.43228858 17.19066873 0.00292910 -0.00602703 0.00610444
C 0.52459816 20.45380131 20.71236121 0.00521008 -0.00591108 0.00200066
C 3.46423267 17.50187353 21.83964456 0.00413803 -0.00080034 -0.00394369
C 30.84187766 27.42987115 1.57178976 -0.00398249 -0.00452318 -0.00041222
C 3.00201996 24.09990143 3.00519806 -0.00008140 -0.00047999 0.00017995
C 0.13230367 27.54315948 6.55659499 -0.01177074 -0.00319352 0.00659155
C 3.23172127 24.27027688 7.88634183 -0.00035291 0.00040628 0.00029579
C 0.35817726 27.02242522 11.41232755 -0.01094650 0.01213832 0.00705075
C 3.47021914 24.20265367 12.58432015 -0.00011259 0.00135926 -0.00000130
C 0.03896699 27.38672243 16.16131137 -0.00065620 0.00454216 0.00209711
C 3.05409065 24.18616788 17.37968923 0.00069280 -0.00978428 0.00194895
C 0.11795700 27.23788902 20.77670276 -0.00015173 0.00510866 -0.00195042
C 3.08895117 24.18025991 22.03794646 0.00473425 -0.00062594 -0.00883427
C 6.18188952 3.23190950 1.66232097 -0.00161615 -0.00987548 0.00247783
C 8.92467042 0.20921719 3.01416521 0.00540384 -0.00025648 0.00328132
C 6.02484742 3.11790827 6.36234732 0.00094529 0.00281781 -0.00666259
C 9.26653820 0.28505988 7.74986072 -0.00313571 0.00260036 -0.00498487
C 5.98958987 3.34767320 11.40794549 0.00245993 -0.00256292 -0.00025470
C 8.93521019 0.08835457 12.53033596 -0.00288052 0.00333601 -0.00205757
C 6.02870667 3.24921813 16.12592177 -0.00060102 0.00436026 -0.00021677
C 9.12153169 0.20651335 17.21061820 -0.00203642 -0.00497291 0.00203188
C 6.11018448 3.31858428 20.74622727 -0.00278997 -0.00783560 -0.00199974
C 9.01466524 0.31524203 22.11123098 -0.00461456 0.00285270 0.00282432
C 6.47006019 8.67442853 1.74853297 -0.00100875 0.00800442 0.00256853
C 9.54011847 5.74039512 3.09564769 0.00157481 0.00046365 0.00438199
C 6.28083873 8.85159003 6.31186068 0.00417437 -0.00032286 0.00099855
C 9.41484585 5.55637223 7.82040760 -0.00113599 0.00114198 0.00069434
C 6.38934041 8.90732216 11.16916014 0.00461765 0.00158821 -0.00136170
C 9.84695602 5.91694949 12.53476106 0.00639092 -0.00129689 -0.00611547
C 6.36791143 8.73329533 15.94211332 0.00434179 -0.00428216 0.00144120
C 9.58823016 5.84004486 17.33370941 0.00432656 -0.00060941 -0.00097350
C 6.59526728 8.66329353 20.87344869 0.00521266 0.00303239 0.00072766
C 9.83257917 5.76959400 22.01693077 -0.00058940 -0.00123718 0.00213913
C 6.55974664 14.60210633 1.72703754 0.00453934 0.00027927 0.00530499
C 10.06009496 11.63719112 2.91743950 0.00162232 0.00494962 -0.00186243
C 6.75987628 14.31442609 6.42227295 0.00117952 -0.00317471 -0.00095221
C 9.75573951 11.44159251 7.48824352 0.00039694 0.00591156 0.00073790
C 6.61383125 14.31280018 11.08660370 -0.00611114 0.00593767 -0.00134518
C 9.93682880 11.52857271 12.47410887 -0.00538659 0.00554883 0.00806272
C 6.78956360 14.46736412 15.99333317 -0.00018470 0.00019578 -0.00107651
C 9.83078041 11.50564557 17.00274790 -0.00270885 -0.00108978 0.00485941
C 6.79244396 14.33204457 20.76564570 -0.00014875 -0.00466643 -0.00224182
C 10.00759621 11.57632419 22.00148543 -0.00160996 -0.00012940 -0.00188299
C 6.22909784 21.26353869 1.64189488 -0.00182232 0.00560700 0.00113745
C 9.23062673 17.81084590 3.19329318 -0.00222660 -0.00428903 0.00111477
C 6.21641250 21.10166087 6.49448714 0.01073608 -0.00041108 -0.00240049
C 9.09733991 18.23299435 7.94500253 0.00321363 0.00080469 -0.00507488
C 6.24121676 21.09206975 11.26473452 -0.00226918 -0.00080144 0.00393353
C 9.18819749 17.87935926 12.68100246 0.00097706 0.00375793 0.00090777
C 6.26760039 20.93695787 16.01878219 0.00414477 -0.00202388 -0.00254086
C 9.40634097 18.09319598 17.34465289 0.00481875 0.00041192 -0.00725727
C 6.00182312 20.82129208 20.93446571 0.00034355 -0.00655265 0.01141528
C 9.21933751 18.07717339 22.17792031 -0.00402471 0.00104808 -0.00090498
C 5.47353623 27.68040770 1.51503686 -0.00153015 -0.00878493 0.00901230
C 8.56436010 24.32363900 3.00015538 -0.00618243 -0.00071379 0.00940229
C 5.49466263 27.73213583 6.45300599 -0.00340788 -0.00411945 -0.00624703
C 8.61555182 24.47063333 7.91708837 -0.00121932 0.00535356 0.00137736
C 5.85702997 27.86523659 11.09473579 -0.00186081 0.00297530 0.00833653
C 8.81984999 24.73737017 12.61453691 -0.00195040 0.00016604 -0.00156664
C 5.48357876 27.62243341 15.91046745 0.00066402 -0.00152186 0.00239789
C 8.70119429 24.72518846 17.33158415 -0.00272525 0.00445916 -0.00082934
C 5.57696444 27.82989596 20.47390794 -0.00797894 -0.00452887 -0.00066110
C 8.57856272 24.62133688 22.06675277 -0.00013536 0.00692087 -0.00021382
C 12.67287344 2.64976749 1.78036683 -0.00513489 -0.00505759 0.00139189
C 15.14005661 29.68874078 3.04478995 -0.00535892 0.00060202 -0.00258029
C 12.63854755 2.73310127 6.59891942 0.00613892 -0.00006823 0.00203431
C 15.76882541 29.97644187 7.80654472 0.00060820 0.00063469 0.00121953
C 12.60409354 2.65959417 11.26904295 -0.00150532 -0.00029678 -0.00224962
C 15.76997644 29.98784369 12.56921929 -0.00322048 0.00335394 -0.00730439
C 12.57887286 2.69141086 16.00271250 -0.00041334 -0.00342036 -0.00039773
C 15.57446023 30.08316703 17.18520886 -0.00771415 -0.00447144 0.00088806
C 12.57234626 2.56910763 20.77463755 -0.00659094 -0.00373085 0.00400135
C 16.12979594 29.95154188 22.06661494 0.00159092 0.00223735 -0.00060533
C 13.20993950 8.39650878 1.74248272 -0.00711800 0.00075407 -0.00099444
C 15.93422071 5.47483697 2.80883346 0.00373935 -0.00313546 -0.00198032
C 12.98637919 8.28080439 6.42895587 0.00378868 -0.00515993 0.00167645
C 15.95980716 5.44273869 7.74145685 0.00082011 0.00555195 -0.00029938
C 12.99563340 8.57775970 10.95549976 0.00076358 0.00204303 0.00140843
C 16.03606971 5.42906159 12.59106929 -0.00309628 -0.00413168 -0.00057639
C 12.87316529 8.40771571 15.78112541 0.00470407 0.00702203 -0.00194343
C 15.94668736 5.36328108 17.14399369 0.00218131 -0.00758476 0.00460959
C 13.09954807 8.12479987 20.67015986 -0.00039523 0.00316263 -0.00256537
C 16.17716452 5.25652903 21.76981372 0.00261558 0.00401548 -0.00235897
C 12.30864837 15.09225211 1.46516868 -0.00427547 0.00130539 -0.00008909
C 15.38003880 12.09190123 2.85992231 0.00527661 -0.00074732 0.00552961
C 12.29991153 15.03507516 6.39532934 0.00071971 0.00073965 0.00209129
C 15.55026827 11.99689647 7.57701165 0.00125771 0.00112369 0.00675524
C 12.26954720 14.97714193 11.10045092 0.00443854 0.00877203 -0.00889533
C 15.39814870 12.31390085 12.56764554 -0.00641726 -0.00014077 0.00293634
C 12.33206789 14.77814432 15.98904964 -0.00055134 0.00722103 0.00060270
C 15.57275221 11.93226519 17.32020225 0.00516916 0.00201655 0.00875398
C 12.35579745 15.08721584 20.59327858 -0.00011500 0.00536721 0.00153226
C 15.52847995 12.06014940 21.99025236 -0.00815259 0.00014456 -0.00016361
C 11.53559026 21.46122339 1.79172492 -0.00067977 -0.00600442 0.00288599
C 14.79221360 18.53944494 3.02676831 0.00693475 -0.00277074 0.00284645
C 11.55839774 21.39117743 6.42258486 -0.00369335 -0.00103392 0.00742595
C 15.12259618 18.63120800 7.88399018 0.00092510 0.00085368 0.00592796
C 11.77951786 21.85092505 11.20341523 -0.00432181 0.00189477 0.00582045
C 14.76290818 18.67816110 12.50215237 -0.00638236 0.00229892 0.00685989
C 11.95374911 21.55955881 15.90757773 -0.00186593 -0.00590370 0.00321463
C 14.93444003 18.76754015 17.17832661 -0.00217554 -0.00005160 -0.00126941
C 11.41168621 21.78479274 20.64762534 -0.00190102 0.00632451 0.00008181
C 14.74372806 18.55396551 21.90125521 0.00095033 -0.00223146 0.00375099
C 12.06150752 27.20420864 1.68472459 0.00587945 -0.00593144 0.00256291
C 14.98957280 24.14354745 3.11844807 0.00633797 -0.00211304 -0.00002841
C 11.98359184 27.37345857 6.50874126 -0.00081014 -0.00356719 0.00649185
C 15.36840228 24.33171475 7.92159648 0.00229270 0.00332957 0.00618432
C 12.25710419 27.21997942 11.17817125 0.00097337 -0.00231172 0.00174539
C 15.50466664 24.26205279 12.59702817 0.00094095 -0.00399394 -0.00046618
C 12.30293971 27.20149335 16.11047483 0.00226522 -0.00116812 0.00330739
C 15.10775576 24.24755228 17.36531179 -0.00323333 0.00171837 0.00684225
C 11.97124632 27.15303733 20.77202167 0.00412376 -0.00227821 0.00209408
C 15.30877521 24.13138798 22.10215131 0.00287981 -0.00533791 0.00350442
C 18.95804899 2.51782879 1.72374687 0.00003165 -0.00490081 -0.00679850
C 22.20844582 29.65033666 2.96176106 0.00433545 -0.00193540 -0.00419579
C 18.92044590 2.39171602 6.35756954 0.00139222 -0.00176637 0.00433530
C 22.21782337 29.85128282 7.66132792 0.00105918 -0.00126067 0.00439969
C 19.13233174 2.36293270 11.23316101 0.00261105 0.00286067 -0.00340021
C 22.38657713 29.84026234 12.61226652 0.00104829 0.00130789 0.00421257
C 19.20148910 2.38393236 15.95526113 -0.00000853 -0.00291567 -0.00194815
C 22.24982550 29.54127885 17.27173461 -0.00048947 0.00540979 -0.00386175
C 19.12030179 2.30458345 20.52582079 0.00084436 0.00146819 0.00006979
C 22.15907461 29.54366328 22.02186320 0.00308915 -0.00004897 -0.00019763
C 18.39068761 8.75568742 1.83541003 0.00089905 -0.00260399 -0.00191643
C 21.20571180 5.86578392 2.97976634 0.00104583 0.00000194 0.00167943
C 18.47218379 9.17809783 6.62836356 0.00232827 0.00594390 -0.00003785
C 21.80536146 6.08039904 7.64558311 0.00115481 0.00479829 0.00328620
C 18.32782526 8.85446060 11.12715254 0.00639549 0.00135100 -0.00060585
C 21.47386595 6.13992735 12.67117567 -0.00528844 -0.00056090 0.00126507
C 18.41157785 9.09215353 15.89577657 -0.00117864 -0.00598357 -0.00573901
C 21.64102766 6.14624417 17.10470226 -0.00003147 -0.00173568 0.00129192
C 18.37351756 8.93584068 20.72349782 0.00423163 -0.00570914 -0.00089434
C 21.53088523 6.00429726 21.83953868 0.00107078 -0.00107036 -0.00204062
C 18.10298050 15.90340060 1.71950840 0.00050120 -0.00001231 0.00344598
C 20.88486892 12.79968755 3.12026994 0.00640289 0.00510018 -0.00160521
C 18.10598722 16.03047903 6.50780126 0.00396120 -0.00613884 0.00004044
C 21.16047807 12.61857400 7.72779219 -0.00042059 0.00816211 -0.00226771
C 18.08196226 15.71501191 11.11936515 -0.00433982 -0.00011333 0.00251080
C 20.66991880 12.52430482 12.47894354 0.00255409 0.00135742 0.00274946
C 17.92057073 15.70926249 15.80733675 0.00410124 -0.00350495 0.00592513
C 20.97919917 12.47741643 17.40404061 -0.00032951 0.00261789 0.00240693
C 17.90990540 15.58723436 20.67314241 -0.00223897 0.00298669 -0.00447654
C 21.28551251 12.71463325 22.09928619 -0.00381100 -0.00499543 0.00567710
C 18.28551742 21.66081642 1.80264779 0.00197098 0.00308483 -0.00459325
C 21.35609256 18.49920258 3.12222260 0.00833012 0.00239699 0.00091914
C 18.53508465 21.37613724 6.53912520 0.00432740 -0.00423808 -0.00771354
C 21.44262527 18.24943310 7.78582088 -0.00079665 0.00032955 0.00445135
C 18.50896216 21.26984296 11.30035517 0.00457482 0.00146811 0.00009969
C 21.57069188 18.06295609 12.65515174 0.00434025 -0.00488171 0.00015677
C 18.22288276 21.47441864 15.85840271 -0.00819794 -0.00108155 0.00201057
C 21.31467287 18.42539831 17.42738800 -0.00065191 0.00561446 0.00507019
C 18.22030226 21.34952430 20.79193235 0.00087476 -0.00311792 -0.00326656
C 21.56366532 18.32015054 22.13702174 -0.00592861 0.00327172 -0.00613327
C 18.57543027 26.99603850 1.79968916 -0.00606622 0.00378825 0.00388649
C 21.92234724 24.04979401 3.13452492 0.00332916 -0.00250218 -0.00254299
C 18.83702553 26.89256739 6.45896962 0.00401013 0.00056769 -0.00130653
C 21.95294386 23.95611719 7.84248643 -0.00071097 -0.00592316 0.00255074
C 18.78563074 26.90723535 11.20340997 0.00307842 -0.00115883 0.00626659
C 22.07451115 23.92547510 12.78002702 0.00402380 0.00011015 -0.00581055
C 18.77906028 27.13700881 16.10276926 -0.00041867 -0.00081877 0.00503862
C 21.70177763 24.04463331 17.33321750 0.00031605 0.00362426 -0.00294788
C 18.96888784 26.87750879 20.78828285 0.00073736 0.00444109 -0.00399089
C 21.95244879 24.25775314 22.09963220 -0.00120819 0.00225211 -0.00443047
C 24.56892938 3.04277244 1.52552309 0.00347241 -0.00498279 0.00001314
C 27.57436492 0.07530363 3.18430665 -0.00944882 0.00704727 0.00208863
C 24.67765862 3.20236347 6.57258950 -0.00006547 0.00677843 0.00093352
C 27.94206608 0.16951463 7.68083376 -0.00406641 0.00116293 -0.00159642
C 24.68399446 2.66179165 11.27366786 0.00033726 0.00501682 -0.00071010
C 27.78921797 30.09800441 12.48111462 -0.00241392 0.00480291 -0.00013288
C 24.84671004 3.04238951 16.00477700 -0.00032954 0.00124015 0.00127625
C 27.90645805 0.18668707 17.30376286 -0.00211214 -0.00250728 0.00024344
C 24.63563398 2.90856580 20.66386009 -0.00101799 -0.00240527 0.00224894
C 27.66941427 0.23475706 22.03168554 0.00224492 0.00574828 0.00330823
C 23.94633276 9.63186434 1.60789883 -0.00153907 0.00457868 -0.00155383
C 26.94996213 6.35099682 3.06042995 -0.00329057 -0.00943252 -0.00042694
C 24.20374620 9.42287064 6.31133937 0.00791526 -0.00592224 0.00056645
C 27.46016349 6.57673083 7.82871729 -0.00445783 -0.00092128 -0.00459899
C 24.08055107 9.51363961 11.25184338 0.00305791 0.00151788 -0.00064448
C 27.10285787 6.38161725 12.44681946 -0.00142385 -0.00220782 0.00603140
C 24.18120614 9.58275966 15.94403793 0.00172798 -0.00340754 0.00124132
C 27.26234954 6.54452671 17.33962602 -0.00398188 0.00418432 0.00488802
C 23.91742146 9.62857805 20.65988564 -0.00223173 -0.00208318 -0.00283388
C 27.23218764 6.88728813 21.91738111 0.00178401 -0.00214723 -0.00416455
C 24.28250803 15.35885689 1.71728738 0.00164911 -0.00180007 0.00314717
C 27.32154033 12.39042829 3.01281225 0.00153634 -0.00178403 -0.00480219
C 24.44460591 15.39832502 6.49749273 0.00002134 0.00033599 -0.00326951
C 27.60656587 12.26259368 7.83722724 0.00182415 -0.00056303 -0.00414135
C 24.50727658 15.30303516 11.35484921 -0.00536476 -0.00577356 0.00312627
C 27.44447680 12.13467146 12.55099445 -0.00076694 0.00233345 -0.00089183
C 24.34785707 15.10748255 15.98873540 0.00533656 -0.00404615 0.00529964
C 27.51045593 12.20880056 17.25358439 -0.00119743 -0.00246006 -0.00288211
C 24.63732292 15.33994774 20.68422165 0.00313787 0.00860976 0.00062595
C 27.41537013 12.38390979 22.00941591 -0.00006795 -0.00346386 0.00806652
C 25.13210389 20.66534148 1.80963862 0.00413301 0.00319622 -0.00583468
C 28.06315755 17.93096060 3.03883551 -0.00261833 0.00511771 -0.00163500
C 24.91717543 20.76052705 6.67346838 -0.01192249 -0.00092571 0.00436552
C 27.78418060 17.95484809 7.89091562 -0.00217716 0.00050253 0.00252694
C 25.22353125 20.86648409 11.42722199 -0.00056682 0.00355031 0.00656991
C 28.04965852 17.76022743 12.78799976 0.00028012 0.00029285 0.00600308
C 24.82668504 20.94452934 16.03333450 0.00363859 0.00435000 -0.00473047
C 27.99439307 17.81108065 17.29747654 0.00387694 -0.00337499 -0.00018021
C 24.95055450 20.85218828 20.68969974 -0.00905468 -0.00544412 0.01098761
C 27.71657677 18.04576970 22.02271619 0.00019780 0.00261372 0.00197979
C 25.25725981 26.78316118 1.79164125 -0.00080740 -0.00768833 0.00137075
C 28.09824697 23.99997410 3.12885485 0.00518288 0.00548400 0.00727920
C 25.34070763 26.60190094 6.59842937 0.00131812 -0.00390517 -0.00249494
C 28.40407608 23.73541932 7.80982487 -0.00013680 0.00009237 0.00396009
C 25.34774271 26.54872976 11.34728557 0.00042426 -0.00122728 -0.00166352
C 28.56998381 23.53671988 12.81355488 0.00096285 0.00124756 -0.00739453
C 25.51824012 26.40019701 16.05353690 0.00156857 0.00286303 0.00280405
C 28.55459207 23.74132545 17.44640345 0.00286795 -0.00077621 0.00683336
C 25.23585602 26.70525517 20.75864949 -0.00185143 -0.00202269 0.00773826
C 28.30302479 23.69407523 22.05788519 0.00259436 -0.00733913 -0.00213480
N 0.16527883 4.54378319 1.08910384 0.00093511 0.00208231 0.00251616
N 3.48209699 5.01786443 3.89574865 -0.00003749 0.00005071 -0.00091019
N 5.34505700 2.38016465 1.00867826 -0.00041836 -0.00168965 -0.00284317
N 1.62707533 1.33655678 3.56837176 -0.00288171 0.00366563 -0.00233262
N 0.11563205 4.45297529 5.96319978 0.00781294 -0.00083050 -0.00033865
N 3.62813542 4.89093035 8.25477173 0.00854038 -0.00081227 -0.00152655
N 5.23631628 2.20581205 5.73464551 0.00385376 -0.00055423 -0.00237343
N 1.53993617 1.29020303 8.45782917 -0.00035726 -0.00753232 -0.00168459
N 0.22266982 4.28596038 10.60385309 0.00162779 0.00061693 0.00237658
N 3.33815473 5.28852281 13.33442990 0.00017901 -0.00241303 -0.00215888
N 5.11838891 2.62608388 10.64829741 0.00057046 0.00367222 0.00263525
N 1.64283440 1.43779923 13.37516222 -0.00107742 0.00125496 0.00661545
N 0.26056616 4.15204449 15.43465875 -0.00226677 0.00731794 0.00279924
N 3.39266693 5.40760739 18.05598985 0.00117500 0.00390958 -0.00684046
N 5.31571291 2.49246277 15.27751031 0.00002447 -0.00093450 0.00057726
N 1.89160726 1.28690515 17.99655555 0.00515708 0.00241678 0.00452965
N 0.33271901 4.43065934 19.91199315 0.00243341 0.00054992 -0.00208784
N 3.51019901 5.32234961 22.46858945 -0.00025461 -0.00118796 -0.00117347
N 5.08613538 2.62411867 20.20700767 0.00147332 0.00257924 -0.00006670
N 1.55169790 1.38187924 22.61524964 -0.00128958 0.00442444 -0.00337686
N 0.37362652 10.21329594 0.91621030 -0.00181225 0.00092973 0.00097043
N 3.89838054 10.79759902 3.41785632 -0.00342646 0.00174509 0.00142422
N 5.82534496 7.82931922 0.90336899 -0.00332613 -0.00724325 0.00869041
N 2.40264405 7.05236593 3.56968336 0.00166223 0.00358509 -0.00188226
N 0.29546945 10.07622788 5.60983416 -0.00025749 0.00131294 -0.00093696
N 3.80856983 10.78011857 8.49902619 0.00047842 0.00577516 0.00284624
N 5.57855179 7.87018262 5.64807487 0.00346424 -0.00012372 0.00412069
N 2.44724440 7.01661067 8.62368058 0.00062980 0.00288927 0.00651203
N 0.57116602 10.00881212 10.61797747 0.00149159 -0.00181353 0.00072651
N 3.70059017 10.79015886 13.19675761 0.00041418 -0.00224668 -0.00377541
N 5.57610973 8.01298528 10.53951063 -0.00296889 0.00196243 0.00197910
N 1.88682597 7.06112064 13.10944615 -0.00089568 0.00209501 -0.00318923
N 0.62531716 10.16340305 15.28243087 -0.00617115 0.00319642 -0.00158502
N 3.97069075 10.85047376 17.87143482 -0.00144402 0.00424255 0.00191163
N 5.42319161 7.95350052 15.22946715 -0.00008105 0.00278101 0.00484532
N 2.27091412 7.39880554 18.01980977 -0.00092954 -0.00847107 0.00024954
N 0.62443514 10.30500790 20.02045207 0.00205981 -0.00151634 0.00306195
N 4.11773989 10.92205271 22.83286502 0.00267787 0.00252044 0.00748211
N 5.88663152 7.71229925 20.16510281 0.00027123 0.00580390 -0.00048019
N 2.24165318 7.15684932 22.82894822 0.00643922 -0.00279754 0.00094819
N 0.96672303 15.95015677 0.85780317 -0.00783904 -0.00182326 0.00107386
N 4.48758720 17.03582960 3.52214335 0.00464290 0.00544135 0.00588277
N 5.83042864 13.76065733 1.02252711 0.00304806 0.00130178 -0.00276064
N 2.69010201 12.73213767 3.82196963 -0.00216068 0.00145324 -0.00470331
N 0.86288439 15.64466377 5.55734955 -0.00436765 0.00127469 0.00102096
N 4.29037372 16.53450955 8.33369637 -0.00003257 -0.00336379 0.00380833
N 6.06978999 13.35220708 5.74790512 -0.00062063 -0.00704730 0.00449237
N 2.42991969 12.60776566 8.43360128 0.00359350 0.00238112 -0.00093663
N 0.94960175 15.58427892 10.46214513 0.00580948 -0.00580666 -0.00239159
N 4.34531842 16.48349053 12.92645460 -0.00374171 0.00192585 0.00463657
N 5.95865611 13.38096229 10.30127104 -0.00128264 -0.00300086 -0.00226091
N 2.79504673 12.87525404 13.24512967 -0.00163064 0.00750809 -0.00525461
N 0.85900155 15.40668382 15.32746474 -0.00485836 -0.00769248 -0.00600058
N 4.55734388 16.69444296 17.95609382 -0.00176885 0.00476732 -0.00067191
N 5.90810874 13.75219264 15.25430931 -0.00036234 0.00320741 -0.00328523
N 2.85490385 12.87853299 18.02536146 -0.00663040 0.00213097 -0.00379836
N 0.94362084 15.93450414 19.73901228 -0.00074421 -0.00526231 0.00910345
N 4.30001049 16.83128084 22.68983850 -0.00275762 -0.00397800 -0.00237312
N 6.05118877 13.49390984 19.94404104 -0.00185799 0.00014838 0.00464089
N 2.81005362 12.76283619 22.62246079 -0.00022099 0.00191534 -0.00183767
N 1.30504947 21.44293882 0.89595633 -0.00311628 0.00077018 0.00006328
N 3.95979657 23.54826303 3.69167996 0.00522138 -0.00196901 0.00097336
N 5.36514963 20.30829706 1.27111095 0.00485541 -0.00352188 0.00146685
N 2.53789448 18.25541476 3.68966777 0.00082641 0.00191117 -0.00135102
N 1.25171259 21.60616640 5.66382593 -0.00162802 0.00263208 0.00118071
N 4.18689489 23.53328077 8.53915460 -0.00095125 -0.00216356 -0.00014315
N 5.37316101 20.26885330 5.77085516 0.00002175 -0.00235031 -0.00471741
N 3.17430310 18.58355982 8.21449590 0.00409211 0.00644977 0.00009843
N 1.56774697 21.19380813 10.40573194 0.00190538 -0.00426289 0.00337160
N 4.48067747 23.65447265 13.28721484 -0.00070901 -0.00121542 -0.00200117
N 5.62132405 20.20277422 10.44389460 -0.00158526 0.00211335 0.00294645
N 2.80710904 18.08744946 13.16666221 0.00382103 0.00590461 -0.00422057
N 1.17196509 21.36946105 14.99711220 0.00394372 -0.00740439 -0.00215126
N 3.79761043 23.46326269 18.15528156 -0.00710239 -0.00498431 -0.00092330
N 5.32785130 20.20474160 15.30462190 -0.00079141 0.00246029 -0.00256216
N 2.85865829 18.23964979 17.86098341 0.00220833 0.00655093 0.00195484
N 1.41416936 21.21194861 20.02910567 0.00524739 -0.00238477 -0.00754177
N 3.96554134 23.49261076 22.81435577 0.00164625 -0.00198188 -0.00001833
N 5.26046765 19.96295349 20.20829930 -0.00088560 0.00031320 -0.00039759
N 2.84527880 18.60909513 22.35332322 0.00279099 -0.00254941 0.00338539
N 0.96267659 28.06514299 0.87766204 0.00209785 0.00204126 -0.00115890
N 3.46707224 29.96820787 3.63597364 -0.00416556 0.00302329 0.00281304
N 4.72413685 26.83827522 0.79966155 -0.00454186 -0.01004701 0.00118983
N 1.87340833 24.47120406 3.73689416 0.00245680 0.00626880 -0.00729561
N 1.05737449 28.13023737 5.65660872 0.00209220 0.00203483 0.00290240
N 3.39541210 30.09843994 8.33699534 0.00051607 -0.00775395 -0.00125643
N 4.78922130 26.78180322 5.72664225 -0.00670559 -0.00009204 -0.00102523
N 2.27453958 24.81422080 8.64958318 -0.00871405 0.00079213 -0.00427896
N 0.93792941 27.87022982 10.62978721 -0.00236346 -0.00730156 -0.00025259
N 3.27233299 29.98317848 13.23260705 -0.00140764 0.00799728 -0.00125110
N 5.03916107 26.96353272 10.54124232 -0.00040340 0.00509095 0.00238750
N 2.32851045 24.49636545 13.34462556 -0.00636451 0.00119743 -0.00201257
N 0.76624744 28.19828534 15.35981517 -0.00135053 0.00271430 -0.00620417
N 3.55929507 29.97021495 17.96958983 -0.00442952 0.00400017 -0.00339939
N 4.48150171 27.11631660 15.16287162 -0.00049505 -0.00009843 0.00206862
N 2.10392750 24.92671633 17.97614700 0.00141898 0.00005714 -0.00357384
N 0.98372743 28.00572444 20.03862392 -0.00104160 -0.00249952 0.00440587
N 3.21148888 29.90916748 22.59930298 0.00117509 -0.00260570 -0.00782788
N 4.87814536 26.92191830 19.77953975 0.00098621 0.00439358 -0.00360609
N 1.96664414 24.71383372 22.62946760 -0.00100584 -0.00436307 0.00183083
N 6.82215649 4.16696096 0.87853082 0.00008521 0.00212772 -0.00193926
N 10.14235435 4.85072309 3.98655861 -0.00697542 0.00391252 -0.00043339
N 11.88642359 1.82369566 1.09082963 0.00460718 0.00066578 0.00437614
N 8.44839936 1.10995568 3.89886845 -0.00055756 0.00051410 0.00078225
N 6.63619693 4.05990891 5.64153861 -0.00612824 -0.00376585 0.00046646
N 10.31831044 4.82779157 8.52291109 -0.00111032 -0.00476088 -0.00563250
N 11.85754337 1.79009512 6.01634551 -0.00301208 0.00023828 0.00221011
N 8.63284459 1.34457326 8.30081291 0.00153569 0.00229703 -0.00279020
N 6.87899817 4.12816334 10.67428528 0.00153290 0.00098361 0.00490461
N 10.38464421 4.80612148 13.17804823 0.00416809 -0.00491459 -0.00067228
N 11.67714638 1.96518841 10.59868978 -0.00086457 0.00323369 0.00359235
N 8.40015060 1.07883884 13.23505365 0.00025561 0.00043293 -0.00317500
N 6.79674242 4.17078971 15.45626390 -0.00094825 0.00332038 0.00809994
N 10.19795947 4.87498316 18.01482253 0.00254990 0.00080963 -0.00417291
N 11.88123827 1.86023834 15.17795595 -0.00268462 -0.00463168 -0.00478232
N 8.39212309 1.15464582 17.85718063 -0.00463335 0.00493280 0.00770529
N 6.99207044 3.90258824 19.91272552 -0.00467083 0.00153165 0.00225267
N 10.28143610 4.83353561 22.83049267 -0.00895033 -0.00104586 0.00181690
N 11.96464272 1.59847948 20.09241205 -0.00190360 -0.00447418 0.00302600
N 8.40206373 1.27318856 22.84036975 -0.00149862 0.00125990 -0.00129225
N 7.16880259 9.70506973 1.18608362 0.00524971 0.00436388 0.00051719
N 10.91693469 10.97545709 3.72797370 0.00431486 -0.00704425 0.00289881
N 12.36698869 7.63764733 0.96938431 0.00283409 0.00570589 -0.00277899
N 8.72254134 6.64232556 3.68081151 -0.01052272 -0.00330209 -0.00179172
N 7.06229817 9.62907432 5.49825425 -0.00089513 -0.00048769 -0.00036080
N 10.75023509 10.68848820 8.09267917 -0.00886806 -0.00453973 0.00039421
N 12.06942763 7.52730191 5.77050826 -0.00415328 0.00008274 0.00249137
N 8.76048682 6.50328635 8.55036172 -0.00377612 0.00152167 -0.00045058
N 7.12305105 9.74418791 10.35489592 -0.00209032 0.00073551 0.00261765
N 10.69124665 10.64434803 13.26191802 -0.00125203 0.00332650 -0.00148391
N 12.15259963 7.71314302 10.38283442 -0.00043137 0.00645485 -0.00432788
N 9.23568045 6.75946311 13.36351948 0.00369169 0.00048928 0.00229765
N 7.10045376 9.68849929 15.27981439 -0.00443651 0.00044890 -0.00253453
N 10.60152028 10.58737516 17.61601958 0.00281405 -0.00084766 -0.00312307
N 12.21975134 7.54246471 14.86570863 -0.00391253 0.00392509 0.00238115
N 8.90182122 6.75475912 18.09352533 0.00094054 -0.00082815 0.00630346
N 7.26990449 9.54724678 20.11939740 -0.00298354 -0.00256066 -0.00143654
N 10.99451092 10.88875284 22.56581346 0.00463991 0.00423326 0.00180461
N 12.27391095 7.28694045 19.90810882 -0.00282508 -0.00302181 -0.00056974
N 9.31026436 6.81525950 22.74474640 0.00219850 0.00225286 -0.00059498
N 7.35870485 15.42838874 0.99906528 0.00238053 -0.00280432 0.00396436
N 10.45661197 17.48283304 3.72600092 -0.00354577 -0.00757310 0.00014026
N 11.35264492 14.44998003 0.77649266 -0.00067387 0.00063661 0.00232706
N 9.17515042 12.42836167 3.59348448 -0.00073657 0.00244202 0.00077545
N 7.57304493 15.11960880 5.70782438 0.00424796 -0.00032174 -0.00731885
N 10.24747508 17.72814638 8.52819567 -0.00031864 0.00336199 0.00702279
N 11.49541823 14.27791693 5.60710508 0.00220701 -0.00038977 0.00404979
N 8.97074677 12.26392231 8.26322425 -0.00016297 0.00297399 -0.00137476
N 7.54111827 15.10011627 10.47353204 0.00616736 0.00448370 -0.00567812
N 10.19421676 17.38847213 13.39223188 -0.00806460 0.00195593 0.00077031
N 11.58734770 14.21197244 10.23202118 0.00026066 0.00238960 -0.00364627
N 9.00568990 12.21457995 13.15328427 -0.00385617 0.00496706 -0.01377722
N 7.67048967 15.13055377 15.18350469 -0.00097786 -0.00120594 -0.00565398
N 10.46060196 17.46200097 17.94487818 0.00202517 -0.00148530 -0.00362828
N 11.55626666 13.95362478 15.28639575 -0.00070176 -0.01119345 0.00172927
N 9.13964561 12.41849344 17.82937068 -0.00032800 0.00071664 -0.00031809
N 7.58766893 15.30873984 20.26394908 0.00462696 -0.00154561 0.00003786
N 10.15722488 17.58094852 22.97695264 0.00622133 0.00090238 0.00416530
N 11.61777261 14.20023851 19.86124853 0.00420689 0.00504604 0.00178300
N 9.21829477 12.30965750 22.84720031 0.00319292 0.00760709 0.00774835
N 7.16680500 21.67970814 0.70234584 -0.00536092 0.00098345 -0.00375991
N 9.27901017 23.50412818 3.80299840 0.00451734 -0.00185251 0.00087104
N 10.56220181 20.79362841 1.13231443 0.00580509 -0.00043353 0.00523404
N 8.17640459 18.22310259 3.96033359 -0.00286698 0.00166603 -0.00767314
N 7.16446340 21.76004987 5.73355466 -0.00501866 -0.00011797 0.00546501