2000
Time=47000.00000003 pbc="T T T" Lattice="31.15360389 0.00000000 0.00000000 0.00000000 30.07827346 0.00000000 0.00000000 0.00000000 23.65476585" energy=-12041.02317131 virial="-36.68888685 -5.44236822 1.98323955 -5.44236822 -40.63532400 8.68950828 1.98323955 8.68950828 -88.18673194" stress="0.00032762 -0.00026326 0.00014934 -0.00026326 0.00025388 0.00040254 0.00014934 0.00040254 -0.00121204" Properties=species:S:1:pos:R:3:vel:R:3
C 30.72193615 3.54257081 1.68908213 0.00497191 -0.00167012 0.00438788
C 2.74894420 0.43562603 2.80833537 0.00599137 0.01110718 -0.00692958
C 30.55709486 3.63715463 6.39586664 0.00033275 0.00775498 -0.00465699
C 2.52098303 0.43017354 7.80327490 0.00515369 -0.00483091 0.00101513
C 30.84974849 3.53225172 11.02029467 -0.00108449 -0.00097337 -0.00013446
C 2.62823111 0.57676102 12.56858716 -0.00272965 0.00036993 -0.00461168
C 30.62524097 3.46561699 15.85218553 0.00376003 0.00980697 0.00487634
C 2.93751577 0.64167874 17.27527127 -0.00636898 0.00636360 -0.00293766
C 30.24182710 3.65241970 20.52437558 -0.00532485 -0.00192315 -0.00275621
C 2.84791057 0.58529163 21.90623054 -0.00403854 -0.00212578 0.00484885
C 30.96145230 9.18979210 1.64160752 -0.00049321 -0.00152039 -0.00255265
C 2.96084509 6.14719666 3.05522371 0.00167050 0.00165896 0.00576240
C 31.01267174 9.22712715 6.48807452 -0.00044642 -0.00763772 0.00095066
C 2.82144892 6.34623412 7.83983907 -0.00356083 -0.00052071 0.00100292
C 30.94768323 9.48202012 11.13270471 -0.00018418 0.00373784 -0.00306675
C 2.77775367 6.03882504 12.54514219 -0.00092211 -0.00377523 -0.00084468
C 31.12024185 9.19087773 15.84067400 0.00545693 -0.00616147 -0.00571649
C 3.07176757 6.10938074 17.29456981 0.00153163 -0.00176376 -0.00221909
C 30.82392579 9.24371112 20.74872078 -0.00283522 0.00273063 0.00062975
C 3.08579839 6.05421234 21.81101395 0.00023330 0.00087478 0.00774952
C 0.25393978 14.64768361 1.66975446 0.00280113 0.00531617 -0.00503898
C 3.25262698 11.84021274 2.90619820 0.00524684 0.01141390 -0.00737466
C 0.11646231 14.67323170 6.40906709 -0.00050403 0.00334465 0.00277702
C 3.35385515 11.81837601 7.77231094 0.00095998 -0.00069559 -0.00254680
C 0.27117444 14.96664489 11.11096011 0.00238965 0.00613896 0.00050892
C 3.56998686 11.90166667 12.33906516 -0.00240959 -0.00335377 -0.00004391
C 0.09823227 14.91387186 15.83136754 -0.00101291 0.00704463 0.00210418
C 3.07337528 11.61317488 17.29376343 -0.00251615 -0.00035537 0.00879084
C 0.19277709 14.67189932 20.72259972 0.00116703 0.00340870 0.00025626
C 3.37997017 11.63429442 22.00737405 0.00096338 0.00277067 0.00658510
C 0.85970960 20.67432625 1.57428693 0.00010920 -0.00345249 -0.00076566
C 3.83107544 17.27381223 2.81461274 0.01587941 0.00614902 0.00264720
C 0.70210290 20.26416041 6.37354346 -0.00348304 -0.00287527 -0.00008913
C 3.57091662 17.47682823 7.67962138 0.00172688 0.00040018 0.00074427
C 0.47244031 20.37999245 11.18450278 0.00138849 0.00397386 0.00137321
C 3.73874419 17.57421034 12.56008364 -0.00206813 0.00313941 0.00364145
C 0.64387913 20.46544837 15.88926211 0.00368391 -0.00425453 -0.00269383
C 3.77596761 17.34580612 17.20923169 -0.00505993 -0.00153305 0.00046750
C 0.68997088 20.40752566 20.49039648 0.00164214 -0.00681591 -0.00129358
C 3.66736056 17.03725257 21.84226897 0.00080551 -0.00471983 -0.00046750
C 0.42101759 26.94108390 1.59100879 -0.00077651 -0.00483685 -0.00343771
C 2.95462179 23.89201464 2.92883583 0.00179685 0.00386016 -0.00115999
C 0.00882208 27.26283802 6.37514362 0.00328953 -0.00214584 -0.00013388
C 3.06152297 23.90391728 7.65851425 0.00599815 0.00095642 -0.00485866
C 30.83659220 27.15469705 11.15785217 -0.00741717 -0.00218912 -0.01200426
C 3.03126871 23.79860115 12.32732416 -0.00646517 0.00124814 0.00638972
C 0.12021578 27.43939111 15.88536680 -0.00070637 0.00793156 0.00086064
C 3.08089222 24.39967796 16.85461515 0.00235236 -0.00643162 -0.00104545
C 0.12636076 27.15514514 20.55059772 -0.00365723 -0.00469226 -0.00416721
C 3.31141800 24.05636165 21.70985475 -0.00046868 -0.00297678 0.00503739
C 6.25580996 3.25112006 1.82032267 0.00319957 -0.00151004 0.00363844
C 9.15385239 0.13631153 3.00411747 0.00253186 -0.00034515 0.00124934
C 6.10245868 3.08565543 6.38934756 0.00066644 0.00389260 0.00147406
C 9.40379218 0.07647663 7.83793984 0.00628361 -0.00089708 0.00338626
C 6.22179753 3.19321406 11.05603231 -0.00414211 0.00199938 -0.00501885
C 9.17814527 0.01576731 12.55780269 -0.00720977 -0.00236389 -0.00429875
C 6.29643453 3.37152632 15.79468192 0.00290531 -0.00010304 0.00048375
C 9.10033926 30.02305488 17.08513587 0.00368938 0.00357418 -0.00225995
C 6.16784531 3.17534980 20.73673442 -0.00343751 0.00540316 -0.00258427
C 9.18710749 0.02653517 21.88924786 0.01089235 0.00161968 0.00425064
C 6.39183033 8.68909819 1.88703824 -0.00016686 -0.00137383 0.00350087
C 9.54931174 5.97706708 3.23009374 -0.00210537 0.00069761 0.00229958
C 6.52746461 8.67137542 6.35053962 0.00109261 0.00042726 -0.00036834
C 9.59575734 5.98416584 7.81806079 -0.00182746 0.00266070 0.00342447
C 6.34532329 8.92126778 11.39268551 0.00221413 -0.00514236 0.00214475
C 9.66200308 6.19280939 12.56358944 -0.00269602 -0.00345828 0.00144637
C 6.35158037 8.85633598 16.11622266 0.00472149 -0.00764031 -0.00202333
C 9.65326994 6.01044482 17.55703294 0.00688098 0.00411185 0.00184894
C 6.32679084 8.68151727 20.87390224 -0.00105363 -0.00529093 0.00003296
C 9.71201499 5.79043174 22.12612282 -0.00228413 0.00196974 -0.00220545
C 6.96420563 14.20223804 1.80566857 -0.00086173 0.00151700 -0.00084074
C 10.09693208 11.45424642 3.13200757 0.00296068 0.00567251 -0.00048400
C 6.63163215 14.40698991 6.46186408 0.00169218 0.00254954 -0.00343632
C 9.95626741 11.28705879 7.87874358 0.00610554 -0.00326769 -0.00172579
C 6.96088621 14.74724289 11.15931207 0.00191755 -0.00455571 -0.00177418
C 9.86402787 11.58145084 12.45609479 0.00561147 -0.00166578 0.00878955
C 6.97951938 14.41544271 15.85853242 0.00597983 -0.00117946 0.00532776
C 10.05386641 11.45473159 17.20712572 -0.00245715 -0.00064540 -0.00134261
C 6.99344680 14.25017480 20.71939309 -0.00748529 -0.00416351 -0.00145840
C 9.84211080 11.41481712 22.02231825 0.00448572 -0.00111222 -0.00161245
C 6.21557291 20.66158278 1.73840774 -0.00497363 -0.00511517 0.00190761
C 9.32443038 17.98374445 2.98852824 -0.00054862 -0.00046491 0.00271075
C 6.15662448 21.07343585 6.25361713 -0.00303818 -0.01004866 -0.00125710
C 9.33311591 18.02506490 7.89001826 0.00148852 0.00251869 0.00057260
C 6.21986278 20.99118248 11.11172706 0.00127610 -0.00318051 -0.01092975
C 9.27539447 18.24247590 12.59751529 0.00718233 0.00115617 -0.00220270
C 6.38569650 21.35805663 15.90777826 -0.00299738 0.00212247 0.00112685
C 9.29618746 18.00991491 17.23767874 0.00140139 -0.00021386 0.00157463
C 6.19896872 21.18113965 20.60008478 -0.00014685 -0.00367319 0.00301661
C 9.30741085 18.07906062 21.91049337 -0.00008865 0.00121536 -0.00146152
C 5.93725360 27.45095451 1.64084701 0.00740543 0.00116372 0.00537168
C 8.79159481 24.57168409 2.90206929 0.00568576 -0.00382637 0.00319036
C 5.42942593 27.40703963 6.27311498 0.01054864 -0.00379576 -0.00173167
C 8.46473695 24.51106835 7.67709658 -0.00278997 0.00313832 0.00042230
C 5.41577442 27.84363040 10.99370983 0.00060482 -0.00668810 0.00126609
C 8.70775838 24.74972939 12.55893747 -0.00531759 -0.00094074 0.00381121
C 5.62293720 27.58556330 15.67025664 0.00065577 -0.00742263 0.00593880
C 8.66361189 24.54294837 17.11775381 -0.00231169 0.00014517 0.00176961
C 5.69798461 27.44194578 20.39913548 0.00259717 -0.00591328 -0.00183017
C 9.13261154 24.67307037 21.70005143 -0.00432211 0.00183523 -0.00394594
C 12.66854590 2.83657338 1.64695263 -0.00057119 -0.00789772 0.00700270
C 15.83696536 0.03886807 3.06002870 0.00355049 -0.00574039 -0.00835044
C 12.38902559 2.91752450 6.48987927 -0.00181704 0.00735418 0.00553425
C 15.61838068 0.04705050 7.64571388 0.00193101 -0.00299472 -0.00413025
C 12.33953541 2.75980811 11.33774909 -0.00240624 -0.00740774 0.01178871
C 15.79321218 29.81724105 12.40004164 -0.00038641 0.00240789 -0.00148734
C 12.56707275 2.80623511 16.12345691 -0.00204304 0.00130275 -0.00331980
C 15.89283891 0.01695850 17.38032395 -0.00314818 0.00166831 -0.00038436
C 12.87719172 2.83683369 20.73838925 -0.00492760 0.00071460 -0.00134203
C 15.81542977 29.74339189 22.03141612 -0.00012903 0.00196262 0.00497982
C 13.17401009 8.44756232 1.66926418 -0.00180962 0.00289085 -0.00312663
C 16.10837221 5.51971552 2.99196578 -0.00081337 -0.00530521 -0.00040519
C 13.09504989 8.37164982 6.46246666 0.00118524 -0.00334063 0.00711740
C 16.04885065 5.85451599 7.68526436 -0.00153067 -0.00005524 0.00215145
C 12.98960666 8.52949502 11.32727868 0.00429982 0.00029267 -0.00382556
C 15.92334230 5.46442441 12.44692456 0.00814708 -0.00490919 -0.00525633
C 13.17788106 8.19419830 16.07927471 0.00145389 -0.00125790 -0.00057620
C 16.20325487 5.42087449 17.23833665 -0.00268393 -0.00471548 -0.00632153
C 13.09160008 8.34390780 20.62882002 0.00227870 0.00112948 0.00235079
C 16.31625665 5.55538190 21.84223282 -0.00457638 -0.00004715 0.00095862
C 12.37940239 14.93469977 1.82461129 0.00499401 0.00139306 0.00333186
C 15.47220461 11.96517672 3.25141600 0.00613302 -0.00392655 0.01425995
C 12.33968585 14.94806334 6.35318821 -0.00107019 0.00259213 -0.00286724
C 15.67504136 12.45998984 7.80395010 -0.00239590 0.00437308 0.00742909
C 12.52921308 14.82607914 11.20604190 -0.00358305 0.00127835 -0.00043480
C 15.41647654 12.19407294 12.63467594 0.00767723 0.00011429 0.01305690
C 12.29810091 15.12838677 16.06826116 0.00768525 -0.00398553 0.00355567
C 15.58348685 12.02365616 17.26194358 -0.00383723 0.00341599 -0.00192719
C 12.38009454 15.12957418 20.79964407 -0.00236464 0.00370284 0.00192584
C 15.58678800 12.15155074 22.07268971 0.00127145 -0.00182815 0.00487272
C 11.92411612 21.54938851 1.63796985 -0.00275720 -0.00198231 0.00325878
C 14.99062312 18.58538505 3.04145765 -0.00269499 0.00024129 -0.00080947
C 11.63769293 21.66877995 6.37684089 0.00162150 0.00364582 0.00379024
C 14.93408254 18.52960125 7.73745276 0.00022140 -0.00097720 0.00213961
C 11.77678489 21.63287590 11.23813167 0.00165406 0.01031999 -0.00349428
C 15.09958146 18.58303798 12.54023539 0.00079922 0.00056068 -0.00900111
C 11.62574972 21.70062925 15.87589176 -0.00222083 0.00218721 -0.00688359
C 14.74829820 18.59823284 17.31824939 0.00334790 -0.00048999 -0.00570092
C 11.71846548 21.64107691 20.48191519 -0.00147750 0.00052159 -0.00332944
C 14.87835976 18.61057797 22.13980112 -0.00417721 0.00490940 0.00170550
C 12.21725707 27.39657669 1.61907647 -0.00030501 -0.00256528 -0.00159512
C 15.07596083 24.02715776 2.95095674 -0.00239029 -0.00602980 -0.00237922
C 12.25224986 27.36760427 6.30708881 0.00607108 -0.00157639 -0.00236757
C 15.19142812 24.34026287 7.75147010 -0.00286194 0.00217477 0.00265142
C 12.23295877 27.34362389 11.13260570 -0.00353108 0.00027177 0.00211832
C 15.25956188 24.07430295 12.37096440 0.00154040 -0.00003355 -0.00682303
C 12.52517670 27.25999010 15.78366091 -0.00601228 -0.00090608 0.00505118
C 15.27351287 24.14254381 17.30926212 0.00403970 0.00356830 -0.00087829
C 12.47666714 27.32765884 20.55290600 0.00080631 -0.00185982 -0.00207203
C 15.17612921 24.15539860 21.85639875 -0.00062806 0.00406607 -0.00397134
C 19.40087774 2.04741046 1.70342697 0.00101131 -0.00362450 -0.00321174
C 22.13825048 29.57666939 2.95058524 0.00375032 0.00374139 -0.00284783
C 19.23229162 2.61031082 6.29361198 0.01035759 -0.00242896 -0.00630365
C 22.27740710 29.49844044 7.74164221 0.00078548 0.00311810 0.00010067
C 19.07008267 2.45133010 10.90083861 -0.00474836 -0.00533927 0.00478861
C 22.14597283 29.32181692 12.44494898 0.00227506 0.00581076 0.00257778
C 19.34883358 2.42007847 15.78084686 0.00030980 0.00266701 0.00211186
C 22.44645764 29.56960960 17.15020661 0.00484690 0.00172617 -0.00048648
C 19.47045161 2.23869647 20.63416067 -0.00022203 0.00335032 -0.00303393
C 22.31459081 29.52267006 21.86643035 0.00200489 -0.00013544 -0.00280921
C 18.73910747 9.01695954 1.82406415 0.00403562 0.00133800 -0.00388505
C 21.73797091 5.74285134 3.02009481 -0.00026939 -0.00659954 0.00171599
C 18.75092856 8.97970072 6.43669187 -0.00161912 -0.00211694 0.00331668
C 21.90202598 6.13735660 7.85678680 0.00027884 -0.00009233 0.00033604
C 18.96064688 8.90845904 11.01582288 0.00152564 -0.00143389 0.00417922
C 21.84411915 6.05872731 12.42175487 0.00091618 -0.00367599 -0.00028452
C 18.74627139 9.31099842 15.77470474 -0.00186172 0.00135311 -0.00226949
C 21.59552612 6.06374196 17.26053462 0.00262361 0.00069532 0.01006145
C 18.63243187 9.24917016 20.62370386 -0.00710339 -0.00422616 -0.00543173
C 21.75254200 6.12504007 21.88255714 0.00043365 -0.00750056 0.00635725
C 17.87640340 15.88047238 1.82875522 0.00568571 0.00993911 0.00397910
C 21.16347046 12.83661881 3.09307476 -0.00480398 0.00218659 -0.00297725
C 18.03500463 15.58895546 6.45999307 0.00891946 0.00332633 0.00098068
C 21.40645864 12.95272707 7.89775948 0.00664121 -0.00565493 0.00074993
C 18.09817449 15.68922234 11.30091186 0.00180791 -0.00106259 0.00399927
C 21.18401337 12.56931024 12.36430361 -0.00188505 0.00155644 0.00194035
C 18.03240260 15.89818530 15.97461896 -0.00033603 0.00510870 -0.00082797
C 21.23973071 12.79184505 17.07648305 0.00101506 0.00034667 0.00075246
C 18.12645080 15.45200178 20.64147380 0.00413834 0.00210807 0.00079130
C 21.22286910 12.49508028 21.85304241 -0.00175342 0.00554662 0.00483602
C 18.39992530 21.23278746 1.73910443 0.00090026 0.00420336 -0.00560752
C 21.37983518 18.24934864 3.07753769 -0.00057607 -0.00396553 0.00072581
C 18.54023169 21.19586295 6.48180403 0.00003903 -0.00475985 0.00274180
C 21.85323051 18.21643710 7.65709980 -0.00232915 -0.00179846 -0.00543617
C 18.55088153 21.11345521 11.15049011 0.00771087 -0.00274356 0.00128839
C 21.72590489 18.05064441 12.57543770 0.00239289 -0.00847839 0.00469590
C 18.40189252 21.45564185 15.87215824 0.00248537 -0.00026502 0.00774638
C 21.36210154 18.24294780 17.31893528 -0.00103233 0.00009039 0.00439318
C 18.42348080 21.27267110 20.58684651 -0.00900221 -0.00070369 0.00244450
C 21.43327951 18.24240816 21.99318972 0.00092427 -0.00340498 0.00350335
C 18.51087410 26.89480802 1.66985433 -0.00026265 -0.00167411 0.00227972
C 21.83624133 23.88001137 3.18178725 -0.00038279 0.00037836 -0.00180454
C 18.52589705 26.89925305 6.35852823 -0.00430198 -0.00174713 -0.00767671
C 21.95030341 23.88902586 7.84450047 0.00353234 0.00303129 -0.00345706
C 18.72189857 26.85924087 11.09631066 0.00363373 -0.00391522 -0.00307160
C 21.80232620 23.72559537 12.53320134 0.00214080 0.00225744 0.00707293
C 18.88333604 26.67890361 15.94558459 -0.00593889 -0.00056976 0.00469816
C 22.38636023 23.94421858 17.50340642 0.00439073 0.00048147 0.00875093
C 18.78337645 26.67952714 20.55945527 0.00012451 -0.00397603 0.00010358
C 21.96891602 23.61906948 22.15923273 -0.00058124 0.00049467 0.00097368
C 24.80604785 3.07727810 1.65201855 -0.00245501 -0.00746268 0.00056920
C 28.07649381 0.01477541 2.87579832 -0.00229260 -0.00222735 -0.00666389
C 24.76168352 2.86885189 6.39968511 -0.00125996 0.00291179 -0.00319428
C 28.05201992 0.15720433 7.64497127 -0.00459960 -0.00319189 0.00526844
C 24.88374002 3.07174108 11.12098555 -0.00511871 -0.00052305 -0.00235625
C 27.86785734 29.98096182 12.34380973 0.00038630 -0.00348098 -0.00175794
C 24.69055016 2.99761394 15.93874722 0.00322899 -0.00415464 0.00083765
C 27.93700147 0.02781922 17.21727945 -0.00014167 0.00614154 -0.00259834
C 24.80556994 3.00012706 20.76308699 -0.00012315 -0.00187463 -0.00480775
C 28.18653537 0.09595664 21.83749510 -0.00090750 0.00117669 -0.00321440
C 24.19766989 9.58575997 1.79657944 0.00112982 0.00055450 -0.00175822
C 27.44483341 6.50002098 3.04718350 0.00091250 -0.00278781 0.00364625
C 24.20217430 9.73233476 6.49370107 0.00067146 -0.00294896 -0.00265973
C 27.28233071 6.46457168 7.69483538 -0.00106438 0.00307747 -0.00029811
C 24.26649443 9.60033108 11.09726653 -0.00225479 0.00016202 -0.00243668
C 27.54378971 6.61065947 12.26710416 0.00444811 0.00446464 -0.00670451
C 24.41163548 9.39437855 15.76192698 -0.00173934 -0.00339661 -0.00429296
C 27.46215502 6.64993405 17.12081598 0.00144040 0.00301148 -0.00062378
C 24.25654213 9.67519855 20.52702034 0.00092047 -0.00122942 0.00116936
C 27.61499526 6.51803025 21.83126440 0.00015920 0.00350726 0.00568892
C 24.66522513 15.33334799 1.78812763 -0.00203170 0.00219872 -0.00186130
C 27.88828187 12.28576394 3.06793575 0.00403558 -0.00089782 -0.00075908
C 24.87631356 15.38125077 6.74881802 -0.00433437 -0.00040934 0.00929221
C 27.85050935 12.38662360 7.84364044 0.00183952 -0.00283189 0.00292474
C 25.01705704 15.39470641 11.53807125 0.00331779 -0.00240211 -0.00167147
C 27.96500200 12.31972434 12.69291800 -0.00303845 -0.00161407 -0.00310558
C 24.96243028 15.28167974 15.99037180 -0.00505214 -0.00007163 -0.00248869
C 27.69815948 12.11055731 17.26112020 -0.00020461 0.00367355 0.00395559
C 24.62510876 15.28616330 20.77192998 -0.00234997 -0.00165379 -0.00096844
C 27.78034892 12.33557234 22.08934422 0.00412443 -0.00142381 -0.00111256
C 25.02857267 20.94458180 1.83292487 0.00029729 -0.00497761 -0.00443750
C 28.11119162 17.90098785 3.05445371 0.00084479 0.00468721 0.00252603
C 25.19888617 20.73306388 6.54994929 0.00342772 -0.00378153 -0.00218420
C 28.36804976 17.78306203 7.78694315 0.00107147 -0.00343346 0.00717824
C 25.27993119 20.93621333 11.21529262 0.00363396 -0.00156101 -0.00111252
C 28.38369401 18.09259989 12.60982448 0.00031432 -0.00336775 0.00177422
C 25.37830703 20.87455648 15.92295319 0.00388466 0.00401714 0.00170281
C 28.28394864 17.71312829 17.20716045 0.00007034 0.00153348 -0.00391097
C 25.22218929 20.77472164 20.75235628 0.00184344 0.00594480 -0.00241742
C 28.48377920 17.88691966 21.96195123 -0.00260412 -0.00735153 -0.00279857
C 25.32250393 26.82314620 1.77964982 0.00269650 0.01012794 -0.00236637
C 28.59683321 23.62098899 3.07640044 0.00579198 0.00159990 0.00131013
C 25.31185761 26.35706072 6.47125734 -0.00311513 0.00187238 -0.00348417
C 28.63133862 23.78749546 7.67496607 0.00146328 0.00567480 -0.00351903
C 25.70092383 26.62955894 11.07256207 0.00018810 0.00059459 0.00426069
C 28.80917611 23.51245712 12.28729227 0.00448755 0.00341382 -0.00466526
C 25.66548855 26.29134825 16.01479541 -0.00209631 0.00128681 0.00767285
C 28.76385804 23.73390728 17.02956728 -0.00244531 -0.00535770 0.00308605
C 25.83804367 26.22782937 20.72446729 -0.00216445 -0.01065479 -0.00349038
C 28.57258458 23.62885521 21.94683816 -0.00483759 -0.00303224 -0.00144379
N 0.41618432 4.53816297 1.23931913 0.00254559 0.00221058 -0.00622542
N 3.61274929 5.26529622 3.85814278 -0.00513041 -0.00153412 -0.00705222
N 5.68457921 2.22063263 1.11273894 -0.00336649 -0.00298594 -0.00260225
N 1.92028271 1.09988593 3.56473679 -0.00242366 0.01232891 -0.00029474
N 0.17269305 4.47927211 5.70647807 0.00925039 -0.00192981 0.00273088
N 3.48179653 5.40630220 8.50809060 -0.00145661 0.00073912 0.00430986
N 5.49842646 2.01761108 5.75276429 0.00307128 0.00038957 0.00393032
N 1.88764853 1.36039396 8.56017640 0.00012368 -0.00176926 -0.00054320
N 0.27318185 4.34090118 10.09142312 0.00058224 0.00052441 0.00334797
N 3.38797712 5.04553076 13.27765230 -0.00044288 -0.00016603 0.00126265
N 5.32597893 2.35368884 10.41220945 0.00711999 -0.00088717 0.01021290
N 1.90877244 1.43258260 13.27478793 -0.00196830 0.00060182 0.00166714
N 0.18091677 4.49947048 15.39373037 0.00307957 0.00388417 0.00088943
N 3.79946945 5.14759536 17.94453154 0.00209649 0.00282733 0.00567841
N 5.43126348 2.60902632 15.03866397 -0.00167719 -0.00174919 -0.00051089
N 2.24931778 1.48210278 18.06506755 -0.00384368 -0.00160778 0.00713731
N 30.95701965 4.56934701 19.79067459 -0.00308052 0.00138855 0.00487681
N 3.62267938 5.17437734 22.70392196 0.00588785 0.00243133 0.00158400
N 5.38824958 2.36046898 20.00141821 -0.00281689 -0.00708372 0.00452146
N 1.99156935 1.38781176 22.49491631 0.00264194 0.00905217 0.00471587
N 0.49695580 10.05443753 0.91168086 0.00066533 0.00502306 -0.00112375
N 3.63647832 10.68130626 3.49502718 0.00097531 -0.00291110 0.00416019
N 5.75513572 7.81557258 1.07817321 -0.00588978 0.00130716 -0.00092926
N 2.38629606 7.13728189 3.73215514 -0.00386776 -0.00961745 -0.00131833
N 0.69433646 10.03357533 5.82264123 0.00375593 -0.00330752 0.00019645
N 3.99813140 10.93730553 8.56368711 0.00661242 -0.00431665 0.00653661
N 5.70326728 7.86607379 5.64980586 -0.00482528 0.00229133 -0.00137441
N 2.15868341 7.26892842 8.56026001 0.00048159 -0.00668258 0.00630999
N 0.57448139 10.35370259 10.42421464 -0.00199387 -0.00133357 0.00035704
N 4.08536484 10.90848809 13.08226503 0.00429392 -0.00029388 0.00397967
N 5.53331373 8.09675358 10.66631144 -0.00364920 0.00572604 0.00091565
N 2.06007922 6.96084086 13.18216779 -0.00440230 0.00559766 -0.00029874
N 0.66966492 10.05199922 15.11335986 0.00391667 0.00179578 0.00747788
N 3.70915935 10.77588168 18.12136907 0.00507182 0.00045442 -0.00046662
N 5.31828269 8.12686496 15.59870764 0.00364383 0.00138215 -0.00238334
N 2.41510268 6.98347994 18.10909582 -0.00503455 -0.00177936 -0.00346461
N 0.49246411 10.04442988 19.98599622 0.00097322 -0.00128985 -0.00462922
N 4.05986454 10.70122038 22.75267583 -0.00365477 0.00372450 -0.00194362
N 5.56425982 7.85261878 20.13020895 0.00095688 0.00355609 0.00666354
N 2.38442268 7.10555566 22.34026085 -0.00508090 -0.00619699 -0.00594524
N 0.93095441 15.58470034 0.96049297 -0.00067049 0.00133508 0.00844545
N 4.49895782 16.30037657 3.44615211 0.00034359 -0.00094411 0.00240033
N 6.02628548 13.46722792 1.11416438 -0.00521954 -0.00054042 0.00412062
N 2.64857789 12.80959650 3.66184681 -0.00370582 -0.00304006 -0.00375978
N 0.86832404 15.56519959 5.74902265 0.00423999 -0.00486066 -0.00501283
N 4.27843144 16.70206947 8.54851092 0.00314511 0.00044048 -0.00413675
N 5.92759682 13.47862171 5.70293614 -0.00284716 -0.00460017 0.00260780
N 2.63391859 12.72204510 8.48221577 0.00197300 -0.00476629 0.00090765
N 1.07376117 15.67017328 10.23837135 -0.00050394 -0.00568716 -0.00365482
N 4.60873120 16.87962365 13.22845413 -0.00156133 0.00455858 -0.00066495
N 6.08104917 13.81659237 10.66740214 -0.00144942 0.00595252 -0.00190064
N 2.83093226 12.78768431 13.01253907 0.00705040 0.00144249 0.00292891
N 0.92031164 15.88443699 15.29348266 0.00086250 0.00488399 0.00253726
N 4.64636328 16.64331658 17.91199594 -0.00121422 -0.00038734 0.00401227
N 6.13245924 13.74580264 15.08145639 0.00130995 0.00273974 0.00208025
N 2.51556163 12.71977864 17.85767005 0.00011865 -0.00194871 0.00295416
N 1.08464016 15.41072602 20.00627946 -0.00138003 -0.00005631 -0.00511506
N 4.51102395 16.30808039 22.65560870 -0.00093869 -0.00365962 -0.00216244
N 6.13559780 13.51462909 19.99891646 -0.00342478 0.00522877 -0.00611085
N 2.66581815 12.60893150 22.67852338 0.00248071 -0.00339704 -0.00137410
N 1.52208631 21.34086188 0.61175784 -0.00564178 0.00439853 -0.00642252
N 3.92522566 23.28196003 3.58237113 0.00460224 -0.00039476 -0.00680359
N 5.53588764 19.81137565 0.89918026 0.00206651 0.00207832 0.00201743
N 3.11692622 18.09323881 3.62808079 -0.00033025 -0.00142702 -0.00725124
N 1.52581727 21.16097023 5.68812611 0.00013618 0.00338580 0.00253344
N 4.04246187 23.49879645 8.46298046 -0.00048330 -0.00391265 -0.00215230
N 5.49910386 20.20491408 5.54396240 0.00148896 -0.00174699 0.00262210
N 2.76332611 18.30372607 8.41650358 0.00162415 -0.00296589 0.00198285
N 1.43051153 21.09818665 10.48500809 0.00359650 -0.00296879 -0.00805440
N 4.13895369 23.37394321 13.10044379 0.00089266 -0.00184194 -0.00064986
N 5.39418406 20.18677557 10.37150880 0.00005640 0.00252069 -0.00472643
N 2.99685452 18.51870190 13.30575251 -0.00311821 -0.00080839 -0.00307583
N 1.26338970 21.35785310 15.06606596 0.00013828 0.00002624 0.00191311
N 4.15354099 23.67062909 17.41649927 0.00329585 0.00187900 0.00021425
N 5.39498563 20.64909007 15.28932001 0.01013034 0.00134400 -0.00160818
N 2.79960733 18.04274076 17.91679469 -0.00314765 0.00215668 0.00799093
N 1.43095716 21.32337415 19.91893364 -0.00060506 -0.00797245 -0.00552539
N 4.35177135 23.50316278 22.38045118 -0.00091268 -0.00364237 0.00135745
N 5.26560108 20.35904723 19.99400744 0.00134254 0.00232948 -0.00213319
N 2.74601414 17.74981489 22.51676927 -0.00511509 0.00440249 0.00171946
N 1.03367164 28.08301129 1.00333566 0.00551537 0.00273137 0.00095358
N 3.49128636 29.61565121 3.49896063 0.00153130 -0.00184068 0.00001942
N 5.15768907 26.55392202 0.99377699 0.00091041 0.00189151 0.00884507
N 1.93472869 24.33602124 3.67020809 0.00134152 -0.00362920 0.00201537
N 0.81047089 28.11594539 5.70272035 0.00086378 0.00461772 -0.00096144
N 3.37261830 29.62179343 8.50483179 -0.00444826 0.00338431 -0.00034554
N 4.70456751 26.59248991 5.42053492 -0.00949210 -0.00076106 0.00103341
N 2.02456333 24.60633451 8.21872947 -0.00322158 -0.00106162 -0.00235498
N 0.55093202 27.99343411 10.54526516 -0.00298565 0.00143864 0.00056001
N 3.24720850 29.72380283 13.39763803 -0.00176607 -0.00513701 -0.00341398
N 4.37643599 27.23027717 10.28375923 -0.00061133 -0.00113838 0.00080684
N 2.05310134 24.36921912 12.98161512 0.00017617 -0.00405054 0.00417485
N 0.81136415 28.34701840 15.15293171 0.00008377 0.00117261 0.00186438
N 3.75909491 29.84312656 17.92345481 0.00602244 -0.00363057 0.00552506
N 4.79536461 26.82474451 14.95438160 0.00155791 0.00111959 0.00106739
N 2.13797253 24.73315869 17.73869775 -0.00266445 0.00585908 0.00210086
N 0.93586771 27.90539903 19.77982806 0.00252283 0.00470222 -0.00115449
N 3.47366811 29.76274834 22.64756984 -0.00800435 -0.00057162 -0.00578563
N 5.06791266 26.55874846 19.55804688 -0.00143282 -0.00369774 -0.00351907
N 2.33110308 24.43937451 22.50803753 0.00240085 0.00322204 0.00003955
N 6.78756952 4.24216195 1.10294163 0.00192894 -0.00069770 0.00162007
N 10.18975738 4.96516060 3.97151149 0.00110609 0.00406704 -0.00449082
N 12.01928020 1.96745304 0.91552074 0.00702239 -0.00413959 0.00021070
N 8.55748876 0.88323943 3.92865523 -0.00106745 -0.00458183 -0.00234098
N 6.70137732 4.02761464 5.58550060 0.00039615 0.00059486 0.00185044
N 10.43124656 5.05525546 8.35358643 -0.00076986 -0.00593384 0.00124459
N 11.55154018 2.11469893 5.75305542 -0.00127104 0.00082910 0.00187848
N 8.62610931 1.04734615 8.39038672 -0.00212686 0.00124282 -0.00747277
N 6.86197848 4.13999755 10.23396761 -0.00166455 -0.00342099 -0.00336751
N 10.39596102 5.29647701 13.28910494 -0.00390930 -0.00379178 0.00166444
N 12.06820933 1.67171917 10.58931488 -0.00307966 -0.00322521 -0.00041593
N 8.44134698 0.93584896 13.24531115 -0.00402793 -0.00441667 0.00107359
N 7.03201140 4.25555154 15.07972489 0.00029169 0.00690530 -0.00816312
N 10.12354399 4.85582370 18.17377495 0.00176456 -0.00829280 -0.00038586
N 11.89938261 1.89891859 15.41877091 0.00082514 -0.00130073 -0.00608711
N 8.47459943 0.99667446 17.68436776 -0.00351036 0.00238473 0.00292968
N 6.90445235 4.06755156 20.06312866 -0.00026974 -0.00594494 0.00057005
N 10.16212691 4.91153308 23.03808513 -0.00462158 0.00158569 -0.00392390
N 11.92425479 1.99646819 20.13849908 -0.00296934 0.00454558 -0.00096906
N 8.50018278 0.90071314 22.63383548 0.00134486 -0.00218385 0.00554143
N 7.20021414 9.53448171 1.24630198 -0.00165699 0.00394457 -0.00187655
N 10.64980476 10.53147014 3.92599623 -0.00033625 -0.00310537 0.00176714
N 12.19986377 7.80693303 1.05902548 -0.00708760 -0.00193627 -0.00495539
N 8.80908610 6.86430110 3.98567417 0.00206064 -0.00437150 -0.00006761
N 7.19949547 9.72872892 5.68628988 -0.00313985 0.00349084 -0.00340329
N 10.85704936 10.62161378 8.59153270 0.00245508 0.00211336 0.00371366
N 12.20425983 7.55576490 5.76425102 -0.00090260 -0.00182753 0.00032585
N 9.06305276 6.97533092 8.58999676 0.00015109 -0.00203299 0.00106046
N 7.13950003 9.83973639 10.70465024 0.00196722 0.00478741 -0.00118543
N 10.50476325 10.73272185 13.24674285 -0.01011362 0.00151597 -0.00743952
N 12.18648997 7.62317101 10.71248746 -0.00046745 -0.00468339 0.00410851
N 8.96617300 7.14323747 13.26841102 0.00115997 -0.00622770 0.00043384
N 6.96289472 9.69372481 15.31716671 0.00223679 -0.00452120 0.00527857
N 10.83621154 10.68566893 17.98350661 -0.00303326 0.00106254 0.00152978
N 12.42372148 7.31798493 15.38162644 -0.00051819 0.00443252 0.00497523
N 9.22962408 7.00447582 18.36207398 -0.00223835 -0.00689663 0.00064483
N 7.00218126 9.64123235 20.19504501 0.00213919 0.00155289 -0.00095516
N 10.91695712 10.78376126 22.61297611 -0.00099979 0.00555788 0.00535226
N 12.35780174 7.41821630 20.03409550 0.00212191 0.00605455 -0.00487857
N 9.04028783 6.83685123 22.68952886 -0.00257043 0.00100191 -0.00233655
N 7.63986835 15.10480524 1.04368981 -0.00026308 -0.00405451 -0.00024398
N 10.33734442 17.44587578 3.65242572 0.00072800 0.01064314 -0.00138930
N 11.60578988 14.24543579 0.93939425 -0.00042741 0.00836189 0.00279555
N 9.23438222 12.24917306 3.79562083 -0.00263419 -0.00290933 0.00030728
N 7.67152397 14.97244621 5.80438072 -0.00023310 0.00109448 0.00044908
N 10.35123150 17.53001941 8.61672461 0.00112564 0.00633108 -0.00574599
N 11.72420559 13.88379135 5.66996133 0.00072834 -0.00749405 0.00109521
N 9.06803571 12.00873237 8.57696493 -0.00262526 0.00088353 0.00034082
N 7.64704470 15.49182945 10.28381905 0.00202408 0.00022732 -0.00114346
N 10.25811915 17.58344334 13.30023575 -0.00445116 0.00158265 -0.00572313
N 11.66627828 14.04267634 10.55189403 0.00341459 -0.00094602 -0.00517317
N 9.00021662 12.29015268 13.13280945 0.00438249 0.00478533 0.00708731
N 7.62821016 15.39124588 15.15966932 -0.00240794 0.00192037 0.00488723
N 10.33597751 17.47918132 17.92920202 -0.00337293 0.01187132 0.00107901
N 11.48365647 14.27031500 15.37811639 0.00020245 -0.00418635 -0.00426313
N 9.13978459 12.13393613 17.85866856 0.00137342 -0.00111287 0.00315245
N 7.54408892 15.24830562 20.01484791 0.00669918 0.00020225 -0.00058877
N 10.48329054 17.71476744 22.49979151 0.00370622 -0.00289006 0.00707580
N 11.48370792 14.36502201 20.18769564 -0.00327017 0.00129610 0.00093482
N 8.90477123 11.94173813 22.85428626 -0.00027608 0.00158237 -0.00066396
N 6.99544808 21.58782892 1.07256568 -0.00097422 -0.00678941 -0.00653903
N 9.70602528 23.69529964 3.55520132 0.00052577 0.00093922 0.00438560
N 10.99531132 20.78965058 0.91899694 0.00243806 -0.00163436 0.00739692
N 8.36009867 18.55785734 3.77925117 0.00398412 -0.00223852 -0.00367404
N 6.98569310 22.00939913 5.64891573 -0.00330407 -0.00393556 -0.00509724