2000
Time=3000.00000000 pbc="T T T" Lattice="30.88790664 0.00000000 0.00000000 0.00000000 30.01678667 0.00000000 0.00000000 0.00000000 23.69173806" energy=-12032.44345880 virial="-71.98398701 23.30677757 -14.01093260 23.30677757 -58.02334951 30.60449312 -14.01093260 30.60449312 -24.14022325" stress="-0.00119065 0.00102915 -0.00055686 0.00102915 -0.00070163 0.00134803 -0.00055686 0.00134803 0.00267742" Properties=species:S:1:pos:R:3:vel:R:3
C 30.40389501 3.67883785 1.67296472 -0.00038272 0.00637535 0.00511581
C 2.63589364 0.54028474 3.00162664 -0.00134616 0.00027648 -0.00126721
C 30.38661417 3.44650844 6.36602557 -0.00331364 -0.00138147 0.00304029
C 2.56796917 0.45524338 7.74439784 -0.00120493 -0.00465732 -0.00537874
C 30.41883052 3.64182723 11.06667900 0.00513481 0.00429175 0.00258472
C 2.67769213 0.57785999 12.39264186 -0.00472747 0.00494475 -0.00320196
C 30.42048997 3.33799720 15.85226560 -0.00053032 0.00176420 0.00102672
C 2.59306358 0.52198437 16.99862274 0.00001767 -0.00347683 -0.00003782
C 30.29711783 3.85522643 20.70501877 0.00014033 -0.00269991 0.00023492
C 2.69565529 0.50848951 21.98701272 -0.00203113 -0.00368505 -0.00241666
C 30.55637832 9.20890369 1.81433187 0.00308928 0.00904400 -0.00131544
C 2.83414428 6.21950742 3.07112702 0.00172046 0.00309591 -0.00401205
C 30.57262321 8.98156656 6.52744916 0.00477412 -0.00341399 0.00371630
C 2.98009245 6.23261755 7.65375925 -0.00807181 -0.01003544 -0.00101049
C 30.73618070 9.02944730 11.30407497 0.00427554 -0.00229312 -0.00025019
C 2.96564517 6.08524736 12.48874761 -0.00169072 -0.00097154 -0.00175447
C 30.69595099 9.16829293 16.08189049 0.00664404 -0.00258415 0.00478206
C 2.91028878 6.23343611 17.11723697 -0.00178859 0.00119007 0.00338949
C 30.56740745 9.11044029 20.77516592 -0.00254036 0.00183103 -0.00006734
C 2.88122654 6.26629012 21.95730698 -0.00180662 0.00138687 0.00510322
C 0.12672247 14.91868860 1.72994283 0.00210847 -0.00356291 0.00160518
C 3.30540546 11.79712035 2.96236824 -0.00086682 -0.00071045 0.00637407
C 0.05847914 14.83787072 6.43097682 0.00024619 -0.00085067 0.00571463
C 3.39470790 11.80064244 7.72124943 -0.00332823 -0.00244912 -0.00449920
C 0.01176195 14.89841182 11.27272781 -0.00383141 -0.00546667 -0.00786458
C 3.25568869 11.88579917 12.63136880 0.00493742 0.00245543 0.00433057
C 0.08308742 14.87344844 16.02617071 -0.00549881 -0.00172806 0.00128279
C 3.21641454 11.95629835 17.43244164 0.00118476 -0.00152067 -0.00465269
C 30.78076043 14.83418266 20.67847802 0.00157763 -0.00736633 -0.00681117
C 3.14796727 11.76494901 22.10941057 0.00421969 -0.00077345 -0.00346513
C 0.58988545 20.49710332 1.78923968 0.00459331 0.00443294 -0.00365869
C 3.45576875 17.37926872 2.98891438 0.00015049 -0.00354126 0.00333076
C 0.56379628 20.52940007 6.50712502 0.00135010 0.00225419 -0.00109771
C 3.34128437 17.26714498 7.78859573 0.00233879 0.00461546 0.00166278
C 0.58923258 20.60390363 11.30077190 -0.00327169 -0.00316093 0.00473306
C 3.57137764 17.59281942 12.45758295 0.00414499 0.00139909 0.00706140
C 0.69975217 20.64365305 15.99422214 0.00075556 -0.00204555 0.00397745
C 3.59181166 17.79345121 17.37514449 -0.00409599 0.00744788 0.00345896
C 0.51997610 20.55638645 20.61344328 -0.00147283 0.00344631 0.00207254
C 3.48312696 17.25049365 22.04873657 0.00594284 0.00074352 -0.00578945
C 30.84001080 26.99129138 1.76927455 -0.00073034 -0.00121145 -0.00454703
C 3.00968128 23.81799425 2.92986794 -0.00661026 0.00952547 -0.00348021
C 30.73607757 27.02949210 6.37691793 0.00215887 0.00170910 -0.00015314
C 3.12926868 24.03307330 7.60284375 0.00031636 0.00486461 -0.00337665
C 0.10510022 26.94369214 11.09091308 -0.00323203 0.00539516 -0.00156415
C 3.17880633 24.01051903 12.38453274 0.00315044 -0.00344494 -0.00315717
C 0.24261370 27.10391171 15.85399287 -0.00069374 -0.00111741 0.00177468
C 3.16571880 24.09814008 17.11119511 -0.00005098 -0.00045957 -0.00447778
C 0.06530396 27.05791244 20.62827712 -0.00660520 0.00247388 0.00039392
C 3.17987962 24.18080303 21.91310702 0.00394516 -0.00706228 -0.00611538
C 6.10346527 3.53446002 1.64156534 -0.00066178 -0.00293099 -0.00104842
C 9.19156711 0.20892993 2.90920348 0.00087355 0.00058169 -0.00034419
C 6.06580175 3.24226581 6.34105296 -0.00380288 -0.00057785 0.00679788
C 9.15902297 0.26761492 7.68147180 0.00108753 0.00472869 0.00397400
C 6.04549103 3.35165654 11.22340235 -0.00244192 -0.00150823 -0.00211363
C 9.25501282 0.08970610 12.35343809 -0.00187376 -0.00696264 -0.00187599
C 6.17342773 3.27499615 15.79021776 -0.00590397 -0.00563901 0.00595455
C 9.18398318 0.13716943 17.16695504 -0.00036735 0.00373654 -0.00478355
C 5.96262174 3.21859683 20.59828912 -0.00481697 0.00065267 0.00096084
C 8.78231093 0.09511137 21.94000901 0.00032917 -0.00667818 -0.00007643
C 6.38029496 9.02963685 1.79250323 0.00493616 -0.00671665 -0.00750347
C 9.27108204 5.91064566 3.17240669 -0.00433370 -0.00776107 -0.00095902
C 6.29014522 8.91824097 6.39889975 -0.00556706 0.00047763 0.00543681
C 9.22089068 5.85583826 7.79469938 -0.00944208 0.00223255 0.00080819
C 6.25305286 8.99957126 11.16106281 -0.00329077 -0.00031851 -0.00334791
C 9.50888086 5.96992524 12.49483597 0.00227991 0.00231874 -0.00329606
C 6.41186179 9.03942012 15.93397716 0.00008329 0.00579283 0.00675972
C 9.54649192 6.05579987 17.29479405 -0.00294121 0.00173196 0.00100196
C 6.18690230 8.82533557 20.62449313 -0.00119278 -0.00398173 -0.00445984
C 9.39467837 6.01607337 21.93649605 -0.00656238 0.00071430 0.00157925
C 6.87071487 14.51449507 1.82965419 0.00432235 -0.00497997 0.00066341
C 9.79611431 11.33894232 3.06488700 0.00217767 -0.00341977 -0.00602417
C 6.73295045 14.25952159 6.61331719 -0.00003519 0.00554621 -0.00333070
C 10.00846154 11.39512777 7.83597991 -0.00086120 0.00136887 -0.00241443
C 6.70009019 14.47957901 11.22307149 0.00190666 0.00154021 0.00852754
C 9.79087531 11.51012522 12.59659805 -0.00938500 -0.00419902 -0.00051727
C 6.62383728 14.54387829 16.05299978 0.00001711 -0.00437043 -0.00284331
C 9.69036998 11.62524407 17.32894009 0.00212315 -0.00101429 -0.00599659
C 6.70626525 14.41516051 20.72185535 -0.00565496 0.00637207 0.00459743
C 9.65541303 11.32959944 21.93567705 -0.00117428 0.00062534 -0.00051547
C 6.20050408 20.87387262 1.80424282 0.00379705 0.00028095 0.00050963
C 9.24839271 17.95380077 3.13660695 0.00534674 0.00122535 -0.00851708
C 6.10897353 20.87352731 6.39628980 0.00743216 0.00168627 -0.00067159
C 9.35729209 17.89500301 7.69219931 0.00442124 -0.00036183 0.00277885
C 6.20844302 20.91797183 11.35149914 0.00266307 0.00345535 0.00240530
C 9.05060120 17.96359573 12.66055926 -0.00043106 -0.00502840 -0.00325648
C 6.13331350 21.18224447 16.10863178 -0.00675941 0.00106040 0.00413801
C 9.34930818 17.98630677 17.30084263 -0.00139099 0.00052415 0.00059975
C 6.35370751 20.82331639 20.79279840 0.00003467 -0.00258741 -0.00171962
C 9.18079324 17.77472882 22.06891596 0.01116947 0.00221549 0.00059358
C 5.58507530 27.47179394 1.80383241 -0.00101969 0.00306732 -0.00332718
C 8.76452737 24.44349368 2.93733751 0.00083254 0.00001608 0.00272638
C 5.33876006 27.51374875 6.39757162 -0.00291416 0.00490619 -0.00450336
C 8.56121469 24.55675077 7.69210884 0.00141413 0.00282523 -0.00580832
C 5.81940705 27.51325937 11.11366731 0.00261044 -0.00169686 -0.00315819
C 8.70621276 24.35723009 12.37081775 0.01005219 -0.00499897 -0.00380878
C 5.63040694 27.83225810 15.67568195 0.00106622 -0.00350560 0.00500508
C 8.93599163 24.48831216 17.15668692 -0.00236700 -0.00246904 0.00361485
C 5.57802982 27.56773663 20.43438094 -0.00538079 -0.00351430 -0.00249357
C 8.74495096 24.37344486 21.92488181 0.00216641 -0.00601757 -0.01031851
C 12.15291404 2.97598392 1.69312734 -0.00014808 0.00268789 0.00473418
C 15.51429951 29.84164355 3.04756168 0.00339227 -0.00660573 0.00065511
C 12.44967034 2.81347900 6.37001065 0.00015605 0.00591340 -0.00471133
C 15.48542885 29.97620522 7.64283943 -0.00797413 0.00143031 0.00286557
C 12.60254756 2.77068463 11.22156853 -0.00334706 0.00022289 0.00663398
C 15.29167782 29.90946169 12.46589878 -0.00087344 -0.00290129 -0.00129542
C 12.59969539 2.89565054 15.91352919 -0.00333810 0.00217775 0.00420045
C 15.72031724 29.98420998 17.14641916 -0.00921872 -0.00447221 0.00113684
C 12.54317621 2.92326626 20.62503739 0.00183898 -0.00316619 0.00145377
C 15.56951798 0.08839587 21.99833650 -0.00140300 0.00007769 -0.00231814
C 12.92627615 8.43554781 1.66910770 0.00256721 -0.00629758 0.00098015
C 16.03586828 5.68333283 2.96856649 -0.00144156 0.00051376 -0.00647495
C 13.23525816 8.46418651 6.52861695 0.00188079 -0.00142646 -0.00545885
C 16.13395322 5.65794666 7.66929817 0.00565026 0.00610558 0.00024082
C 12.87949853 8.52047216 11.24102365 -0.00356888 -0.00476990 0.00479663
C 16.20462721 5.39708741 12.38695675 0.00716592 -0.00173004 -0.00053373
C 13.09992926 8.49372096 15.92603287 0.00133040 -0.00488083 -0.00097637
C 15.88031302 5.34354476 17.23198115 -0.00170998 0.00342653 0.00728266
C 12.79498250 8.61964136 20.52982262 0.01057915 -0.00415048 0.00188915
C 15.76370650 5.67592582 21.97241253 0.00162006 -0.00319381 0.00066791
C 12.56089971 15.22091092 1.72544373 0.00057857 0.00086410 -0.00047355
C 15.30609459 12.04101065 2.95208379 0.00358119 -0.00027618 0.00289549
C 12.37829948 14.95174302 6.54337848 -0.00150152 0.00010314 -0.00004539
C 15.50718626 12.11025398 7.63595124 -0.00530667 -0.00127471 0.00061882
C 12.31901126 15.11086682 11.27807619 -0.00332220 -0.00335005 0.01054666
C 15.23132319 12.10489709 12.40349580 0.00134758 -0.00104172 0.00217233
C 12.54121911 14.94312185 16.01604236 0.00628387 0.00285572 -0.00237434
C 15.37628467 11.99340891 17.14615877 -0.00042637 0.00446988 0.00249739
C 12.42273774 15.02139733 20.72578804 0.00140606 -0.00671349 -0.00840477
C 15.39160668 11.92351729 21.92432081 -0.00063339 0.00018697 -0.01008853
C 11.77472847 21.32484291 1.53395908 0.00396301 0.00016532 0.00264613
C 14.94897696 18.61885552 2.97570723 0.00045102 -0.00226306 0.00015902
C 11.66102187 21.51967926 6.27062792 -0.00304203 0.00090222 0.00167225
C 15.00728046 18.34587769 7.74062945 0.00400448 -0.00884113 -0.00301422
C 11.86692282 21.32354005 11.03603999 0.00385221 0.00271529 -0.00095678
C 15.15868878 18.41946815 12.51550443 -0.00522032 0.00187882 -0.00270394
C 12.00303986 21.52540648 15.97643916 0.00008526 0.00393589 0.00273983
C 15.10510584 18.58876525 17.37824590 -0.00311271 0.00407719 0.00575130
C 11.76784640 21.55965279 20.74086208 -0.00249919 -0.00128758 0.00223284
C 14.96323662 18.46574528 21.99812777 -0.00081538 -0.00362114 -0.00305673
C 12.11855984 27.22035516 1.71546538 -0.01014240 -0.00855228 -0.00601934
C 15.42321353 24.04880879 3.00737604 -0.00256363 -0.00071984 0.00461732
C 12.16309165 27.06914834 6.28835314 -0.00245201 0.00021681 0.00369712
C 15.39982523 23.93461603 7.79905373 0.00023096 -0.00370655 0.00204099
C 12.12630134 27.05795631 10.95223379 0.00066550 0.00063015 -0.00423754
C 15.21307789 23.85106206 12.45286112 -0.00674032 -0.00097090 0.00133452
C 12.04558065 26.97069845 15.89604349 0.00072844 -0.00011614 -0.00346774
C 15.03767128 24.08663572 17.35226825 -0.00194456 -0.00004947 -0.00553836
C 12.26238974 27.13467310 20.74163895 -0.00077197 -0.00506885 0.00627022
C 15.24258990 24.24195663 22.03514898 -0.00336728 -0.00155860 -0.00158691
C 18.92215057 2.23865024 1.70761225 0.00034665 0.00329710 -0.00873387
C 22.15683770 29.37238688 2.86168376 -0.00078801 -0.00454422 -0.00582998
C 19.18874248 2.30155909 6.39036808 -0.00555699 0.00127748 -0.00291031
C 22.28128928 29.45601965 7.67449328 0.00064976 -0.00365608 0.01003133
C 18.96977330 2.48356787 11.09579015 0.00111522 0.00260632 0.00184611
C 22.04366890 29.42954391 12.31553447 0.00828597 -0.00726354 0.00190074
C 18.97467054 2.39341439 15.92788626 0.00019857 0.00077670 0.00315780
C 22.03388107 29.36335395 17.05105778 0.00218026 0.00143668 -0.00172547
C 18.91309465 2.32304633 20.55983546 0.00317929 0.00247445 -0.00044187
C 21.99676063 29.40235624 21.83961127 -0.00268232 -0.00152821 -0.00419962
C 18.45374220 9.10852540 1.71374433 0.00297803 0.00188935 0.00138545
C 21.71446337 5.90443710 3.07885792 0.00221273 -0.00136282 -0.00486605
C 18.71599088 8.86382979 6.45871171 -0.00214109 -0.00134299 0.00331421
C 21.67852901 6.09085653 7.73412174 -0.00072027 0.00046989 -0.00130953
C 18.63846580 8.74986407 11.21134840 -0.00103355 0.00191195 0.00003300
C 21.75364236 6.00006961 12.58783093 0.00241580 -0.00093716 -0.00093967
C 18.74763614 9.19375159 15.86688986 -0.00372121 -0.00282924 -0.00452398
C 21.64620553 5.75644016 17.33718932 -0.00374050 0.00288952 0.00473594
C 18.51343575 9.08644451 20.54502535 0.00458671 0.00356018 0.00309613
C 21.41075474 5.86761646 22.01942266 -0.00082799 0.00313765 -0.00081020
C 17.88811086 15.73428133 1.82770141 -0.00539347 0.00322892 0.00524210
C 21.06969093 12.53058136 3.04519391 0.00454917 -0.00401409 0.00256706
C 17.97068031 15.60815583 6.43143182 0.00377243 0.00365589 -0.00153589
C 21.06669898 12.54305719 7.87047720 0.00279468 0.00365477 -0.00358764
C 18.14201322 15.54703591 11.38388759 0.00365912 0.00215572 -0.00025049
C 20.95029055 12.48608851 12.48290274 -0.00245743 -0.00474678 0.00370455
C 18.12974238 15.67394791 16.00472446 0.00872801 -0.00152650 0.00301267
C 21.30353742 12.81455920 17.23946685 0.00003510 0.00058069 -0.00065816
C 18.05013133 15.49687844 20.73240119 -0.00266911 -0.00134664 -0.00258647
C 20.83126836 12.45206990 21.93212940 -0.00560753 0.00196528 -0.00139567
C 18.32111885 21.19286055 1.79098409 0.00439643 0.00235788 0.00779591
C 21.58011386 18.07184659 3.13260282 0.00748645 -0.00316186 -0.00289214
C 18.42170223 21.15779058 6.50328455 0.01835715 0.00408284 -0.00376140
C 21.40177141 17.97433006 7.87046553 0.00081516 0.00169524 0.00399179
C 18.59068378 21.11687741 11.20488851 -0.00326418 -0.00399549 0.00018721
C 21.51156123 18.28376738 12.68779966 0.00248317 0.00158676 0.00247366
C 18.42954687 21.44193808 15.96037405 0.00677739 -0.00061595 -0.00450840
C 21.43187061 18.16332012 17.37526895 -0.00157549 -0.00280497 -0.00169538
C 18.21370835 21.27029827 20.64463561 -0.00205223 0.00107556 -0.00548982
C 21.41008030 18.03553239 22.01232470 0.00113418 -0.00004750 -0.00508987
C 18.63313318 26.75462424 1.74761070 0.00181583 0.00530786 0.00061110
C 21.78496209 23.96065262 3.05148030 -0.00960554 -0.00076657 -0.00769201
C 18.71817634 26.88301821 6.45744471 -0.00514796 0.00000187 -0.00428082
C 21.68073364 23.87539991 7.64969971 0.00175845 0.00989918 0.00520648
C 18.74717667 26.86167977 11.06567979 0.00143009 -0.00159447 0.00413788
C 21.80777055 24.00343458 12.42498995 -0.00259301 -0.00230491 -0.00177652
C 18.56265290 26.72512581 15.74085979 0.00316340 -0.00316837 0.00006596
C 21.75159887 23.73411925 17.22056579 -0.00038611 -0.00036518 -0.00451084
C 18.75409944 26.63849051 20.51371267 0.00144068 0.00140409 -0.00351643
C 21.88329365 23.73250354 21.99670474 -0.00347783 -0.00232242 0.00136877
C 24.69197927 2.92784221 1.73937236 0.00187074 -0.00490723 -0.01064620
C 27.64367552 0.02433074 3.08356073 -0.00111393 -0.00182953 -0.00451061
C 24.68463744 3.04109464 6.36723042 0.00591010 0.00429418 0.00277179
C 27.86467709 30.01655804 7.83975739 -0.00707785 0.00325738 -0.00559718
C 24.80913621 2.94498839 11.07185136 0.00134874 0.00298854 0.00071479
C 27.95860185 29.84041071 12.46117053 -0.00816196 -0.00059993 -0.00445829
C 24.77635358 2.74211340 16.03703511 0.00067373 -0.00606066 -0.00060419
C 27.90484237 29.96964304 17.26170038 0.00586598 -0.00078003 -0.00804714
C 24.83506185 2.80553665 20.70444451 -0.00419339 0.00324594 0.00102962
C 27.96298006 0.11147580 21.90410402 -0.00535268 -0.00216505 0.00875745
C 24.21050435 9.38545527 1.76950703 -0.00281293 -0.00248141 0.00554188
C 27.08727153 6.52389624 3.06939896 -0.00369070 -0.00718751 -0.00010052
C 24.06550253 9.56921168 6.56404689 -0.00231973 0.00548725 -0.00086375
C 27.33878682 6.45950318 7.61944335 -0.00217549 0.00004714 -0.00430300
C 24.05959033 9.36899767 11.36031600 0.00340267 -0.00285615 0.00452543
C 27.33042918 6.41405071 12.52353438 -0.00100330 -0.00391065 -0.00286920
C 24.11552573 9.45667375 16.13750057 0.00284022 0.00247277 0.00189701
C 27.16641355 6.38877767 17.25233300 0.00471266 -0.00265949 0.00015800
C 23.91049182 9.57849967 20.75504408 0.00641183 -0.00307425 0.00182754
C 27.29885777 6.55728578 21.85164306 -0.00279476 -0.00252442 0.00046246
C 24.52422846 15.18876442 1.75462052 0.00290640 -0.00382090 0.00192853
C 27.66741242 12.01849303 3.11934048 0.00470984 -0.00264615 -0.00230832
C 24.60747814 15.19886737 6.53312863 0.00395444 0.00197922 -0.00805437
C 27.72739851 12.07986295 7.91845898 -0.00605093 0.00018116 -0.00148469
C 24.44817669 15.43133472 11.26690356 -0.00029183 -0.00274810 0.00485308
C 27.64696434 11.89931417 12.61672340 -0.00140565 -0.00249057 0.00251348
C 24.84508787 15.17129928 15.89103367 -0.00370661 0.00472589 -0.00101785
C 27.70313292 12.10269370 17.23549063 -0.00124869 0.00019680 0.00173706
C 24.64081744 15.20309217 20.73576137 -0.00353257 0.00699173 0.00435530
C 27.45234808 12.14859730 21.89909065 0.00138546 -0.00142080 0.00428911
C 24.91398035 20.88078539 1.78386844 -0.00059223 0.00305482 0.00136058
C 27.69294531 17.92641248 3.13230484 -0.00355727 -0.00744530 -0.00137869
C 25.07627748 20.78986914 6.54038278 0.00135329 0.00487726 -0.00307555
C 28.13310171 18.06426017 7.89457457 0.00568310 0.00435808 -0.00322966
C 24.86710889 20.97536248 11.19094502 -0.00346697 0.00303551 -0.00279082
C 27.88393263 18.03371245 12.64647861 -0.00158824 -0.00054656 -0.00131374
C 24.76244260 21.01917580 15.87033387 -0.00469116 0.00252475 0.00409239
C 28.07244738 17.88893754 17.31012917 0.00082070 0.00583875 -0.00061304
C 24.93500124 20.77349138 20.64947144 0.00342202 -0.00535711 0.00186306
C 27.87772326 18.02119100 22.02954227 0.00132873 0.00074087 0.00062221
C 25.21507310 26.64670211 1.77695324 -0.00117391 0.00444708 0.00271776
C 28.36336256 23.48794997 2.95510154 -0.00840151 -0.00772210 0.00302040
C 25.11287010 26.27122053 6.46647857 -0.00503640 -0.01125355 -0.00066827
C 28.26099174 23.62911801 7.68416879 -0.00003632 -0.00256091 0.00340488
C 25.35102361 26.52097894 11.18550797 -0.00378199 -0.00609303 0.00702855
C 28.27297464 23.54376767 12.59858110 -0.00379906 0.00485643 0.00239100
C 25.35343928 26.63809817 15.99565984 0.00443563 0.00131150 0.00237614
C 28.15368512 23.45914237 17.33327457 -0.00285054 0.00270080 -0.00082712
C 25.37032941 26.62134126 20.70028112 -0.00011937 0.00107787 -0.00115228
C 28.34017312 23.59698149 22.00059900 0.00100426 -0.00260917 0.00510757
N 0.40290880 4.48803785 1.06670595 -0.00237130 -0.00144218 -0.00059592
N 3.45824081 5.22318474 3.77558091 0.00153937 -0.00288392 0.00152169
N 5.31610634 2.61751806 0.96742676 0.00080014 0.00143516 -0.00173193
N 1.70572228 1.28582962 3.66967897 0.00273249 -0.00059134 0.00115887
N 0.21476348 4.32022199 5.65906735 0.00444216 -0.00291928 0.00559073
N 3.53487999 5.27568005 8.40821749 0.00277973 -0.00223302 -0.00464245
N 5.16623036 2.46340441 5.69459410 -0.00214098 -0.00313592 0.00193276
N 1.67415604 1.15512877 8.46306084 0.00032778 0.00415873 0.00509934
N 0.25974239 4.51546093 10.25754541 0.00182928 -0.00284079 0.00082552
N 3.64985943 5.23782607 13.23401268 0.00238877 -0.00064156 0.00078676
N 5.28236984 2.46238782 10.46333361 0.00037032 -0.00009252 0.00176650
N 1.78847216 1.32121360 13.10187464 -0.00559305 0.00101442 -0.00088600
N 0.27570306 4.29580268 15.24540841 -0.00331950 -0.00010702 0.00819987
N 3.60042636 5.31489141 17.84232624 0.00229735 -0.00031434 -0.00840715
N 5.32557984 2.47544475 15.10002348 0.00773372 -0.00147984 0.00100787
N 1.88295638 1.29046777 17.84355937 0.00829464 -0.00158154 0.00087149
N 0.31002648 4.55050971 19.99180127 0.00515440 -0.00169129 0.00017946
N 3.75930339 5.43199897 22.64168999 -0.00199949 -0.00182071 0.00318004
N 5.18125102 2.41234779 19.77361630 -0.00214504 -0.00221535 -0.00074110
N 1.95533931 1.40339599 22.68689109 -0.00372687 -0.00095756 0.00443952
N 0.46928423 10.07854989 1.07961536 -0.00354013 0.00924763 0.00170697
N 3.91875428 10.74400978 3.57064733 -0.00034949 0.00153011 0.00071977
N 5.53765639 8.12222544 1.20517256 0.00693370 0.00117866 -0.00471424
N 2.37266912 7.20299227 3.81705295 0.00012468 0.00023922 0.00497001
N 0.43174086 9.97810675 5.98041109 0.00023719 -0.00310488 0.00579016
N 3.87454527 10.78860698 8.46060794 0.00267202 0.00041430 0.00206050
N 5.58671683 7.99795887 5.65143969 0.00032544 -0.00513052 0.00586185
N 2.27998449 7.24914249 8.38255660 -0.00568789 0.00134660 -0.00120520
N 0.31886613 10.05356992 10.47972742 -0.00176404 -0.00030100 -0.00195720
N 4.07620273 10.98554516 13.28993330 0.00429061 -0.00461916 -0.00063353
N 5.65586867 8.15253598 10.30037063 0.00232785 0.00066666 -0.00141733
N 2.51075413 7.18403263 13.11087532 0.00508678 0.00343939 -0.00425529
N 0.75180383 9.84469522 15.36657791 0.00076099 -0.00166514 -0.00783403
N 3.98393304 11.07215860 18.05768750 -0.00286932 0.00309457 0.00460092
N 5.55664984 8.25330493 15.29208986 -0.00450154 -0.00543490 0.00194812
N 2.37187418 7.21621883 17.86677219 -0.00599356 -0.00321678 -0.00401655
N 0.45662279 10.02279650 20.09398754 0.00197738 -0.00313524 -0.00029681
N 3.73963235 10.73903246 22.81613378 0.00317820 -0.00120804 -0.00852586
N 5.46988794 7.98811768 19.97044301 -0.00191883 0.00523339 0.00333007
N 2.16631271 7.18559823 22.68641287 -0.00214976 -0.00106188 -0.00269700
N 0.84690825 15.71931807 0.93272424 -0.00061805 -0.00188358 -0.00401665
N 4.39926048 16.61473815 3.59679624 0.00350373 0.00039236 -0.00259571
N 6.06874060 13.72922454 0.98027882 -0.00132228 0.00131097 0.00304773
N 2.76093669 12.70636536 3.81996214 0.00254793 -0.00231478 0.00633296
N 0.79198866 15.71866716 5.72400875 -0.00063175 0.00066447 -0.00193149
N 4.33971888 16.69193921 8.46258590 0.00033304 -0.00136436 0.00005003
N 5.88942728 13.58234961 5.79759360 0.00014880 -0.00300489 0.00391461
N 2.62201628 12.66312720 8.39878065 -0.00302994 0.00209793 -0.00241597
N 0.75435976 15.62738148 10.35197174 0.00616942 0.00195637 0.00064861
N 4.39848849 16.76212242 13.06966406 -0.00369766 0.00152996 -0.00167439
N 5.95892942 13.59032967 10.49618157 -0.00348156 -0.00551058 -0.00228308
N 2.44217407 12.69023955 13.41819207 -0.00161061 0.00146719 -0.01096105
N 0.93496418 15.71131121 15.38475040 -0.00237692 0.00038432 -0.00151574
N 4.49546717 17.04857475 18.01835124 -0.00192320 -0.00272989 0.00389246
N 5.80795886 13.81658293 15.24782205 0.00730251 -0.00050976 -0.00278252
N 2.54411067 12.84442618 18.18148716 0.00102235 -0.00049958 -0.00086108
N 0.71255002 15.69857369 20.08413563 0.00122572 0.00604958 0.00412501
N 4.55988538 16.78081793 22.81437558 -0.00456095 0.00098456 -0.00700408
N 5.84204952 13.75938656 19.90572781 0.00219377 -0.00182268 0.00024117
N 2.65364892 12.79427653 22.77198782 -0.00289068 -0.00182821 0.00072160
N 1.28607611 21.26314163 0.91291450 0.00004634 0.00361691 -0.00213943
N 3.93208364 23.15439548 3.68903203 -0.00399909 0.00224240 -0.00463747
N 5.32706049 19.99117341 1.24596454 -0.00161546 0.00215470 0.00377627
N 2.69672911 18.10025110 3.88899460 -0.00346466 0.00140758 0.00262549
N 1.42473553 21.21160620 5.73952553 -0.00923839 -0.00380123 0.00499021
N 4.08178892 23.41475137 8.39762601 -0.00040783 0.00322577 0.00310084
N 5.19570811 20.10077971 5.77148671 -0.00029981 -0.00361913 0.00063145
N 2.51767800 18.12503752 8.48167487 -0.00265246 0.00071132 -0.00011656
N 1.49599295 21.38146282 10.59015544 -0.00440609 -0.00220549 -0.00647050
N 4.21225562 23.55504012 13.11807235 -0.00089210 0.00179619 -0.00429156
N 5.27787014 20.14104835 10.66110572 -0.00174717 -0.00001156 0.00446804
N 2.70984105 18.27213133 13.27963524 -0.00492245 0.00233185 0.00118647
N 1.40916282 21.49356229 15.16296249 -0.00075163 0.00055835 -0.00192081
N 4.33778048 23.66322846 17.64363573 0.00143272 -0.00208440 -0.00673193
N 5.19454961 20.46710272 15.33255688 0.00124178 0.00577692 -0.00226578
N 2.63492173 18.42665950 18.07586002 -0.00003056 -0.00001524 0.00043251
N 1.36749144 21.38270805 20.00521349 -0.00455112 -0.00557467 0.00010181
N 4.19544683 23.58451473 22.64341340 0.00195989 0.00688090 0.00155745
N 5.45744807 20.14280932 20.01364762 0.00306654 0.00424280 0.00662819
N 2.66158740 18.14366533 22.62632430 -0.00961117 0.00172596 0.00396205
N 0.90635537 27.75675139 1.17493867 -0.00311207 -0.00013234 0.00237057
N 3.46849829 29.75210906 3.75079541 0.00336345 0.00383490 0.00211156
N 4.71792974 26.69183758 1.13003020 -0.00201128 -0.00480640 -0.00154494
N 2.19241980 24.55369378 3.68683422 0.00859201 -0.00064791 -0.00096002
N 0.72942285 27.72539401 5.59746860 -0.00008874 -0.00387665 0.00241515
N 3.28402504 29.54352217 8.46955403 -0.00076478 0.00664637 0.00239362
N 4.56741028 26.68624154 5.70447333 -0.00644064 -0.00150678 0.00438491
N 2.20784834 24.73097034 8.45249786 0.00537839 -0.00191732 0.00904160
N 0.74719317 27.83315726 10.31884256 0.00205199 0.00232552 -0.00096368
N 3.45421047 29.74753399 13.10999848 -0.00072051 0.00532902 0.00099735
N 4.98441185 26.74329264 10.36880603 0.00847930 0.00661181 -0.00059705
N 2.10892928 24.60848669 13.04986551 -0.00250685 0.00542895 0.00548116
N 0.96257501 27.96165403 15.10188139 -0.00061343 -0.00359220 -0.00472004
N 3.47513938 29.67138962 17.54416756 -0.00482811 -0.00292797 0.00162200
N 4.70259397 27.24563332 14.93638889 -0.00174058 -0.00008088 -0.00272844
N 2.25548809 24.66344699 17.92852887 -0.00361424 -0.00095939 0.00444157
N 0.89611030 27.76864441 19.87010064 0.00184127 -0.00009965 0.00206211
N 3.31773267 29.60575231 22.73890391 0.00288472 -0.00253952 -0.00316200
N 4.81104121 26.71370634 19.62591677 0.00172884 0.00359936 0.00022948
N 2.12721169 24.60113528 22.64456888 0.00528047 0.00407889 0.00444012
N 6.82212977 4.47270948 0.90256738 0.00371643 0.00348865 -0.00369525
N 9.98961912 5.00890866 3.91606161 -0.00216332 0.00284652 -0.00045063
N 11.43479691 2.14110916 0.92044008 0.00225408 -0.00416984 0.00633241
N 8.53597832 1.13517097 3.69518906 0.00089761 0.00525615 0.00243612
N 6.82855820 4.03678276 5.55183816 0.00393922 0.00476658 0.00227683
N 10.00321548 4.98403326 8.50026031 -0.00449103 -0.00768210 0.00331842
N 11.76519906 1.88947873 5.65932427 -0.00110584 -0.00074325 0.00274855
N 8.54272481 1.25240706 8.36187809 0.00069921 -0.00177085 0.00328053
N 6.75890435 4.22140026 10.48404171 0.00219371 0.00190673 -0.01254638
N 10.25690963 4.93867687 13.02776273 -0.00046486 0.00357515 -0.00376819
N 11.79242472 1.92401359 10.52852439 -0.00409999 -0.00183014 0.00217901
N 8.67648594 1.12407212 12.98652661 -0.00143758 0.00028062 0.00387681
N 6.95156076 4.13215036 15.02455782 -0.00503232 0.00537138 0.00124228
N 10.08212734 5.02482084 17.96462375 0.00194767 0.00560034 0.00095601
N 12.04075552 2.03209573 15.06862676 -0.00440972 0.00234915 0.00201172
N 8.51759237 1.14852832 17.80246441 0.00064264 -0.00564120 0.00143813
N 6.83355418 4.06347195 19.96869927 0.00225703 -0.00274218 -0.00612298
N 9.91468182 5.02176652 22.73588246 -0.00451560 -0.00460487 0.00325260
N 11.81950474 1.97710922 19.93570906 -0.00250857 0.00331510 0.00766345
N 8.11806015 1.06425516 22.68531453 0.00248355 -0.00074511 -0.00205623
N 7.09939003 9.77611279 0.92258682 0.00486832 0.00570491 -0.00005770
N 10.66096328 10.62632870 3.83585740 0.00153087 -0.00168538 -0.00428892
N 12.08787871 7.56341885 1.06488590 0.00848259 -0.00278728 0.00468379
N 8.59740350 6.87907431 3.84139289 0.00020607 0.00062055 -0.00783795
N 6.97860483 9.77217446 5.67822784 -0.00141786 -0.00085639 0.00088746
N 10.66492139 10.48634013 8.56999227 -0.00554756 0.00471012 -0.00164345
N 12.59704364 7.59233252 5.77957780 -0.00202633 0.00047799 0.00302865
N 8.79014763 6.93650096 8.49658900 -0.00422514 -0.00234412 -0.00294799
N 6.89231601 10.00770323 10.50388063 -0.00541049 0.00025130 -0.00010431
N 10.49398667 10.63162560 13.33229723 0.00143144 0.00121044 -0.00239385
N 12.03076521 7.67287066 10.71176646 -0.00284569 0.00165924 -0.00170779
N 9.00706707 6.82652639 13.39712885 -0.00415850 -0.00033244 -0.01108961
N 7.27521406 9.78182019 15.12715443 0.00513390 0.00135523 0.00531892
N 10.69725262 10.98412517 17.98502164 0.00136904 0.00498134 0.00346206
N 12.20161714 7.79979125 15.21695452 0.00325369 0.00128626 -0.00149519
N 8.86663885 6.98891094 18.04756789 -0.00460697 0.00756289 0.00346260
N 6.92334943 9.72021170 19.90496642 0.00141470 0.00688040 0.00613581
N 10.54599320 10.51692022 22.65296369 -0.00178448 0.00224900 0.00489251
N 12.09888054 7.67763751 19.82311242 -0.00087991 0.00202705 -0.00239519
N 8.65027083 6.93306017 22.60512115 0.00027021 0.00317074 0.00235592
N 7.70340552 15.33534185 1.13446099 0.00319716 -0.00248739 0.00007708
N 10.29134538 17.47546040 3.88432747 -0.00373925 0.00646889 0.00456459
N 11.70747585 14.56791433 0.91611763 -0.00283777 0.00380932 0.00036330
N 9.00119150 12.18216960 3.74024556 0.00198024 0.00437987 0.00350287
N 7.64674753 14.97695754 5.90510439 0.00122371 0.00062221 0.00695527
N 10.15900588 17.16922233 8.49576446 0.00626401 -0.00206484 -0.00950457
N 11.53566880 14.19539832 5.86210817 0.00562937 0.00402393 -0.00130672
N 9.27700361 12.26775913 8.56821157 -0.00638519 -0.00332925 -0.00267000
N 7.49990699 15.30316512 10.41494634 0.00181961 0.00814601 -0.00047023
N 10.11171467 17.47476790 13.36968781 -0.00442737 -0.00163679 -0.00297445
N 11.65963919 14.28597118 10.46837864 -0.00502464 0.00122036 0.00064839
N 8.97455917 12.33737128 13.37621499 -0.00087636 -0.00349344 0.00235117
N 7.55748714 15.26493176 15.35507654 0.00038352 -0.00701153 0.00318176
N 10.28839409 17.35961101 18.03242993 -0.00102061 0.00339907 -0.00403814
N 11.61216249 14.30392123 15.23937520 0.00033285 0.00013952 0.00218288
N 8.80255584 12.29911903 18.07237819 -0.00270444 0.00600331 0.00021456
N 7.54904586 15.34239681 20.11568196 0.00170747 -0.00039338 0.00083948
N 10.18884559 17.06958379 22.70051640 0.00062071 0.00117051 0.00118859
N 11.57238408 14.26767553 19.99853365 0.00221432 -0.00218775 0.00490263
N 8.99268685 12.26379300 22.74450337 0.00178296 -0.00285826 -0.00075083
N 7.03917091 21.52009473 0.98984749 -0.00044244 -0.00125899 0.00143734
N 9.53737413 23.60807197 3.58856812 0.00781194 0.00124012 0.00082321
N 10.86794050 20.52487738 0.91581903 -0.00385167 0.00348902 -0.00035786
N 8.13871929 18.33245819 3.82254400 0.00482763 -0.00637954 -0.00315812
N 7.01817963 21.55321216 5.67578224 -0.00075503 -0.00467286 0.00010456