2000
Time=74000.00000007 pbc="T T T" Lattice="31.16239365 0.00000000 0.00000000 0.00000000 29.93098941 0.00000000 0.00000000 0.00000000 23.72320087" energy=-12038.52465558 virial="-59.26973678 -13.09209992 -19.06063598 -13.09209992 -43.57240661 7.52267317 -19.06063598 7.52267317 9.45839053" stress="-0.00058365 -0.00064354 -0.00082713 -0.00064354 0.00013192 0.00027522 -0.00082713 0.00027522 0.00307202" Properties=species:S:1:pos:R:3:vel:R:3
C 30.38610688 3.70060819 1.59580690 -0.00546355 0.00119017 -0.00338369
C 2.52957774 0.64664940 2.82679688 -0.00139353 -0.00229645 0.00035798
C 30.52419304 3.54153851 6.26617691 0.00357167 0.00098449 -0.00106189
C 2.29713639 0.43604003 7.60417134 -0.00046834 -0.00263803 0.00540590
C 30.70816644 3.33231908 11.06871399 0.00268870 0.00513163 -0.00524657
C 2.73475491 0.67277353 12.58216879 -0.00800773 0.00399878 -0.00614453
C 30.56937701 3.76590878 15.97855978 -0.00355475 0.00748697 -0.00214493
C 2.48869168 0.66759948 17.20958845 -0.00305474 -0.00216876 0.00375906
C 30.55841872 3.48187757 20.64888086 0.00566293 0.00037993 -0.00148884
C 2.45567770 0.71772155 21.73727382 0.00113921 0.00445265 -0.00012413
C 30.73362434 9.18581907 1.75284180 -0.00742318 -0.00335691 0.00199694
C 2.86549708 6.25689493 2.88676412 0.00123135 0.00609158 -0.00206282
C 30.68759735 9.02583649 6.55308154 0.00220929 -0.00963152 -0.00517176
C 3.02472307 6.23904745 7.73435447 -0.00488206 -0.00223298 -0.00258744
C 30.92845016 9.06039526 11.25790463 -0.00244308 0.00029488 0.00805288
C 2.91648531 6.26837529 12.46811255 0.00020961 -0.00441527 0.00125124
C 30.71284341 9.12490871 16.15248349 0.01051366 -0.01003732 0.00195408
C 3.00776514 6.15616239 17.17143563 0.00150114 0.00214379 0.00757459
C 31.13996944 9.16476362 20.61880607 0.00691420 -0.00084660 -0.00275364
C 2.95746977 6.25284060 22.00066302 -0.00275096 -0.00122519 -0.00277835
C 0.36195437 14.60086510 1.51265468 -0.00227969 0.00265743 -0.00538009
C 3.09163062 11.57539899 3.25578204 0.00317832 -0.00515540 -0.00510433
C 0.37224784 14.76590782 6.53579922 -0.00075741 0.00498165 -0.00198020
C 3.31555250 11.88959559 7.97216182 0.00640277 -0.00068585 -0.00067936
C 0.26580929 14.66223959 11.18743547 0.00502561 -0.00451908 0.00468790
C 3.41764900 11.73366152 12.57952862 -0.00554645 -0.00231353 0.00685506
C 0.26206863 14.65053388 15.98422695 -0.00222796 0.00198784 0.00322510
C 3.32918768 11.57666024 17.34534868 -0.00166480 -0.00171065 0.00624681
C 0.11745533 14.67391621 20.57613950 -0.00049615 -0.00500334 -0.00193491
C 3.30762153 11.83729477 21.95194375 -0.00438320 0.00589377 0.00499828
C 1.01134517 19.97187150 1.71243495 0.00664428 -0.00316812 -0.00305957
C 3.83468740 17.50846527 3.05333470 -0.00671031 0.00353074 0.00227395
C 0.81419774 20.49708222 6.33260557 -0.00076721 0.00251854 -0.00275851
C 3.88531390 17.46526914 7.77902897 0.00022254 -0.00482077 0.00025036
C 0.84214643 20.50712293 11.14780686 0.00292144 -0.00464739 0.00404926
C 3.60238294 17.26764636 12.39265356 0.00001313 0.00281448 0.00123184
C 0.56225423 20.38784491 16.10617271 0.00728488 -0.00276086 0.00306424
C 3.68844784 17.59323971 17.40244120 0.00612845 -0.00458801 -0.00248257
C 0.56877065 20.41759667 20.71971883 0.00274839 -0.00038871 -0.00519863
C 3.67279785 17.12713915 22.18807665 -0.00104995 0.00253332 -0.00538365
C 0.03204699 26.83715601 1.76713660 -0.00741250 0.00963570 0.00422070
C 3.35163877 23.79443666 3.03982099 -0.00422955 -0.00009274 -0.00472755
C 30.77611988 27.09946683 6.34219417 0.00196489 -0.00347423 0.00446647
C 3.29430356 24.40460035 7.75208625 0.00191802 0.00074949 -0.00458888
C 0.03092980 27.01230073 11.32966503 -0.00236692 0.00360589 0.00034727
C 3.17142646 24.24279664 12.44322274 0.00303543 -0.00645175 0.00367009
C 0.02873991 26.86696793 16.17154156 0.00215813 -0.00631070 0.00540133
C 2.83031534 23.83501362 17.55122752 -0.00117948 0.00206829 -0.00559834
C 0.04881502 26.73820777 20.85694931 -0.00540823 0.00049359 -0.00094588
C 2.99832874 23.80175982 21.96343314 -0.00472491 0.00489856 -0.00162646
C 6.11074008 3.41753317 1.72722286 -0.00716481 0.00111341 0.00180177
C 9.18054657 0.16712404 3.02953216 -0.00748896 0.00015715 -0.00105820
C 6.09459688 3.31321915 6.39369245 -0.00293538 0.00210961 0.00351976
C 9.31500441 0.27884118 7.98226368 0.00093838 0.00280307 -0.00100538
C 5.70604411 3.08019881 11.09037697 0.00051089 0.00128688 -0.00084846
C 9.12301796 0.43872102 12.66295462 0.00219025 0.00575833 0.00019190
C 6.06212446 3.20785236 15.99979071 -0.00218214 0.00091301 0.00102370
C 9.53595257 0.26208661 17.25719256 0.00062687 0.00278663 -0.00556944
C 6.06444085 3.46046661 20.59170969 -0.00057268 0.00395112 0.00072340
C 9.07290409 0.34831682 21.99424631 -0.00602863 0.00065235 0.00031930
C 6.45415417 8.72287501 1.70860237 0.00434740 0.00862783 -0.00022401
C 9.30179456 5.87359199 3.13014845 0.00107917 -0.00011927 -0.00220995
C 6.48813045 8.58743231 6.40545720 -0.00173624 0.00292880 0.00448255
C 9.52044324 5.58321992 7.74018698 0.00900168 0.00277871 -0.00143788
C 6.29879134 8.54183171 11.11603630 0.00299785 0.00967750 0.00255225
C 9.49383713 5.78268303 12.41680419 0.00143068 0.00339709 -0.00306722
C 6.37642575 8.79464623 15.81136540 -0.00534296 -0.00006350 0.00095982
C 9.74936967 5.69843214 17.24724716 -0.00372243 0.00282656 -0.00700595
C 6.41510359 8.89359181 20.57653768 0.00505417 0.00208822 0.00062739
C 9.62274577 5.99616639 22.08231404 0.00417081 -0.00598982 0.00135637
C 6.68459318 14.32467011 1.71795599 0.01002555 -0.00061973 -0.00084865
C 9.81714476 11.30423734 3.09597271 0.00573277 0.00082572 -0.00961952
C 6.80489485 14.41695514 6.39648990 -0.00386750 0.00106416 0.00513314
C 9.87164637 11.38237165 7.64135698 0.00284264 -0.00728239 0.00055007
C 6.83820355 14.42585388 11.10421217 -0.00556788 0.00618718 0.00118907
C 9.98908611 11.52626836 12.34704280 -0.00423183 0.00433711 0.00091196
C 6.64330132 14.37276919 15.97762286 -0.00260212 0.00237083 -0.00367397
C 9.72530656 11.36393260 17.12590010 -0.00169261 -0.00283466 0.00216904
C 6.81143365 14.18091294 20.73140145 0.00017498 0.00496628 0.00334138
C 9.94189215 11.61305544 21.76518977 -0.00054774 0.01276611 -0.00300848
C 6.35722501 21.08845834 1.94242885 0.00114493 -0.00272438 -0.00059293
C 9.40591491 18.14222196 3.29675727 -0.00320932 0.00584192 0.00062616
C 6.23117773 21.37509032 6.69281922 0.00119845 -0.00323787 -0.00033424
C 9.37873738 18.04933726 7.96655007 0.00432436 0.00112881 0.00523320
C 6.53643671 21.00744765 11.18507192 0.00203508 -0.00076973 0.00206295
C 9.34906810 17.95183819 12.58573583 -0.00300318 -0.00174639 -0.00063436
C 6.07193078 20.91025174 15.91662609 0.00624465 0.00126252 0.00082515
C 9.19631766 17.79308261 17.41724836 0.00171593 0.00025148 -0.00164714
C 6.40177558 20.76301583 20.88722387 0.00052168 -0.00723777 -0.00354355
C 9.28230174 17.83241749 22.18639706 -0.00526005 -0.00222960 0.00863154
C 5.38150663 27.59280086 1.47259952 -0.00758852 -0.00023359 0.00179165
C 8.73716572 24.49528425 3.10433141 -0.00318548 0.00528689 0.00309364
C 5.47406500 27.75809318 6.18192152 -0.00377302 -0.00297739 -0.00106082
C 8.95969650 24.58059377 7.78305671 -0.00450590 -0.00848031 0.00270065
C 5.57736739 27.81811723 11.19006729 -0.00476522 0.00410534 -0.00553170
C 8.71281913 24.73422740 12.50103031 -0.00411491 0.00262379 0.00721237
C 5.57620475 27.55390086 15.88101977 0.00116548 0.00100489 0.00375532
C 8.53501153 24.39096182 17.30019666 0.00360523 0.00322023 -0.00274205
C 5.55474399 27.91833542 20.47370501 -0.00011638 0.00326631 -0.00138591
C 8.73353482 24.44247184 22.07824839 -0.00022966 -0.00278846 0.00007823
C 12.59642882 2.49506337 1.86870228 -0.00135134 0.00283643 -0.00130867
C 15.89692967 29.88728480 3.25121840 0.00003593 -0.00377131 -0.00147366
C 12.33391930 2.80938650 6.56074005 0.00978999 -0.00329107 -0.00406286
C 15.77608705 29.72333722 7.86969937 -0.00328618 0.00557938 0.00128512
C 12.70735099 2.78626166 11.29555612 -0.00148181 -0.00719732 0.00129719
C 15.75513541 0.03727291 12.68477408 -0.00171135 -0.00699052 -0.00180756
C 12.50134114 3.16741206 15.85791789 0.00343260 0.00137192 0.00045898
C 15.82994414 29.81441968 17.33487366 0.00045677 -0.00140131 -0.00701872
C 12.49314878 2.77032067 20.63847010 -0.00299089 0.00196448 0.00141650
C 15.81241336 29.79032610 22.24375331 -0.00039568 -0.00239160 0.00128863
C 12.80870677 8.49656666 1.67381860 0.00568162 0.00183485 0.00069364
C 15.99301985 5.46926532 2.98720842 -0.00030804 -0.00164759 0.00025645
C 13.00385166 8.17267060 6.17748100 -0.00019128 -0.00302216 0.00156507
C 16.11586177 5.41555264 7.74504136 -0.00797938 0.00313722 0.00857233
C 13.00158452 8.37495553 11.06192140 0.00131615 0.00036914 -0.00558495
C 16.10633480 5.79555163 12.33338146 0.00353851 -0.00049763 -0.00083562
C 13.09596334 8.47958999 15.81165938 -0.00293651 0.00354556 0.00841598
C 16.18454611 5.49008390 17.34455352 0.00174769 0.00540718 -0.00062276
C 13.05789464 8.29211753 20.60346710 0.00864737 -0.00362459 -0.00400009
C 16.03029707 5.36022746 22.02464915 0.00284778 0.00404274 0.00105320
C 12.17627629 14.76528428 1.57845883 0.00100995 -0.00395664 -0.00361584
C 15.40379556 11.67423869 2.90409422 0.00406913 -0.00460883 -0.00034207
C 12.60365465 14.73731741 6.37050347 -0.00431973 0.00975208 0.00525638
C 15.49715774 11.81226817 7.72626108 0.00360543 -0.00277260 0.00360568
C 12.37220166 14.95166094 11.09858373 -0.00211112 0.00519712 -0.00513107
C 15.61950813 12.15053647 12.41533641 0.00688987 -0.00303926 -0.00075187
C 12.50583141 14.89341044 15.71816346 0.00235943 -0.00282488 -0.00035705
C 15.58660446 12.15296873 17.20936728 0.00411513 -0.00730899 0.00318936
C 12.43253244 14.96626015 20.70925581 -0.00620009 0.00059511 -0.00359186
C 15.84901886 12.05614160 21.83960091 -0.00378809 0.00468308 0.00315934
C 12.01331966 21.44041038 1.79849460 0.00248141 -0.00288501 -0.00235671
C 14.82595913 18.00586963 2.97858594 -0.00519125 -0.00528615 -0.00535288
C 12.12834647 21.53331641 6.59721340 0.00311380 -0.00094764 -0.00380488
C 15.05724857 18.50447127 7.83965829 -0.00655042 -0.00424346 -0.00123758
C 11.83037478 21.65288610 11.36727489 -0.00597004 0.00167172 0.00037428
C 14.98720623 18.51637835 12.49446970 -0.00506737 0.00044462 -0.00102523
C 11.85057125 21.25914439 15.94598728 -0.00076270 0.00201960 0.00339573
C 15.24585111 18.04273334 17.41336759 -0.00094912 -0.00105422 -0.00752610
C 11.77875207 21.40357998 20.82003058 0.00193832 -0.00676710 -0.00208515
C 14.74289501 18.40124307 22.02016256 -0.00550907 -0.00185746 -0.00774628
C 12.03393669 27.14082201 1.74605116 0.00096353 0.00549344 -0.00959647
C 15.67182847 24.11744387 3.16975620 -0.00469760 -0.00319177 -0.00333338
C 12.34750244 27.15552854 6.48136237 0.00604174 0.01033076 0.00425512
C 15.67614023 24.13528154 8.07916710 0.00329783 0.00258618 0.00089832
C 12.31616170 27.13565662 11.12950614 0.00084010 -0.00705739 0.00196117
C 15.24504351 24.03744024 12.76428571 -0.00695290 -0.00446002 0.00615184
C 12.35485938 27.29165930 15.90759648 0.00448843 -0.00372938 -0.00046018
C 15.44386637 24.13854237 17.51626851 -0.00044292 -0.00612542 -0.00490563
C 12.18372965 27.20848553 20.68243863 0.00476458 -0.00400816 -0.00423164
C 15.24267310 23.72115032 22.25477731 -0.00460662 -0.00422375 0.00145086
C 19.46852138 2.19029318 1.65320531 -0.00053298 0.00248623 -0.00213336
C 22.40574198 29.12458233 2.92295592 0.00538718 0.00329402 -0.00108639
C 19.07623248 2.39493521 6.30291884 -0.00219570 0.00511059 0.00256712
C 22.50552530 29.39206861 7.66331213 -0.00203477 -0.00477891 -0.00159431
C 19.25073100 2.55253544 11.19500984 0.00300584 -0.00071673 0.00114092
C 22.56391817 29.63735788 12.50993955 -0.00060505 0.00487610 -0.00138586
C 19.47110173 2.77380769 15.85337614 0.00506991 -0.00367245 -0.00187658
C 22.39048078 29.54560447 17.15408280 0.00114818 -0.00698081 0.00319252
C 19.18820419 2.47934635 20.62329267 0.00695196 -0.00184560 -0.00282392
C 22.43252086 29.51844116 21.83490844 0.00135556 -0.00306287 0.00496599
C 18.68737672 8.92236385 1.88761716 0.00142994 -0.00056427 0.00463193
C 21.65160705 5.82149321 3.16043668 -0.00165197 -0.00312546 0.00570046
C 18.79231222 8.81185156 6.52571402 0.00387669 0.00240127 -0.00385971
C 21.78104572 5.90157150 7.91864705 0.00024011 0.00806768 0.00194298
C 18.83771865 9.27392717 11.22984553 0.00800592 -0.00219751 -0.00093191
C 21.66966480 6.04820529 12.56678729 0.00093607 0.00286049 -0.00568792
C 18.71694144 9.27111952 16.08655308 -0.00339609 -0.00315716 0.00258642
C 21.62993690 6.19757838 17.44407681 0.00059917 -0.00031259 -0.00400953
C 18.69830107 9.10825704 20.84033290 0.00054065 0.00236363 -0.00363577
C 21.79377207 6.13611475 22.26791036 -0.00723137 0.00207260 -0.00819829
C 17.87427504 15.24945721 1.58993723 0.00134019 -0.00105695 0.00050866
C 21.29790041 12.50012376 2.91727613 -0.00762154 -0.00273313 0.00020327
C 18.15056293 15.38353951 6.30313469 0.00150100 -0.00871057 0.00301601
C 21.29382885 12.36449954 7.72471886 0.00448790 0.00304991 -0.00060091
C 18.01457939 15.45612864 11.13316888 -0.00380440 0.00025588 0.00060744
C 21.31338658 13.07894048 12.35927740 -0.00105322 0.00244400 -0.00174369
C 17.99761288 15.48657109 15.92199826 0.00438918 -0.00113646 -0.00008251
C 21.41578551 12.62122775 16.91755484 -0.00302603 -0.00521428 -0.00482042
C 18.49508437 15.33836879 20.63922398 0.00305329 0.00230603 0.00423787
C 21.39940044 12.53984262 22.00982690 0.00640738 0.00273201 -0.00021157
C 18.48913481 20.76707115 1.89225820 0.00136306 -0.00016467 0.00534682
C 21.52854272 18.18682016 3.08502663 -0.00521017 0.00290301 0.00399138
C 18.45092321 20.84133985 6.65477812 -0.00105354 0.00145323 0.00076434
C 21.62439309 18.21007148 7.85573493 0.00260080 0.00699697 -0.00009953
C 18.76372326 21.23551277 11.56801165 0.00256911 0.00520115 -0.01033603
C 21.76525152 18.27430069 12.52011544 0.00707685 -0.00404638 0.00579489
C 18.43959200 21.09429257 16.25166463 -0.00620336 0.00249660 0.00274411
C 21.86340872 18.06553548 17.29269308 0.00034825 -0.00324563 -0.00276139
C 18.43410322 20.92967245 20.78560372 0.00075771 -0.00880989 0.00191306
C 21.46827391 18.24944711 22.00387106 -0.00748942 -0.00469362 -0.00974957
C 19.01710709 26.63234459 1.80255986 0.00141749 0.00346193 0.00191582
C 21.82219689 23.74906122 3.23938588 -0.00295494 -0.00561981 0.00365359
C 19.06377719 26.71356709 6.55202282 0.00259305 -0.00650569 0.00071302
C 22.09808826 23.83005143 7.82227925 0.00121534 -0.00433545 0.00304760
C 18.89922272 26.91065407 11.22680410 0.00507509 -0.00001488 -0.01017539
C 22.47178592 23.91397278 12.69164737 -0.00541146 -0.00346174 0.00765657
C 18.90501942 26.95175863 15.81125121 -0.00095311 -0.00016102 0.01068547
C 21.49528067 23.86523084 17.32032304 0.00259012 0.00501326 0.00195761
C 18.55184616 26.80858000 20.79163080 -0.00072405 0.00172927 -0.00216675
C 22.13492645 23.91931556 22.19667512 -0.00548768 -0.00417725 0.00271198
C 24.88710706 3.02151684 1.45273356 -0.00579323 -0.00432873 0.00017069
C 28.07631659 0.05595242 3.22323024 -0.00214507 -0.00469638 0.00453340
C 24.81077500 2.97696473 6.51441061 0.00507947 0.00381993 -0.00129457
C 27.50086415 0.05578108 7.74288081 0.00313555 -0.00335494 0.00715559
C 25.01341654 2.93719167 11.44936618 -0.00017948 -0.00187048 0.00033782
C 28.17768800 0.07146016 12.69627909 -0.00004289 -0.01087753 0.00438695
C 24.88600922 3.28602304 16.09717621 -0.00124495 0.00270657 0.00670284
C 27.94976604 29.82308076 17.33596890 0.00053418 0.00323222 -0.00258449
C 24.68791511 3.19749701 20.51745779 -0.00509841 -0.00545426 -0.00280067
C 27.87075052 29.69532947 22.00255595 0.00206687 0.00043872 -0.00243049
C 24.50491690 9.27641058 1.67161389 0.00719698 0.00721713 -0.00461357
C 27.37947648 6.47595630 2.86067680 -0.00539953 0.00569509 -0.00099702
C 24.40026311 9.22630738 6.48750095 -0.00342357 -0.00753375 0.00160397
C 27.45836242 6.45560441 7.84647430 0.00328812 0.00621601 -0.00167952
C 24.11308249 9.71822581 11.10758314 -0.00797900 -0.01059374 0.00458119
C 27.60991351 6.37921606 12.32184642 -0.00080203 -0.00986381 -0.00546819
C 24.32716845 9.64771985 15.97405782 0.00123602 0.00028798 0.00290723
C 27.43450262 6.49395610 17.01386433 -0.00051537 0.00451007 -0.00687291
C 24.20927803 9.75966826 20.61129767 -0.00232202 -0.00279674 0.00012000
C 27.53766970 6.50117693 21.73583654 0.00397269 -0.00857612 0.00595321
C 24.89954319 15.19843810 1.47153496 -0.00159533 0.00270546 -0.00706350
C 27.98932982 12.15906774 3.01453614 -0.00285855 -0.00637010 0.00399894
C 25.03725211 15.27381759 6.37881457 -0.00668456 0.00453585 -0.00439745
C 27.95407367 12.25322484 7.66185838 0.00122747 0.00188899 0.00550738
C 25.06544324 15.15959010 11.13437901 -0.00268362 0.00688330 -0.00191887
C 27.77860271 12.10316346 12.49081375 -0.00557734 0.00354910 0.00380927
C 24.96336157 15.27262329 15.75104725 -0.00330901 0.00321270 0.00120161
C 27.94843608 12.27152196 17.27879859 -0.00192148 0.00524569 -0.00852062
C 24.84603924 15.07382640 20.57916324 0.00435871 -0.00124473 -0.00374071
C 27.88016159 12.11172028 22.04726133 -0.00141738 0.00548274 -0.00584283
C 24.98722828 20.74787132 1.88657506 -0.00739777 0.00031026 -0.00388275
C 28.39430546 17.84161530 2.90592352 -0.00352651 0.00514341 -0.00338381
C 25.18778711 20.44252147 6.44851998 -0.00434010 -0.00237442 0.00609782
C 28.42477756 17.77298441 7.60060611 0.00601047 0.00450737 -0.00006851
C 25.53561411 20.66051051 11.04557195 -0.00226564 0.00827095 -0.00853301
C 28.46855889 17.63624884 12.11167672 0.00253845 -0.00588974 -0.00298793
C 25.39204650 20.55574318 15.85028776 -0.00105632 -0.00069744 -0.00151757
C 28.33458525 17.82865728 17.11115987 -0.00209146 0.00108198 -0.00484346
C 24.88216435 20.79157472 20.82398779 -0.00051583 0.00567927 -0.00508613
C 28.41233235 17.70623652 21.75675751 -0.01134888 -0.00146985 -0.00747048
C 25.44266953 26.19764706 1.73964569 0.00145710 -0.00206212 0.01368879
C 28.93919512 23.23751917 2.94253108 -0.00100562 -0.00148854 0.00363276
C 25.52145313 26.11513782 6.52352524 -0.00076292 0.00053006 -0.00367821
C 28.50706883 23.38287947 7.80421929 -0.00303857 0.00213982 -0.00084513
C 25.53795460 26.43418634 11.11198815 0.00278633 0.00381846 0.00963075
C 28.70167621 23.43094929 12.55183407 0.00021147 -0.00675950 0.00417027
C 25.47578598 26.55476977 15.96889148 0.00114701 0.00571538 0.00322245
C 28.67056920 23.36863509 17.22191168 -0.00310724 0.00039800 0.00137706
C 25.57631078 26.20838616 20.62312591 0.00399082 0.00550877 -0.00450838
C 28.60459560 22.89337286 22.15557373 0.00301508 -0.00967763 0.00335113
N 31.15624901 4.65634506 1.03990963 0.00284466 0.00513016 0.00299828
N 3.26756605 5.12838446 3.59206845 0.00226372 -0.00528771 0.00089601
N 5.27645721 2.56673904 1.18210418 -0.00169173 0.00558060 -0.00014711
N 1.50110115 1.26407764 3.54997180 -0.00521216 -0.00318260 -0.00116966
N 0.17590003 4.39732341 5.59013926 -0.00304551 -0.00216402 0.00004682
N 3.42340945 5.12841581 8.40738686 -0.00528227 0.00469902 -0.00151562
N 5.23901307 2.59208290 5.67682198 -0.00332056 0.00036811 -0.00176551
N 1.53329413 1.34439449 8.25694571 -0.00580004 -0.00144662 0.00163379
N 0.14660936 4.30756317 10.26459364 0.00651037 0.00055887 0.00394955
N 3.30812321 5.35429008 13.32690390 0.00127703 0.00087104 -0.00477593
N 5.19503692 2.19948613 10.21943067 0.00499393 0.00155843 0.00014375
N 1.97612702 1.53778319 13.32001049 0.00241416 -0.00271960 0.00088565
N 0.42189629 4.63650830 15.55130007 -0.00766189 0.00160420 0.00399732
N 3.56877166 5.20675621 17.98663276 -0.00394014 -0.00429937 0.00164468
N 5.17388999 2.41520733 15.32820908 0.00483292 0.00111087 -0.00431785
N 1.60936339 1.37875962 17.93063667 -0.00015767 0.00407908 -0.00377178
N 0.20997487 4.24083791 19.89707314 -0.00101649 0.00306901 0.00053308
N 3.49561303 5.28100701 22.82344272 0.00402858 0.00322267 -0.00696691
N 5.44328985 2.48598076 19.81632485 -0.00230122 -0.00187643 0.00567350
N 1.60076453 1.46327630 22.47850284 0.00019816 0.00267792 -0.00675771
N 0.44773633 10.05058891 1.17839049 -0.00200899 -0.00295512 -0.00609452
N 3.77423657 10.78256628 4.07831715 0.00108502 0.00408089 0.00131562
N 5.59237530 7.92912078 0.97841672 0.00199210 -0.00133217 -0.00399995
N 2.26704538 7.21867491 3.57860519 0.00281138 -0.00165121 0.00821239
N 0.18447665 10.09355214 5.88931270 0.00426127 0.00383142 -0.00299920
N 3.87595688 10.80134013 8.64968053 -0.00629024 -0.00016753 0.00416274
N 5.75809827 7.79608067 5.65164067 -0.00183084 0.00168039 -0.00056814
N 2.39972606 7.16457279 8.50083219 0.00193738 0.00421168 -0.00138125
N 0.43269796 9.94442675 10.45995496 0.00187445 0.00479895 0.00191625
N 3.93839855 10.70229154 13.31919531 -0.00234367 0.00114477 0.00381222
N 5.40952043 7.75474891 10.44146362 0.00028528 -0.00565042 -0.00169319
N 2.31312940 7.40261455 13.08826203 -0.00153031 -0.00334105 -0.00048002
N 0.51221410 9.86551002 15.56510513 -0.00677864 0.00489378 0.00542054
N 3.99000573 10.66779602 18.10515311 0.00380391 -0.00024404 0.00053875
N 5.64367666 7.88239932 15.13894995 0.00096887 -0.00068825 -0.00098692
N 2.27441812 7.07497512 17.87433534 -0.00295763 0.00601168 -0.00235307
N 0.73214580 10.01207429 19.90504161 0.00138729 -0.00072426 0.00088565
N 3.98406193 10.86653046 22.63285035 -0.00470427 0.00388550 -0.01262932
N 5.52621444 8.12268447 19.97570846 0.00446845 -0.00041169 0.00279913
N 2.31325861 7.28021165 22.61783873 0.00035625 -0.00057858 -0.00473560
N 1.02434169 15.52947190 0.82211049 0.00255893 -0.00111717 0.01044667
N 4.41538228 16.43298532 3.69199541 0.00070564 0.00885099 0.00120901
N 6.07059212 13.37955671 1.00401683 -0.00146007 -0.00003504 0.00266518
N 2.45120516 12.66671068 3.82054296 0.00064875 0.00504251 -0.00483246
N 1.18672842 15.69333465 5.89019262 0.00324444 0.00070815 0.00280515
N 4.36956322 16.48141120 8.54236972 0.00174636 -0.00156477 -0.00790476
N 5.89542516 13.60043804 5.76698930 -0.00643529 0.00047047 0.00192577
N 2.56041347 12.72667885 8.65731314 0.00108837 -0.00176749 -0.00146885
N 1.06216430 15.47232143 10.48007854 -0.00634089 -0.00505827 -0.00207044
N 4.39213813 16.49859908 13.15019272 -0.00069993 -0.00048483 -0.00151371
N 6.10734742 13.45211470 10.46605702 -0.00023339 -0.00173392 -0.00109249
N 2.70938589 12.63643963 13.25372014 0.00035420 0.00095209 -0.00168374
N 1.10172725 15.65683214 15.48946422 -0.00080789 0.00028410 -0.00011919
N 4.43674429 16.74018331 18.11002387 0.00094036 -0.00207320 0.00526572
N 5.86364652 13.71157897 15.09417779 -0.00333837 -0.00318614 -0.00153123
N 2.68028890 12.61035221 17.92557316 -0.00048774 -0.00371356 0.00370149
N 0.93209247 15.55969539 19.94821103 0.00175578 -0.00128334 0.00153226
N 4.44383043 16.33080705 22.89613983 -0.00784978 0.00094153 -0.00349108
N 5.95848205 13.54624376 19.90146177 -0.00085355 -0.00086222 -0.00237327
N 2.65405736 12.73181706 22.73616376 0.00235455 -0.00148182 -0.00346820
N 1.74261025 20.99482418 1.07878716 0.00005487 0.00345249 -0.00084245
N 4.28758442 23.26086981 3.98862974 0.00235421 -0.00450123 0.00115064
N 5.55942030 20.34100312 1.15356792 0.00319855 0.00073414 -0.00293723
N 3.64760884 18.59976666 3.84040660 0.00081697 -0.00237455 0.00227767
N 1.62149188 21.45385208 5.68574942 0.00012251 0.00272978 -0.00446375
N 4.45991869 23.98687229 8.39414408 -0.00210359 0.00084663 -0.00048795
N 5.41989688 20.50983577 6.10160358 0.00046268 0.00412119 -0.00108680
N 2.99005140 18.22001259 8.44205357 -0.00056309 -0.00055366 -0.00625807
N 1.43536372 21.50505040 10.39679400 -0.00257822 -0.00136537 0.00046019
N 4.14653852 23.57383197 13.19339656 0.00254967 -0.00503197 -0.00090649
N 5.73172895 20.19420921 10.46165979 0.00043437 -0.00453693 0.00152551
N 2.98043532 18.21750130 13.12217787 0.00539977 -0.00400651 0.00216597
N 1.33851385 21.18199280 15.35963597 -0.00009501 -0.00014411 -0.00726911
N 3.97373240 23.34874612 18.03281443 -0.00275712 0.00272074 -0.00006352
N 5.43287004 19.91855719 15.22700673 -0.00408213 -0.00357346 0.00775228
N 2.79369863 18.38066252 18.15422135 0.00388899 -0.00057318 0.00111997
N 1.21740667 21.33553182 20.01121116 -0.00849209 0.00378796 -0.00519639
N 4.00239605 23.35114991 22.78368839 -0.00012446 -0.00228637 0.00051982
N 5.43278663 20.18358346 20.10997286 -0.00166132 -0.00015853 0.00090710
N 2.99951060 18.12657083 22.87435912 0.00504395 -0.00274104 -0.00536206
N 0.86637694 27.66435597 1.10472328 -0.00085023 -0.00552381 -0.00258691
N 3.35902687 29.80802736 3.58606331 0.00024656 0.00488828 -0.00203389
N 4.82768224 26.64278325 0.68745322 -0.00420084 0.00683750 -0.00132117
N 2.50230045 24.59624861 3.72206927 0.00307097 0.00035230 0.00238013
N 0.42764152 27.91017771 5.63653388 0.00475788 0.00768348 0.00695411
N 2.94616554 29.44843845 8.36999047 0.00636934 0.00374185 0.00602370
N 4.57854446 26.88133857 5.61026988 -0.00609196 -0.00492398 0.00033312
N 2.23030047 24.84511857 8.49424732 -0.00175829 -0.00613677 0.00327241
N 0.59087125 28.08735006 10.67873526 0.00007727 -0.00720170 0.00174268
N 3.42773292 29.62204428 13.26530086 0.00107027 0.00283600 -0.00519872
N 4.61767097 27.17293920 10.36786902 0.00022572 -0.00986477 -0.00181386
N 2.16742737 24.69024702 13.19938131 0.00273832 -0.00362847 -0.00239758
N 0.92704559 27.48621851 15.41253907 0.00570463 0.00138118 0.00122263
N 3.38688132 29.86912167 17.94814243 0.00072614 -0.00144610 0.00489937
N 4.73768732 26.74170643 15.14398973 0.00103305 -0.00352732 0.00037933
N 2.07513042 24.55243350 18.37630158 -0.00047033 0.00417623 -0.00618989
N 0.85035979 27.66020839 20.24160861 0.00078094 0.00050468 0.00015425
N 3.47908850 0.11717871 22.44491380 0.00539978 0.00099559 -0.00050920
N 4.85958970 26.90403862 19.90729494 0.00106534 0.00477290 0.00049333
N 1.92053875 24.27413809 22.62926867 -0.00323942 0.00439782 -0.00166483
N 6.96353961 3.95767362 0.82901302 0.00191309 -0.00435999 -0.00462705
N 10.07597488 4.89200437 3.66380088 -0.00264192 0.00090802 -0.00581598
N 11.73693640 1.90949352 1.04868391 0.00363306 0.00277285 0.00805517
N 8.56066928 1.10785689 3.84855001 0.00692187 0.00063640 0.00745556
N 7.04473928 4.01671756 5.69322763 0.00162230 -0.00372188 0.00082432
N 10.15648489 4.75981186 8.54647039 -0.00151889 -0.00051676 -0.00074249
N 11.69145446 1.88603346 5.85326014 0.00068577 -0.00014876 -0.00208664
N 8.69911765 1.28467351 8.71270112 -0.00019746 0.00148707 -0.00121855
N 6.56112446 4.01013952 10.61383328 -0.00259669 -0.00020989 0.00054378
N 10.18859272 4.84232538 13.09719937 -0.00211609 0.00115982 -0.00450875
N 11.92344843 1.92778529 10.55775721 0.00208029 0.00557893 0.00580554
N 8.45465157 1.37760292 13.32026561 0.00747971 0.00279266 0.00165542
N 6.63491203 4.20325184 15.19530622 0.00564883 0.00594784 -0.00271166
N 9.98412672 4.70995801 18.18756463 0.00372515 -0.00470380 0.00128277
N 11.89510420 2.15978970 15.14293617 0.00007650 -0.00189290 0.00088344
N 8.91706997 1.18341845 18.04205698 -0.00051890 -0.00005888 0.00013702
N 6.68335680 4.43539222 19.89976991 -0.00243544 -0.00141281 -0.00248446
N 10.23612410 5.06993472 22.86225372 -0.00085735 -0.00167321 0.00104987
N 11.87958526 1.78598381 19.98960778 -0.01096526 -0.00181528 0.00451225
N 8.33131093 1.34820083 22.58392864 -0.00121114 0.00365050 -0.00429352
N 7.08281200 9.75714569 1.02605624 0.00594453 0.00319846 -0.00143547
N 10.71232144 10.64310086 3.76194698 0.00647449 -0.00499930 0.00010870
N 12.28977976 7.41591538 1.06649685 -0.00455398 -0.00309428 0.00061207
N 8.93230918 6.87431710 3.94494305 -0.00023636 0.00006876 0.00101219
N 7.26641071 9.60927839 5.81647226 -0.00068309 -0.00101884 0.00514392
N 10.85185468 10.82512586 8.32461839 -0.00130204 -0.00073399 0.00225970
N 12.09786465 7.43736806 5.52410865 -0.00081480 0.00009321 -0.00142243
N 8.68300432 6.40759167 8.38653828 -0.00302250 0.00190074 0.00361562
N 6.98609718 9.36172295 10.28729872 -0.01066198 -0.00020258 0.00052112
N 10.68316286 10.69193323 13.10635967 -0.00242881 0.00170828 -0.00316557
N 12.22619877 7.55271961 10.28923655 -0.00018301 -0.00095063 0.00527364
N 8.98127769 6.83872550 13.16192302 -0.00634066 0.00532571 -0.00019658
N 7.23997849 9.53376554 15.07279899 0.00224243 -0.00557450 0.00047989
N 10.66966080 10.54901069 17.73870656 0.00246324 -0.00032485 -0.00145158
N 12.13803599 7.76061932 15.14874404 0.00848516 0.00159375 0.00390435
N 9.19719854 6.84846315 17.78916624 0.00160833 0.00747793 0.00194318
N 7.23592062 9.63074092 19.74854882 0.00026925 0.00407844 -0.00027074
N 10.82711373 10.83705191 22.47080212 0.00227365 0.00004359 -0.00053194
N 12.13131789 7.56263869 19.91341875 0.00086893 0.00227473 -0.00182344
N 8.77276282 6.82302924 22.72325094 -0.00223854 0.00096194 -0.00282538
N 7.48964235 15.18252341 1.12133834 0.00316210 -0.00268479 -0.00341478
N 10.13363574 17.42634273 4.17997028 -0.00148002 0.00201836 -0.00317069
N 11.40614954 14.00804794 0.75707078 0.00292466 0.00014799 0.00117885
N 8.95524991 12.04370189 3.77737813 0.00003852 0.00011777 0.00510526
N 7.44294712 15.39938700 5.57847526 -0.00136193 0.00064211 0.00120897
N 10.52032646 17.71501885 8.59147080 0.00075664 0.00126205 0.00155723
N 11.73550327 14.00647075 5.60136180 -0.00219668 -0.00027175 -0.00388293
N 8.98440986 12.08808930 8.39532028 -0.00766830 -0.00109049 0.00531150
N 7.64271297 15.29526889 10.43513344 -0.00673250 0.00287312 -0.00302123
N 10.07444722 17.09287620 13.34177695 -0.00320109 0.00239046 -0.00267631
N 11.48213126 14.35787579 10.25101114 0.00026451 -0.00809304 -0.00216151
N 9.09514887 12.33870720 12.97454432 -0.00369630 0.00074049 -0.00060656
N 7.58381358 15.19574346 15.43661666 0.00483423 -0.00322820 -0.00066400
N 10.21360480 17.20654193 18.13248140 -0.00203105 -0.00098821 0.00897304
N 11.44331467 14.33624979 15.15787158 -0.00314363 -0.00162752 -0.00039153
N 9.05025135 12.12616778 17.94939422 -0.00067493 0.00595043 0.00151393
N 7.75605283 14.94744721 20.09113492 0.00283516 0.00067026 -0.00025400
N 10.42984190 17.43504214 22.88611389 -0.00155135 0.00138330 0.00081107
N 11.97905467 13.94674160 19.88857164 0.00241422 0.00291072 -0.00709558
N 8.94197241 12.21806404 22.48812327 0.00303435 -0.00218502 -0.00410904
N 7.40306223 21.78444257 1.35735290 0.00852864 0.00266395 0.00016934
N 9.43606368 23.74237759 3.97253576 -0.00737995 -0.00145777 0.00328665
N 11.04989468 20.84748536 1.04975310 0.00414608 -0.00252138 -0.00262244
N 8.33603895 18.86910185 3.86767506 -0.00222494 0.00316112 0.00307630
N 7.21963718 21.98915013 5.96694946 -0.00392478 -0.00047414 0.00073886