2000
Time=33000.00000001 pbc="T T T" Lattice="31.17950679 0.00000000 0.00000000 0.00000000 30.25396820 0.00000000 0.00000000 0.00000000 23.55722194" energy=-12039.39044285 virial="-61.39356638 -11.40453348 -1.69703635 -11.40453348 -76.28046640 5.91710121 -1.69703635 5.91710121 -118.68089657" stress="-0.00065094 -0.00056133 -0.00014803 -0.00056133 -0.00131932 0.00023677 -0.00014803 0.00023677 -0.00241163" Properties=species:S:1:pos:R:3:vel:R:3
C 30.63121155 3.42834798 1.78360018 0.00731133 0.00318301 0.00105598
C 2.56979947 0.56367307 2.95426789 0.00718971 0.00196919 0.01032712
C 30.59826306 3.87162685 6.45958245 0.00553248 -0.00390201 -0.00264574
C 2.49560433 0.73227796 7.70688861 0.00670545 0.00453510 -0.00586678
C 30.66798609 3.75303853 11.02289381 0.00136016 -0.00139928 -0.00446972
C 2.59286746 0.57869809 12.43893752 -0.00131098 0.00034670 -0.00699073
C 30.79049148 3.45618602 15.88497156 -0.00036379 0.00483876 0.00054338
C 2.76527115 0.61720630 17.29273573 0.00092800 0.00752808 0.00250923
C 30.46501108 3.68656653 20.65167375 0.00246889 0.00467226 -0.00282441
C 2.38119016 0.52960131 21.91883374 0.00557925 -0.00390979 0.00229560
C 30.70773032 9.38040646 1.88861516 -0.00567799 0.00552699 -0.00560625
C 3.12049256 6.48362704 3.12254588 -0.00980437 0.00358990 -0.00521136
C 30.92271539 9.14031786 6.57944118 -0.00169353 -0.00523352 -0.00180412
C 2.85197549 6.14064415 7.71648743 -0.00183442 0.00277195 0.00775845
C 31.02753311 9.34608278 11.25530470 -0.00554228 -0.00932739 0.00060316
C 2.84355315 6.15853264 12.47166293 0.00029658 0.00045435 0.00137566
C 31.12950932 9.31974980 15.96668108 -0.00228662 0.00427380 0.00632122
C 3.07340219 6.30640053 17.12137909 0.01098138 -0.00589471 0.00120582
C 30.86923979 9.27531794 20.63788085 0.00372199 0.00009958 -0.00116345
C 2.99970235 6.05204334 22.07965361 0.00198960 0.00020880 0.01073839
C 0.41995308 14.71696846 1.85635131 -0.00357107 0.00349461 0.00104655
C 3.39373932 11.97249885 2.97967713 0.00403919 -0.00886941 -0.00095160
C 0.00899170 14.86931389 6.40505806 0.00423877 -0.00214141 0.00038953
C 3.36782174 11.98141347 7.69495886 0.00224039 -0.00145903 0.00543268
C 0.19296065 14.84225527 11.13587936 0.00348335 0.00286049 -0.00568140
C 3.25700028 12.06071402 12.50417216 -0.00802582 -0.00354960 -0.00128578
C 0.14515803 15.11524513 15.82414009 0.00318272 0.00271832 -0.00694847
C 3.46361755 11.96116334 17.06198655 -0.00035163 -0.00695040 0.00372443
C 0.32687041 14.90202801 20.48190860 -0.00845325 -0.00379960 0.00370863
C 3.41258840 11.51591317 21.73461901 0.00268502 0.00231232 -0.00581273
C 0.56688552 20.57403729 1.65265142 -0.00008477 -0.00257421 0.00347255
C 3.89276524 17.40278766 2.85158604 -0.00094884 0.00059604 -0.00435754
C 0.58884406 20.80932852 6.44049457 0.00120957 0.00153850 0.01122462
C 3.63572106 17.45494639 7.56285449 0.00276785 0.00068612 -0.00474565
C 0.67903988 20.47733248 11.19331011 -0.00588294 0.00109782 -0.00514739
C 3.62017636 17.47811725 12.28010704 -0.00132579 0.00556812 -0.00246747
C 0.59874900 20.61381494 15.79190937 -0.00392574 0.00418642 0.00352476
C 3.82660535 17.78351111 16.97023861 0.00413477 -0.00619767 0.00289003
C 0.66024178 20.51584974 20.62212635 0.00187353 -0.00274728 -0.00134857
C 3.56730372 17.49921573 21.71550040 0.00692115 -0.00111303 -0.00122580
C 0.07623086 27.03880554 1.66549887 -0.00350091 -0.00349908 0.00149776
C 2.87891855 24.21376779 3.08886464 0.00351523 0.00045079 -0.00041703
C 31.15261867 27.46517093 6.43851193 0.00399811 0.00777501 0.00404425
C 3.28148425 24.25775144 7.71448610 0.00380393 0.00080634 -0.00356809
C 0.03822837 27.15342371 11.13783385 0.00693134 -0.00187656 -0.00182369
C 3.00845361 23.98767738 12.37466594 0.00084631 0.00138447 -0.00619740
C 31.07113582 26.92450596 15.88480398 0.00040224 -0.00850045 -0.00041138
C 3.30818840 24.50268995 17.14485386 -0.00461371 0.00249617 -0.00438346
C 0.21708830 27.24171682 20.53655543 0.00147332 -0.00592075 -0.00442715
C 2.91228757 24.01559837 21.81383103 0.00274820 0.00033057 -0.00053838
C 5.92577466 3.11640344 1.81536336 0.00597721 -0.00015924 -0.00463883
C 9.08731642 0.14320378 3.02773039 0.00290268 0.00031534 0.00051540
C 6.05495820 3.17243874 6.47358432 0.00359347 -0.00266618 0.00073558
C 8.84028923 0.05960371 7.66428237 0.00046884 0.00180803 0.00374478
C 5.96589221 3.43050919 11.07706625 0.00047442 -0.00039098 -0.00784181
C 9.15989978 0.53171673 12.30807295 0.00290421 0.01054895 -0.00029684
C 6.01024443 3.27619249 16.00132419 -0.00010544 -0.00003253 -0.00136628
C 8.80720164 0.14204549 17.01945075 -0.00323714 -0.00433659 -0.00227057
C 5.99739427 3.10591512 20.84488321 0.00145843 -0.00062431 -0.00457942
C 9.24546665 0.13784029 21.91696567 -0.00126178 0.00179382 -0.00100413
C 6.57933783 8.78160396 1.69821238 0.00018124 -0.00162432 0.00120247
C 9.68172853 5.95764412 3.07617310 -0.00216897 0.00015756 0.00204658
C 6.40898541 8.68971814 6.39027970 -0.00325820 0.00233610 -0.00638957
C 9.49331440 6.01568831 7.75047749 0.00252673 0.00277633 -0.00649516
C 6.08426933 8.85395574 11.05408765 0.00371102 -0.00209865 -0.00465161
C 9.57174825 6.06647933 12.39960077 0.00005003 0.00584508 0.00129556
C 6.26895028 8.74068311 15.94533498 -0.00249069 -0.00430444 -0.00553835
C 9.54692995 5.76942127 17.19066447 -0.00272329 -0.00913986 0.00003423
C 6.63866121 8.54491731 20.56448620 0.00067314 -0.00054899 -0.00047089
C 9.71578847 5.89724770 22.05195144 -0.00103712 0.00076606 -0.00215777
C 7.00958375 14.11557589 1.68063632 -0.00352610 0.00381409 -0.00609673
C 10.11148690 11.45513183 3.06366720 -0.00005946 -0.00362446 -0.00650681
C 7.02592913 14.46979424 6.50394828 0.00104766 -0.00559719 0.00033178
C 9.96418470 11.19739338 7.68882259 0.00056371 0.00443071 0.00486483
C 6.71876112 14.65993782 11.24014646 0.00242046 0.00314313 0.00426177
C 10.03181210 11.58670234 12.56947281 0.00029019 0.00060255 -0.00294557
C 7.01831302 14.65953819 15.84053104 -0.00358128 0.00106769 0.00510198
C 9.93615730 11.37341523 17.25271929 -0.00092390 0.00313171 -0.00474002
C 6.82823316 14.50679660 20.56665210 -0.00005243 -0.00488653 -0.00300655
C 9.88625218 11.53157873 21.83072057 0.00337902 0.00112597 -0.00314405
C 6.21569713 21.38599652 1.66861909 0.00233567 -0.00237153 0.00308091
C 9.50313256 18.24861724 2.97442192 -0.00080329 0.00552871 -0.00011507
C 6.26640246 20.83716507 6.37376150 -0.00037682 -0.00164013 -0.00259365
C 9.37189660 18.12882659 7.72123880 0.00552595 0.00126839 0.00935135
C 6.03772973 21.21996485 11.06079455 0.00051110 -0.00237387 0.00548221
C 9.39269839 18.07202460 12.44222392 0.00449251 -0.00041943 0.00145883
C 6.04779424 21.24695264 15.75500770 -0.00314113 -0.00337560 0.00417805
C 9.36115091 18.11796950 17.15714694 0.00093186 0.00500951 -0.00844828
C 6.29983339 21.17628269 20.45056277 0.00148242 -0.00788263 0.00258603
C 9.13141703 17.96362429 21.77588556 -0.00356208 -0.00405538 -0.00132440
C 5.74015682 27.78027972 1.65621231 -0.00426435 0.00159885 -0.00000391
C 8.57677954 24.76367482 3.00925925 -0.00611893 -0.00346772 -0.00402970
C 5.54471443 27.77756150 6.34893743 -0.00293815 0.00279505 -0.00042046
C 8.48949353 24.53304094 7.75439662 -0.00203206 0.00315922 -0.00193503
C 5.63969176 27.78156584 11.14785317 -0.00418188 0.00121095 0.00083958
C 8.76895632 24.91582830 12.39418514 -0.00081308 0.00000780 0.00444344
C 5.55621320 27.69217373 15.81120411 -0.00576845 -0.00030660 -0.00292080
C 8.91638694 24.75312091 17.05728186 0.00312388 -0.00466765 0.00405727
C 5.60366735 27.63516365 20.58647638 -0.00557127 0.00002312 -0.00443867
C 8.94971494 24.86259589 21.81150575 0.00191708 0.00286017 0.00128629
C 12.77555428 2.85285343 1.91094701 -0.00607250 0.00337432 -0.00414969
C 15.58024202 29.89550362 3.14836043 0.00068047 0.00494697 0.00207043
C 12.56925304 2.92702983 6.60476243 -0.00170394 0.00032208 -0.00241341
C 15.78192348 30.05355166 7.75210931 -0.00138148 0.00316987 0.00952700
C 12.82120253 2.75693818 11.27596818 0.00599292 -0.00277468 0.00202804
C 15.98003118 0.02547719 12.31815378 0.00230307 0.00212017 -0.00053011
C 12.63652097 2.73695102 15.86539121 -0.00212664 0.00207758 0.00350438
C 15.85804133 30.20764705 17.19138098 0.00218762 0.00069935 0.00155710
C 12.57173535 3.05249085 20.76937602 0.00000465 -0.00959996 0.00005068
C 15.71868296 30.13094471 21.88956733 -0.00172236 0.00143308 0.00222961
C 13.36738135 8.53219781 1.77981259 0.00259057 0.00765067 0.00451939
C 16.16905452 5.23868030 2.85589794 -0.00177474 -0.00517301 -0.00492013
C 13.21610061 8.63589655 6.40040187 0.00047620 0.00293913 0.00844354
C 16.16994235 5.33506483 7.65861544 -0.00445518 0.00033373 -0.00116883
C 12.87367872 8.93606191 11.18199610 0.00300883 0.00406411 0.00329892
C 16.33079878 5.66921077 12.39766683 0.00037239 -0.00407699 -0.00405585
C 13.13434432 8.41601743 15.88869202 0.00467778 0.00144195 -0.00034050
C 16.17467242 5.23091234 17.01926655 -0.00187707 0.00343592 -0.00116166
C 13.41609428 8.35197430 20.63623783 -0.00453002 -0.00409758 -0.00476230
C 16.21074895 5.45354168 21.72160694 -0.00227994 0.00142144 0.00152501
C 12.36478625 14.91386544 1.65525857 0.00196883 -0.00215536 0.00412588
C 15.52336706 11.99148395 3.12347701 0.00111550 -0.00593085 0.00384384
C 12.45299932 14.95160781 6.55830497 -0.00506559 0.00177887 0.00625867
C 15.76727299 12.15661132 7.75228792 -0.00638818 -0.00008984 0.00275586
C 12.34139945 15.07420058 11.25297648 -0.00449395 -0.00533944 -0.00364094
C 15.73727508 12.04722966 12.50560820 -0.00372139 0.00370522 -0.00128047
C 12.54717902 14.98217932 15.92439363 -0.00562596 -0.00292004 0.00118856
C 15.84545012 12.14584507 17.07176728 0.00224598 0.00138073 -0.00109837
C 12.32901170 14.88274371 20.40505226 0.00223810 -0.00122968 -0.00213953
C 15.72655437 12.07429367 21.93769743 -0.00093643 0.00257432 -0.00736752
C 11.71266039 21.83181172 1.70380665 -0.00464149 -0.00403280 0.00036963
C 15.10830248 18.79593531 2.77980307 -0.00564989 0.00354314 0.00176852
C 11.64560781 21.65849150 6.49892261 0.00282156 0.00115958 -0.00645908
C 14.72398692 18.53030197 7.53691318 -0.00389268 -0.00144242 0.00018710
C 12.04521648 21.92854991 11.21734711 -0.00061231 0.00001366 0.00096809
C 15.34588248 18.94277118 12.28878214 0.00099178 0.00470096 -0.00199806
C 11.67477240 21.81519401 15.77188924 -0.00057889 -0.00260746 -0.00026395
C 15.04928070 18.77910026 17.06827630 0.00019870 -0.00052371 -0.00717347
C 11.83362271 21.98865058 20.41311762 -0.00302355 0.00229284 0.00216191
C 14.70168047 18.82944680 21.70838192 -0.00030967 0.00606519 -0.00211201
C 12.54264068 27.54870908 1.79164837 0.00328730 -0.00114444 -0.00322125
C 15.42464397 24.34478812 2.97911217 0.00499290 -0.00227229 0.00019788
C 12.09816369 27.54267003 6.43657807 -0.00300728 0.00505556 -0.00482809
C 15.25371219 24.46133507 7.77179842 0.00330452 0.00224300 0.00305051
C 12.03604963 27.34607514 11.12002560 0.00010887 0.00286797 -0.00593983
C 15.51115605 24.52701352 12.33187960 -0.00819539 0.00053812 -0.00300279
C 12.30323379 27.44593902 15.74558616 -0.00355557 -0.00151767 -0.00323632
C 15.68111144 24.84467057 17.11144891 -0.00517858 0.00330199 0.00546478
C 12.20021198 27.57518324 20.50208855 0.00318668 0.00092920 -0.00036791
C 15.21696390 24.60735572 21.85384417 -0.00166795 0.00171736 0.00028114
C 19.57842285 2.41931405 1.62398540 -0.00400692 -0.00731992 -0.00486063
C 22.68252806 29.55131486 3.14672731 -0.00196933 0.01055366 -0.00560228
C 19.34063275 2.31749033 6.40483875 -0.00228653 -0.00362435 0.00016034
C 22.38903730 29.79459684 7.85192658 0.00631165 0.00076985 -0.00139522
C 19.58350991 2.42171830 11.05668665 0.00438247 -0.00289660 -0.00165821
C 22.28462517 29.72557417 12.48170495 -0.00208969 0.00105266 -0.00704550
C 19.21456339 2.37281951 15.78112747 -0.01141234 0.00482196 -0.00429805
C 22.60778711 29.75708225 17.27336060 0.00126635 0.00140584 -0.00012564
C 19.40882915 2.23407676 20.41220867 0.01019493 -0.00494848 -0.00154606
C 22.41557124 29.41005056 21.79880566 -0.00480003 0.00118348 -0.00335743
C 18.55601614 9.06152977 1.80690857 -0.00085469 -0.00272469 0.00305370
C 21.76868780 6.19905851 3.11745334 -0.00147807 -0.00186306 -0.01138070
C 18.77252758 9.04514396 6.36956791 0.00172617 0.00230823 0.00913621
C 21.81209855 5.89574313 7.67008714 -0.00279399 0.00587055 0.00034149
C 18.75439171 8.88130724 11.27693398 0.00179533 -0.00621013 -0.00183054
C 21.97739063 6.18320869 12.45017049 0.00063898 0.00067645 -0.00341543
C 18.82285316 9.03526168 16.09657682 0.00222475 0.00076069 -0.00167723
C 21.81537896 6.05917662 17.08847707 0.00580091 -0.00991502 -0.00255721
C 18.65636948 9.22224171 20.64151378 -0.00130918 -0.00427502 0.00200097
C 21.83743124 6.10585708 21.95084956 0.00772107 -0.00442619 0.00312207
C 17.86758576 15.84372165 1.49567806 0.00569043 0.00053517 0.00063165
C 20.92699066 12.83420460 3.06251840 -0.00720736 -0.00246980 0.00224243
C 17.94376822 15.94489009 6.27376334 -0.00670125 0.00334383 -0.00448177
C 21.08353651 12.53376919 7.68632564 -0.00014327 -0.00100090 -0.00550693
C 17.95123664 15.69240893 11.32857416 -0.00408522 -0.00356449 -0.00129655
C 21.34412238 12.70329164 12.41232766 -0.00061638 -0.00181775 -0.00190407
C 17.96564331 15.66488102 15.96327281 -0.00075541 -0.00329020 0.00393019
C 21.43515490 12.99090190 17.08187795 -0.00161973 0.00348096 -0.00081494
C 18.03232215 15.79917492 20.34117272 -0.00422327 0.00003690 -0.00278508
C 21.08020133 12.74433908 21.91166850 -0.00434419 -0.00557811 -0.00070071
C 18.63348978 21.54965954 1.76634607 -0.00312556 0.00028110 0.00015653
C 21.71938070 18.38736640 2.91741341 -0.00001302 0.00502849 0.00001730
C 18.55232009 21.24958007 6.37214010 0.00457519 -0.00569569 0.00512707
C 21.33604166 18.16357228 7.44111731 -0.00135943 -0.00297435 0.00230839
C 18.83710621 21.48933104 11.06492172 0.00508737 -0.00344617 0.00821356
C 21.62686569 18.33095690 12.25510988 -0.00105634 -0.00055734 -0.00206388
C 18.42917663 21.54737298 15.76114176 -0.00638302 0.00804413 0.00003217
C 21.78370591 18.58787112 17.01951517 0.00382427 -0.00091288 -0.00445233
C 18.43661335 21.22889887 20.32622194 0.00313472 0.00557535 0.00070805
C 21.45790422 18.68584016 21.80594022 -0.00445872 0.00117804 -0.00342299
C 18.86125065 27.00045771 1.60855249 0.00044197 -0.00068996 0.00174023
C 21.94228623 24.14582955 2.90520888 0.00118296 -0.00146560 -0.00006660
C 19.00053224 26.82997779 6.50991886 0.00289382 -0.00211438 -0.00160684
C 22.02636490 24.15751352 7.60105941 -0.00627445 -0.00305285 -0.00254932
C 18.95187400 26.95163710 11.02753118 -0.00576052 0.00039699 0.00252747
C 22.07975280 24.03431399 12.52375056 -0.00172637 -0.00226515 0.00502103
C 18.99462473 27.07761006 15.87314964 0.00525524 -0.00129601 0.00036097
C 21.87285335 24.14331522 17.16849204 -0.00408129 0.00463329 0.00613889
C 18.86725442 26.89925406 20.46714401 0.00037606 -0.00036964 0.00289259
C 22.32876884 24.01995106 21.99924678 0.00230849 0.00006312 -0.00092865
C 24.85924124 3.01938728 1.77303855 -0.00504559 -0.00770567 -0.00140462
C 28.24933717 0.25135592 3.11487932 0.00310480 0.00722098 -0.00113857
C 24.91287306 3.00331398 6.52877500 -0.00522318 0.00006050 -0.00803850
C 28.15646858 0.06227015 7.59410096 -0.00379769 0.00374049 0.00403890
C 25.10239588 3.09040446 11.21347781 -0.00082631 -0.00165906 0.00507909
C 27.87066395 0.03204208 12.33835425 0.00489698 0.00868582 -0.00054681
C 24.75028359 2.93807683 15.86426458 0.00427394 -0.00304023 0.00058349
C 27.84321715 30.20530256 17.11743017 -0.00040203 -0.00171869 0.00479623
C 25.09593223 3.29021981 20.82365885 0.00115439 0.00211629 0.00070100
C 28.05302870 0.23001750 21.95162583 -0.00304538 0.00038186 -0.00316173
C 24.16745050 9.88303909 1.72477687 -0.00019328 -0.00133326 -0.00420589
C 27.22247927 6.69080968 3.05116034 0.00344067 -0.00281683 0.00479057
C 24.41557871 9.70342002 6.44785774 -0.00234172 -0.00123798 -0.00110349
C 27.34336083 6.76118313 7.68930460 0.00637253 0.00460936 0.00618479
C 24.25133910 9.70003376 11.24532406 -0.00041763 0.00467944 -0.00740296
C 27.61843031 6.65029223 12.37604115 -0.00010837 -0.00302225 -0.00112690
C 24.55207057 9.56078766 15.79133199 -0.00240781 0.00195507 -0.00513918
C 27.35249720 6.32896511 17.05050130 0.00799241 0.00179213 0.00680467
C 24.30764543 9.76633987 20.55884651 -0.00192600 -0.00003974 -0.00072702
C 27.48041070 6.50286596 21.91078902 -0.00373166 0.00189893 0.00235277
C 24.33894516 15.61088790 1.71872561 -0.00110182 -0.00828595 -0.00641898
C 27.82604061 12.44306030 3.07627770 -0.00067347 -0.00073197 0.00631211
C 24.83325091 15.20638316 6.43016928 -0.00291946 0.00346729 0.00336491
C 27.69827985 12.14830656 7.77341587 0.00002176 0.00270208 -0.00200164
C 24.91827746 15.20824353 11.04962841 0.00191037 0.00386976 -0.00056655
C 28.03115298 12.38920835 12.42178327 0.00154906 0.00342643 0.00628395
C 24.74552005 15.13373697 15.67079051 -0.00143532 0.00166009 0.00751696
C 27.77773970 12.04750852 17.28446769 0.00246576 0.00452776 -0.00237827
C 24.64612047 15.37385315 20.45644286 -0.00137874 0.00484487 -0.00771612
C 27.86401895 12.42810943 21.86507287 -0.00119174 -0.00498391 0.00129241
C 25.10570620 20.87559562 1.81560990 0.00079637 0.00075324 0.00214594
C 28.33241239 17.91808803 2.79997092 -0.00650217 0.00241576 -0.00225261
C 24.91461991 21.07533434 6.41685011 -0.00098408 0.00047246 0.00437368
C 28.42558384 17.92948992 7.42642849 -0.00087580 0.00109278 0.00635428
C 25.18342094 20.77767095 10.98895112 -0.00974908 0.00456819 -0.00094306
C 28.24755186 17.86380675 12.36193463 0.00455516 0.00819260 -0.00731932
C 24.86868807 20.91733743 15.79634893 -0.00325058 0.00719318 -0.00236923
C 28.61439548 18.07027296 16.93084893 -0.00553985 -0.00649446 0.00619273
C 25.21463274 20.97896651 20.61245528 0.00200082 -0.00150292 -0.00030687
C 28.04440215 17.77733599 21.84532071 -0.00284216 0.00117540 0.00497230
C 25.62807161 26.65925092 1.70573384 0.00232057 -0.00350580 -0.00429582
C 28.59934637 23.64543795 3.01108450 0.00750502 -0.00258550 0.00193753
C 25.76814905 26.83525178 6.33563867 -0.00168149 -0.00741396 0.00262237
C 28.45612192 23.49147340 7.74090068 -0.00275822 -0.00432795 0.00605957
C 25.70402956 26.40220044 11.08365953 0.00843503 0.00175303 0.00144953
C 28.75546562 23.60848659 12.37705827 -0.00440193 0.00087113 0.00388407
C 25.51879894 26.50367428 15.89118537 0.00237161 -0.00692405 -0.00695887
C 28.60032370 23.45409675 17.07679481 -0.00027489 -0.00129764 -0.00184169
C 25.66488538 26.73917286 20.61733257 -0.00068066 0.00109052 -0.00590619
C 28.53770280 23.55017164 21.81074169 0.00494954 -0.00249487 -0.00669889
N 0.29533761 4.32477462 1.18978334 0.00789358 0.00288121 -0.00632324
N 3.83864322 5.49294033 3.73959350 -0.00327661 -0.00210133 -0.00143144
N 5.12840824 2.25324023 1.07441444 -0.00084856 -0.00614274 0.00155098
N 1.75905903 1.32247796 3.73532813 0.00410185 0.00027822 -0.00143204
N 0.26729922 4.51995869 5.62024528 -0.00176834 0.00063656 -0.00112600
N 3.70334388 5.40844408 8.48676151 -0.00227802 -0.00236613 -0.00278969
N 5.14418355 2.48792870 5.77570987 0.00741671 -0.00757807 0.00506952
N 1.80340869 1.65384866 8.42864869 -0.00316755 0.00248973 -0.00640888
N 0.39287487 4.44951025 10.33881551 -0.00494422 -0.00279685 0.00056507
N 3.29000485 5.26258873 13.31755621 0.00157925 -0.00384951 0.00405645
N 5.23989014 2.45017675 10.38046891 0.00012516 0.00384077 -0.00197122
N 1.79424856 1.52352416 13.02142501 -0.00025970 -0.00434245 0.00033183
N 0.26259976 4.43613726 15.16299093 0.00545295 0.00468182 -0.00257325
N 3.76871466 5.36125206 17.75485901 -0.00098309 0.00004101 0.00248697
N 5.13475266 2.46836469 15.33777800 -0.00145944 0.00265626 -0.00378175
N 1.82045182 1.22871799 18.04048422 -0.00845700 0.00644561 -0.00302908
N 0.17236482 4.45691268 19.99337760 -0.00194790 0.00757362 -0.00484069
N 3.62672241 5.13356113 22.91937667 -0.00607994 0.00477460 -0.00541698
N 5.12733828 2.32749759 20.12970665 0.00385337 0.00045712 -0.00064758
N 1.56998825 1.37352242 22.62762594 0.00100698 0.00336142 0.00207428
N 0.54243650 10.08204586 1.25895795 0.00305751 0.00341996 0.00685767
N 4.00838996 10.92311822 3.62849974 -0.00923083 0.01704983 0.00838589
N 5.79564437 7.99166817 0.95660067 0.00024932 -0.00211410 0.00206802
N 2.40378788 7.25015746 3.99688866 -0.00504360 -0.00145091 0.00977724
N 0.52888209 9.94843600 5.79110874 -0.00440464 0.00694582 -0.00683424
N 3.91788550 10.92225298 8.32575652 -0.00272967 0.00488845 -0.00207118
N 5.82966306 7.66762600 5.69386835 0.00158870 -0.00128125 -0.00247380
N 2.21153365 7.16484672 8.39575551 0.00196538 -0.00519531 0.00375779
N 0.62942024 10.02552009 10.37175451 0.00516875 -0.00224743 0.00843822
N 3.88009491 11.05887253 13.17065271 0.00089651 0.00300463 -0.00068204
N 5.49918254 7.96952846 10.21687292 -0.00534975 -0.00070750 0.00052220
N 2.14270234 7.18855221 13.09960941 0.00150875 0.00395444 0.00178876
N 0.57964157 10.17747657 15.13954397 -0.00586810 0.00438576 -0.00014922
N 4.32681880 11.22045570 17.76473385 0.00005709 -0.00136694 -0.00703634
N 5.50183427 7.97298864 15.17028106 0.00014570 0.00094293 0.00724427
N 2.16512302 7.03930885 17.92592822 -0.00448566 0.00353497 0.00328173
N 0.58289442 9.87753432 19.88426708 -0.00503510 -0.00609407 0.00773852
N 3.86928457 10.45169481 22.45298829 -0.00533458 -0.00563811 -0.00100079
N 5.68694875 7.85989475 19.89401790 -0.00216545 0.00058751 0.00186135
N 2.17741471 6.96258620 22.64263319 -0.01215151 0.00176120 -0.00085541
N 1.33404917 15.31407665 1.00495682 0.00328783 -0.00142343 -0.00213442
N 4.90775915 16.88008028 3.60443678 0.00747382 0.00276207 -0.00537340
N 6.09260016 13.33320805 1.01527297 -0.00210296 0.00049049 0.00048123
N 2.64737005 12.79566810 3.75524929 -0.00396715 0.00517993 0.00849390
N 0.74731527 15.70627826 5.70321120 -0.00046218 -0.00381165 -0.00074024
N 4.53802563 16.71356560 8.17571159 0.00238327 0.00187917 0.00170325
N 6.19813698 13.62588470 5.78368857 -0.00596969 0.00198310 -0.00092182
N 2.73788741 12.88875719 8.46008763 0.00726822 0.00052560 0.00217802
N 1.00835486 15.80070084 10.51565652 -0.00147952 -0.00203445 0.00041656
N 4.56810696 16.83606315 12.98143510 0.00428802 0.00425716 0.00096503
N 5.99438766 13.88431094 10.43153582 -0.00204237 0.00265574 -0.00350105
N 2.72911592 12.99309649 13.33590904 -0.00847018 -0.00295879 -0.00571715
N 0.96770321 15.90291694 15.07213946 -0.00024230 -0.00271032 -0.00109785
N 4.68050273 16.97286812 17.61626629 -0.00123180 -0.00334269 0.00108759
N 6.26479761 13.79671008 15.15220120 0.00316625 -0.00228337 0.00158260
N 2.85146883 12.99333837 17.76300612 -0.00002374 0.00183579 0.00116359
N 1.11925177 15.79498134 19.85060397 -0.00370282 0.00133501 0.00486437
N 4.28322727 16.53313843 22.50924748 -0.01113657 0.00086747 -0.00611309
N 6.06209213 13.63662541 19.82113734 0.01103993 0.00822356 -0.00277229
N 2.84510248 12.49613685 22.48915948 -0.00255896 -0.00207342 0.00704383
N 1.52977712 21.36210885 1.03372066 -0.00576370 0.00043258 0.00256968
N 3.93089532 23.67736293 3.86031205 -0.00222977 0.00566304 0.01007817
N 5.34446368 20.59935543 0.95381254 -0.00883514 -0.00733145 0.00257502
N 2.98545484 18.02737138 3.60920177 -0.00369968 0.00139972 0.00357849
N 1.42074354 21.40661795 5.57768051 0.00005119 -0.00030861 -0.00489094
N 4.29237529 23.69007821 8.31651452 -0.00445926 -0.00485116 -0.00127336
N 5.56566043 19.88909041 5.66244490 0.00290707 0.00078410 0.00067950
N 2.60211374 17.99478251 8.33549019 -0.00084598 0.00033634 0.00090816
N 1.48262074 21.24837864 10.33343443 -0.00465534 -0.00185450 -0.00595800
N 4.12476011 23.64887885 13.13089056 0.00443076 -0.00295483 -0.00455932
N 5.23939844 20.52795463 10.22910468 0.00379518 0.00449611 -0.00630699
N 2.67059789 18.14619775 12.95290987 -0.00437853 -0.00626097 0.00664149
N 1.44200469 21.39554493 15.10732529 0.00550174 0.00175196 -0.00793795
N 4.11910055 23.72883716 17.90741828 0.00237290 -0.00418183 0.00250228
N 5.39931904 20.35098849 15.02641211 -0.00271859 -0.00106655 0.00643682
N 2.86453566 18.32329924 17.79068349 0.00542385 -0.00211769 0.00289205
N 1.24883178 21.42712811 19.83237787 -0.00341795 0.00263711 0.00525553
N 3.97280419 23.42669853 22.47443048 -0.00023205 0.00051130 -0.00076826
N 5.43688650 20.55658771 19.63350496 0.00308699 -0.00310389 -0.00036175
N 2.85000268 18.36690103 22.49026211 0.00166656 0.00027399 -0.00238149
N 0.77584677 27.85477410 0.90915735 0.00498904 0.00313999 0.00485239
N 3.44776382 29.98215069 3.61070318 0.00844308 0.00019175 0.00140564
N 4.99895879 26.90840881 0.96017715 -0.00207898 0.00433051 0.00969084
N 2.01300721 24.98667287 3.83335990 -0.00461216 0.00205546 0.00159587
N 0.82585346 28.11144116 5.61575428 0.00881938 0.00610006 -0.00939092
N 3.26368565 30.17465750 8.45648763 0.00094250 -0.00431104 -0.00091321
N 4.78723501 27.04923378 5.58696587 -0.00306580 0.00088265 -0.00318629
N 2.34102491 24.77447530 8.56534172 -0.00082831 -0.00242780 0.00691101
N 0.77016300 27.99055797 10.38515370 0.00128974 0.00315823 -0.00211666
N 3.40906342 30.13530165 13.25074205 0.00208118 0.00517607 0.00712001
N 4.83049547 26.95205992 10.49314683 0.00115199 0.00147070 0.00132774
N 2.04737237 24.79699137 12.96005833 0.00010731 -0.00020951 -0.00317850
N 0.51911311 27.90916405 15.18708055 -0.00060161 -0.00307400 0.00100565
N 3.74256234 0.00750829 18.05657347 -0.00063682 -0.00489563 -0.00550863
N 4.61519159 27.05523542 15.06555525 -0.00409120 0.00073934 -0.00091281
N 2.29468295 25.08301103 17.90814830 -0.00175807 -0.00319882 0.00323116
N 0.77106902 28.12524418 19.63122410 0.00074395 -0.00146108 -0.00540242
N 3.10744099 29.84342523 22.61366132 0.00009193 -0.00616034 -0.00517753
N 4.91507711 26.76804788 19.81320070 0.00284566 -0.00456903 -0.00125540
N 2.06114433 24.74128105 22.58538322 -0.00396637 -0.00014593 -0.00187528
N 6.82822270 3.83972362 1.19104727 0.00274297 0.00263768 0.00193090
N 10.29144850 5.03478416 3.80870733 0.00344997 0.00019303 0.00241082
N 11.92362424 1.98702392 1.30200590 0.00061802 0.00010405 -0.00205195
N 8.49410183 1.16103928 3.76772440 0.00211198 0.00014704 0.01372538
N 6.97221560 3.93040768 5.83828392 0.00244853 -0.00809288 -0.00247726
N 10.10121616 5.15166138 8.64049513 0.00177498 -0.00097465 -0.00242476
N 11.58301117 2.20005326 5.93363079 0.00694714 0.00348086 0.00352461
N 8.36613855 1.12298037 8.38893565 0.00404454 0.00243714 -0.00337377
N 6.68298203 4.28775951 10.28129813 0.00684031 0.00839894 -0.00558573
N 9.89593391 4.90005333 13.05438745 -0.00166293 -0.00492743 -0.00504068
N 11.95406396 2.03614056 10.58809114 0.00390914 0.00655833 0.00510801
N 8.43696808 1.31229167 13.11214347 0.00102130 0.00009249 0.00549518
N 6.66593811 4.13964520 15.20971940 0.00191368 0.00283336 0.00207513
N 10.24273803 4.78416409 17.83954056 0.00005826 0.00057706 0.00119522
N 11.86654731 1.98603768 15.07245757 0.00284598 0.00164496 -0.00128807
N 8.21889428 0.95833793 17.95693231 0.00341954 0.00406979 -0.00058431
N 6.75359741 3.98181152 20.05007454 0.00123012 0.00130206 -0.00249810
N 10.28305040 4.80287525 22.64781274 -0.00522464 0.00110716 0.00826572
N 11.77986850 2.23619015 20.09127785 -0.00078646 0.00100623 -0.01023620
N 8.78231065 1.31432146 22.51303397 -0.00308383 0.00658967 0.00096499
N 7.40164937 9.65336914 1.01308915 -0.00849966 0.00103805 -0.00294390
N 11.00507727 10.82948923 3.79798045 0.00530436 -0.00186607 -0.00105551
N 12.55758038 7.71370475 1.10907795 0.00387038 0.00362607 -0.00171509
N 9.17805017 6.97170404 3.81393115 0.00427768 0.00427733 0.00177620
N 7.11597469 9.54150515 5.63751832 -0.00066090 -0.00392915 0.00318084
N 10.83953838 10.56306270 8.48243224 0.00022522 -0.00151443 -0.00015785
N 12.46176258 7.69987206 5.62487266 -0.00432945 -0.00795684 0.00453658
N 8.80944756 7.04543650 8.31467179 0.00097989 -0.00208230 0.00365832
N 6.82417397 9.85642000 10.49569671 0.00132174 -0.00899395 -0.00167456
N 10.74344024 10.72769730 13.29724144 0.00090051 -0.00135844 -0.00048327
N 12.03950499 8.13928153 10.50705756 -0.00251033 -0.00008638 -0.01212375
N 8.91223246 7.02919507 13.10119491 -0.00330516 0.00398446 0.00140048
N 7.08887486 9.60414351 15.15354950 -0.00517069 0.00116524 -0.00166102
N 10.57449890 10.43991427 17.97871135 0.00200038 0.00081187 -0.00266666
N 12.23353628 7.67327814 15.13761169 -0.00281400 0.00455081 0.00361250
N 8.84178057 6.63167277 18.02794394 -0.00042450 -0.00074327 -0.00616398
N 7.35439668 9.45515376 19.85440734 0.00170383 -0.00011350 0.00517514
N 10.83280183 10.86250768 22.65120577 -0.00214046 -0.00583096 -0.00896246
N 12.48595206 7.51599280 19.99239042 -0.00241799 0.00122230 -0.00017104
N 9.07286565 6.83725505 22.75281200 -0.00720791 -0.00068795 0.00312841
N 7.75663973 14.85482354 0.82150478 -0.00407352 0.00084735 -0.00460363
N 10.47163707 17.54937597 3.59907597 0.00535062 -0.00821568 0.00035667
N 11.35986795 14.23395362 1.03267919 0.00082637 -0.00292933 -0.00260501
N 9.24183796 12.27757893 3.76136757 -0.00459894 -0.00090639 -0.00113829
N 7.78586648 15.35178270 5.81913419 0.00266198 -0.00177032 -0.00328194
N 10.36283149 17.41376568 8.30117524 0.00448045 -0.00212855 -0.00541459
N 11.40662988 14.20022870 5.98628469 0.00154511 -0.00376328 0.00217841
N 9.21071718 12.15519850 8.38228065 0.00261413 0.00038648 -0.00402353
N 7.56882685 15.52290315 10.57846651 0.00810850 0.00143400 -0.00111948
N 10.40911463 17.50800462 13.16793661 -0.00303892 0.00556814 -0.00606690
N 11.64461067 14.34141372 10.35045176 0.00279030 -0.00158764 -0.00013452
N 9.09707423 12.35350416 13.17174994 -0.00046876 -0.00769526 0.00419013
N 7.76827335 15.55490222 15.12178432 -0.00027889 0.00476640 -0.00320041
N 10.30616569 17.56809609 17.93567225 -0.00262133 -0.00472209 -0.00158536
N 11.68855004 14.09831337 15.40428242 -0.00088133 -0.00261874 0.00327262
N 9.21203952 12.29790236 17.92705399 0.00654839 -0.00531513 -0.00765339
N 7.58833030 15.32987029 19.81072172 0.00321548 0.00261398 -0.00285474
N 10.15240984 17.25158882 22.33337611 0.00182142 0.00112079 -0.00055178
N 11.49240043 14.16707930 19.53850275 0.00130624 0.00706001 0.00251881
N 8.92147640 12.28693978 22.46167717 -0.00243055 0.00591377 -0.00117229
N 6.94236139 22.25464292 0.85273369 -0.00310977 0.00198791 0.00312530
N 9.25444662 23.91088974 3.79975641 0.00030910 0.00510404 -0.00130762
N 10.88401399 21.14807953 0.81742218 -0.00134755 -0.00097667 -0.00628301
N 8.46867731 18.58184964 3.72612757 -0.00060444 -0.00159808 0.00241483
N 6.83642871 21.84862068 5.63507258 0.00251392 0.00682408 0.00359346