2000
Time=19999.99999999 pbc="T T T" Lattice="31.03044223 0.00000000 0.00000000 0.00000000 30.08668732 0.00000000 0.00000000 0.00000000 23.73564975" energy=-12040.65095282 virial="-67.26860121 -7.92603162 -24.49267066 -7.92603162 -69.81168304 -11.50005446 -24.49267066 -11.50005446 -149.36012694" stress="-0.00098581 -0.00034918 -0.00115660 -0.00034918 -0.00118574 -0.00049012 -0.00115660 -0.00049012 -0.00386661" Properties=species:S:1:pos:R:3:vel:R:3
C 30.17023667 3.69532008 1.85970453 -0.00595184 -0.00763882 0.00848076
C 2.37334242 0.55470518 3.16932082 -0.00126942 -0.01311214 0.00196360
C 30.25021253 3.65647026 6.50735797 0.00052029 -0.00606899 0.00057489
C 2.48248005 0.71456352 7.83903309 -0.00032055 -0.00881539 -0.00864082
C 30.28124245 3.46055554 11.21083094 0.00045622 -0.00687378 0.00796283
C 2.36214843 0.43612842 12.61955659 0.00238691 0.00364236 -0.00281276
C 30.50225840 3.50024499 15.92580159 -0.00108316 -0.00216802 0.00034774
C 2.64086558 0.62557001 17.03448187 0.00177587 0.00501673 -0.00038207
C 30.52193580 3.39449088 20.69245131 -0.00076532 -0.00007289 0.00855396
C 2.55483111 0.45322927 22.02830872 -0.00566855 0.00722158 -0.00358995
C 30.86892055 9.15018697 1.66839523 0.00875990 0.00658811 -0.00065454
C 2.64178408 6.03662565 3.08499507 0.00215401 0.00248310 -0.00713865
C 30.65950242 9.60706241 6.49416059 0.00437576 0.00122443 0.00627264
C 2.82661958 6.27463787 7.81862997 -0.00956449 -0.00236389 0.00666159
C 30.86130640 8.98274056 11.07458990 -0.00022349 0.00406301 -0.00199715
C 2.77253743 5.88680818 12.44483436 0.00340899 -0.00200619 0.00024372
C 30.78782459 9.22135671 15.96960126 -0.00100850 -0.00301665 0.00094562
C 3.02408101 6.34748097 17.33280641 0.00261119 -0.00459208 -0.00007851
C 30.58963882 9.21092030 20.66364089 0.00010650 0.00388686 -0.00222884
C 2.69784560 6.24152864 21.89232189 0.00169883 -0.00437057 -0.00458962
C 0.46576088 15.06267266 1.68783889 -0.00816023 0.00037211 -0.00184339
C 3.31086007 11.74548841 3.20488337 -0.00191052 -0.00094848 0.00087592
C 0.19857342 14.80186750 6.38248689 -0.00770215 -0.00472182 0.00499946
C 3.26239808 11.71491001 7.78054520 -0.00282259 0.00512226 0.00248209
C 0.46414794 14.83980727 11.11091495 0.00267235 -0.00343921 -0.00186369
C 3.42196537 11.79377745 12.58366853 0.00602212 0.00893428 -0.00291386
C 0.20759268 14.93842540 16.06968993 0.00420099 0.00465986 0.00251913
C 3.23015868 11.89734891 17.40909981 -0.00488303 0.01007156 0.00372523
C 0.17921088 14.82720246 20.78838740 -0.00305286 -0.00323106 0.00352963
C 3.18454872 11.75782022 22.16423799 0.00111815 0.00017616 0.00579384
C 0.74005807 20.58002613 1.76050364 0.00153538 -0.00020409 0.00320226
C 3.79778436 17.71179866 2.90519421 -0.00246567 -0.00526688 -0.00044619
C 0.64971471 20.61646995 6.43664621 -0.00072707 -0.00333207 -0.00295873
C 3.70104211 17.41927651 7.69764793 -0.00787047 0.00458886 0.00036186
C 0.70647343 20.57865029 11.24612960 -0.00183665 0.00608280 0.00538396
C 3.73789718 17.64378221 12.49950829 -0.00657018 0.00288707 0.00000084
C 0.68628737 20.32638496 16.12407530 -0.00009472 0.00720831 -0.00614673
C 3.85935567 17.48665753 17.26750152 -0.00398850 -0.00119068 0.00033447
C 0.57112652 20.52731862 20.81805537 -0.00252705 -0.00039947 0.00210877
C 3.74512710 17.58632933 21.99410443 0.00356870 -0.00185054 0.00271364
C 31.02388228 27.14523140 1.87294485 -0.00072814 -0.00605894 0.00207117
C 2.92858432 24.25484353 2.85331253 -0.00020738 -0.00495497 -0.00062211
C 0.23004631 26.93862096 6.43955887 -0.01042526 -0.00006661 0.00351601
C 3.12214311 24.14602161 7.62075856 0.00430102 -0.00504032 -0.00046421
C 30.92766228 27.35252474 10.99185263 0.00419741 0.00543816 -0.00756867
C 3.02262901 23.99329281 12.45072607 0.00369189 -0.00163649 -0.00023202
C 30.81150366 27.27192876 15.84167937 0.00489909 0.00120511 -0.00465821
C 3.11863921 24.07246998 17.35505315 0.00205488 0.00428122 -0.00197295
C 0.01122657 26.97909116 20.63693326 0.00054049 -0.00102889 -0.00626382
C 3.18527843 24.13708229 22.01567422 0.00200422 -0.00180199 -0.00153523
C 5.91707886 3.02627712 1.76972117 0.00031745 -0.00297589 0.00100523
C 9.09371218 0.07763848 3.31734888 -0.00158223 0.00354976 -0.00383718
C 6.09641734 3.26060519 6.62227132 0.00099452 -0.00394226 0.00110336
C 9.38446729 0.21060492 7.87682913 -0.00003179 -0.01042513 -0.00066360
C 6.07682761 3.21903120 11.09965968 -0.00392650 -0.00320071 -0.00485146
C 9.27188446 0.15089478 12.54808709 0.00046220 0.00288260 -0.00177504
C 5.84170369 3.33410272 16.03627392 0.00266551 0.00180626 -0.00129884
C 9.12681455 0.21435454 17.06579042 0.00179260 0.00866406 -0.00034898
C 5.88872162 3.34592777 20.61544307 -0.00137859 -0.00015762 0.00480948
C 9.27911255 0.47220901 22.10628833 0.00277658 0.00061030 -0.00837349
C 6.34800094 8.76549092 1.73496301 0.00178216 0.01043039 -0.00086654
C 9.57250026 5.78917543 2.82785971 0.00394517 0.00801966 0.00054883
C 6.13211023 8.69379784 6.51786113 -0.00447200 -0.00077804 0.00346239
C 9.41777897 5.74387907 7.50779593 0.00335811 -0.00301509 -0.00074691
C 6.30930180 8.75247955 11.05732907 0.00089281 -0.00750067 -0.00073906
C 9.45768852 5.87823605 12.35851298 -0.00519604 0.00115590 -0.00040556
C 6.35421110 8.89520342 15.89682343 -0.00444775 -0.00397556 -0.00147533
C 9.43601164 5.74559469 17.16920995 -0.00526254 0.00679367 -0.00790877
C 6.32496427 8.79945031 20.80897104 -0.00753327 -0.00294108 -0.00581751
C 9.30869333 5.74046635 21.97358202 -0.00370257 -0.00236793 -0.00183834
C 6.75718276 14.35103687 1.63855932 0.00036377 -0.00353370 -0.00203693
C 9.72689171 11.22917858 2.94541211 0.00236514 -0.00384149 0.00079311
C 6.92228833 14.30296722 6.35178408 -0.00456718 -0.00371135 -0.00702399
C 9.84968836 11.37121985 7.58286498 -0.00471741 0.00229307 -0.00103743
C 6.87824307 14.42851789 11.30835068 -0.00245566 -0.00124678 0.00048213
C 9.98600881 11.54140972 12.33714149 -0.00087577 -0.00382754 -0.00057346
C 6.67629271 14.41007395 15.95297985 0.00265393 -0.00561363 -0.00587005
C 9.92780187 11.34037477 17.17900329 0.00312130 -0.00007435 -0.00617329
C 6.71423970 14.51470451 20.65865605 -0.00504768 0.00261011 -0.00679247
C 9.91379195 11.45667055 22.11123736 -0.00217114 -0.00186630 0.00186305
C 6.53168435 21.16740365 1.76102863 -0.00008179 -0.00105227 -0.01037924
C 9.61992257 18.16214457 3.19485111 -0.01241245 -0.00885618 0.00070454
C 6.31667318 21.04118923 6.36361658 0.00198213 -0.00273499 0.00076259
C 8.96772451 17.99565254 7.92399783 -0.00166947 -0.00130980 0.00592307
C 6.11764743 21.44895273 11.28709204 0.00713267 -0.00451343 0.00061989
C 9.31866572 18.28667735 12.64247282 0.00048222 -0.00623964 0.00354011
C 6.32265785 21.07354684 16.23373812 -0.00538082 -0.00250360 -0.00146684
C 9.40759989 17.89342046 17.31981678 0.00518441 0.00218894 0.00118087
C 6.23501538 21.22417440 20.95375275 -0.00149232 -0.00227805 -0.00506956
C 9.33460607 17.82615103 22.06182181 -0.00126144 0.00437443 -0.00077430
C 5.73896289 27.84942970 1.57602792 -0.00555419 0.00108901 0.00057364
C 8.52255657 24.58041303 3.14093915 0.00002283 0.00523959 0.00151248
C 5.58103609 27.93510011 6.67843354 -0.00068986 -0.00053651 0.00003667
C 9.11413157 24.77525641 7.66502831 -0.00191213 -0.00012908 0.00429577
C 5.79382504 27.60585203 11.13223670 -0.00108638 -0.00113169 0.00447712
C 8.91548442 24.79530268 12.44910551 -0.00330887 0.00057984 -0.00612807
C 5.57533635 27.70847801 15.95585397 0.00229900 -0.00028965 -0.00168111
C 8.89953476 24.73333583 17.25146681 -0.00127741 -0.00470453 -0.00038932
C 5.58130069 27.70009882 20.65565943 0.00119274 0.00456769 -0.00546488
C 8.60542645 24.58692229 22.07151528 -0.00058108 -0.00129348 0.00540185
C 12.68260452 2.93047707 1.72494641 -0.00125930 -0.00456481 -0.00366325
C 15.76592808 29.97042562 3.12027884 -0.00262424 -0.00035976 0.00184694
C 12.94774394 2.55689122 6.30338258 0.00349708 0.00624866 0.00193687
C 15.84922940 30.06324233 7.73478958 -0.00205623 0.00257649 -0.00004813
C 12.69528745 2.93265269 11.32118372 -0.00288311 -0.00152371 -0.00343818
C 15.83813532 30.05633116 12.37494733 -0.00094301 0.00098182 0.00624601
C 12.62930609 2.82509375 16.08992435 0.00187404 0.00086589 -0.00198672
C 15.76194389 30.01822206 17.19454672 -0.00403937 -0.00232811 0.00005335
C 12.38177998 2.68303842 20.89277155 -0.00162594 -0.00388177 0.00425112
C 15.97075881 30.01486135 21.90195812 -0.00259267 0.00091812 0.00125388
C 13.29418439 8.48897568 1.55150214 -0.01050923 0.00128756 -0.00132801
C 16.06182977 5.52593322 3.07359722 0.00493140 0.00348355 -0.00392944
C 12.86215680 8.26431911 6.42342158 0.00525835 -0.00685422 -0.00137050
C 16.09621942 5.77351218 7.91960830 -0.00075868 0.00028652 0.00879548
C 12.81319325 8.60060939 11.10047412 -0.00154998 -0.00655376 -0.00069722
C 16.08074427 5.69236916 12.66007366 -0.01281003 0.00234883 0.00730804
C 13.00784934 8.44867386 15.86044143 -0.00458370 -0.00242027 0.00829784
C 16.26946206 5.55297861 17.25463627 0.00223785 0.00207267 -0.00000397
C 12.86819294 8.45331635 20.79189122 -0.00306483 0.00167311 0.00234815
C 15.98925079 5.40826202 21.73171413 0.00258824 -0.00028796 -0.00480578
C 12.35945292 14.84222144 1.66881699 0.00278203 -0.00133552 -0.00521481
C 15.46400647 11.96475344 2.96652158 0.00287414 0.00162422 -0.00000933
C 12.33035133 15.01743358 6.46720467 0.00113612 0.00259253 0.00071329
C 15.67021657 12.03877153 7.91190004 0.00215900 0.00638486 0.00254267
C 12.52616501 15.04389597 11.25530629 -0.00457313 0.00158143 -0.00348639
C 15.40707218 12.01678855 12.57638091 0.00039076 -0.00391075 0.00448377
C 12.44112567 15.11330519 16.04428638 0.00185811 0.00826941 0.00258576
C 15.45096007 11.81419684 17.15613968 -0.00755549 0.00030620 -0.00068168
C 12.44465214 15.02354768 20.67220460 -0.00043288 0.00502696 0.00066882
C 15.59507078 12.03284484 21.91631902 0.00234166 -0.00393167 -0.00150012
C 11.72586742 21.86287145 1.65526466 0.00192186 -0.00460809 0.00009721
C 15.14959440 18.59439765 2.94612182 -0.00462729 0.00224680 0.00640417
C 11.75344784 21.66591422 6.50241783 0.00517986 -0.00759403 -0.01066220
C 14.85018430 18.65550887 7.72026291 -0.00598617 -0.00714399 -0.00029652
C 11.76159471 21.62502996 11.17125650 -0.00633801 0.00535049 -0.00437161
C 14.88098320 18.33836171 12.58090535 -0.00178285 0.00161324 0.00009781
C 11.76678168 21.68111028 15.88244692 0.00042171 0.00335620 0.00183321
C 15.07566710 18.71010701 17.03929193 -0.00331430 0.00144008 -0.00329524
C 11.83441457 21.54736886 20.64895491 0.00196552 0.00618569 -0.00240480
C 14.75070972 18.69684518 22.00409077 -0.00190747 0.00451968 -0.00277587
C 12.22982022 27.55500285 1.90256767 -0.00358265 0.00378438 0.00346477
C 15.42287195 24.14988776 2.82643080 -0.00138381 0.00020450 0.00512429
C 12.43108304 27.30620222 6.56706970 -0.00183815 -0.00472431 -0.00268290
C 15.10035494 24.11045012 7.69003103 -0.00249124 -0.00404992 0.00258470
C 12.30548264 27.43216351 11.31220119 -0.00053860 0.00201363 0.00169201
C 15.34402829 24.11274499 12.47365121 0.00027179 0.00129987 -0.00743176
C 12.44503150 27.38162549 15.83494976 -0.00015134 0.00636872 0.00304540
C 15.37930576 24.16767486 17.02000023 0.00056980 -0.00358917 0.01128716
C 12.20971877 27.33982915 20.72106317 0.00064153 -0.00502627 -0.00271502
C 15.34672535 24.25921064 21.97625665 -0.00619879 -0.00258379 -0.00055982
C 19.25828425 2.53483460 1.70099340 -0.00122297 -0.00028434 0.00084775
C 22.18479438 29.48297256 3.07506084 0.00080300 -0.00464496 -0.00144159
C 19.26001681 2.26300867 6.36925739 -0.00457213 0.00568612 -0.00452756
C 22.34718038 29.22218783 7.89565225 0.00136949 -0.00040838 0.00243586
C 19.15885923 2.43884581 11.48437990 -0.00202269 0.00559210 -0.00657295
C 21.99066243 29.48664179 12.54628088 -0.00296473 -0.00203211 -0.00050848
C 19.37502387 2.50239292 15.99605585 0.00362960 -0.00067294 0.00299603
C 22.58605363 29.40937997 17.30774693 0.01002378 -0.00167743 0.00509629
C 19.10368254 2.45868644 20.77981573 -0.00169124 -0.00155745 -0.00256674
C 22.15846502 29.44048540 21.96347902 -0.00370791 0.00062580 0.00676531
C 18.63308697 8.87490169 1.64003736 0.00141140 0.00012789 -0.00408144
C 21.88593174 6.12138849 3.21587430 0.00328075 0.00287823 -0.00162048
C 18.55239360 9.02377311 6.74950076 -0.00017659 -0.00206823 0.00299726
C 21.88849811 5.88763714 8.01989943 -0.00285058 -0.00470623 -0.00362258
C 18.75094428 9.14884107 11.32100237 0.00364839 0.00798271 0.00822975
C 21.87251029 6.23871930 12.68368264 0.00208327 0.00407050 -0.00135535
C 18.83335109 9.11059932 15.97573883 0.00177768 0.00205165 -0.00298536
C 21.93031239 5.98709763 17.46596305 0.00116319 0.00161465 0.00071625
C 18.69946414 8.86306226 20.62473332 -0.00003610 0.00475095 -0.00100073
C 21.75400625 5.91070887 22.17231431 -0.00097917 0.00346055 0.00293004
C 17.96356618 15.68524621 1.72842349 -0.00584384 -0.00841761 0.00054066
C 21.14056232 12.53417070 3.11367400 -0.00500993 -0.00220956 -0.01054951
C 17.84012975 15.45682187 6.39300819 0.00329612 0.00152285 -0.00028881
C 21.28180959 12.50312428 7.87703883 0.00172202 -0.00167383 -0.00429428
C 18.05529371 15.35221394 11.17617129 0.00040802 -0.00568083 0.00218850
C 21.25301062 12.77233734 12.62561366 0.00023906 -0.00446257 0.00166158
C 18.08166593 15.40981283 15.91358580 0.00529781 0.00477235 0.00133271
C 21.18256470 12.75141916 17.35578005 -0.00374011 -0.00300050 -0.00098608
C 18.08733453 15.84789841 20.85149312 -0.00784225 0.00066417 0.00580387
C 21.20392530 12.55211077 22.18886806 0.00403120 -0.00068183 0.01257308
C 18.62967672 21.17600361 1.50742409 0.00802273 -0.00405457 -0.00424690
C 21.41931369 17.88854089 3.06366950 0.00492765 0.00193956 -0.00866096
C 18.52050151 21.07937355 6.37192579 -0.00179168 -0.00823770 -0.00479729
C 21.49344971 18.21665986 7.74631131 -0.00156270 -0.00361528 0.00246694
C 18.16915279 21.16225811 11.09569487 -0.00152793 -0.00059292 -0.00061980
C 21.51452492 18.03642735 12.56234767 0.00008412 -0.00132876 0.00877636
C 18.60010392 21.26188157 15.95949231 0.00210583 -0.00894121 0.00218017
C 21.35243017 18.30733408 17.26514023 -0.00214196 -0.00171083 0.00578869
C 18.34734253 21.46026512 20.64037805 0.00242821 0.00272137 0.00409402
C 21.46323713 18.25448016 22.23434747 0.00271485 0.00207866 -0.00108215
C 18.82374392 26.63990685 1.50397266 -0.00390698 0.00296692 -0.00283928
C 21.77305870 23.78457270 2.92148542 0.00637994 -0.00740133 0.00218453
C 18.75971805 26.59195480 6.55173887 0.00622185 0.00539708 0.00162737
C 22.08961227 23.98043976 7.70582504 -0.00149606 -0.00091776 0.00418742
C 18.70467938 26.93629187 11.21881170 0.00677139 -0.00312532 0.00147398
C 21.68500011 23.74571555 12.46859129 -0.00097724 -0.00029724 0.00030914
C 18.59170764 26.92509596 15.91233930 -0.00256758 0.00281445 0.00349184
C 21.92749464 24.09375219 17.13371779 -0.00035191 -0.00061887 0.00765237
C 18.83171060 26.74266710 20.52339311 -0.00528043 0.00123809 -0.00075225
C 21.92023143 23.86246219 21.80355019 -0.00522812 0.00213114 0.00037165
C 24.78503449 2.95834922 1.80972821 0.00442269 0.00025388 -0.00346040
C 27.91537823 29.98535930 3.14031523 0.00040392 -0.00271677 0.00720036
C 24.68137069 3.06069609 6.55412946 -0.00148777 0.00288935 -0.00148395
C 28.04751182 30.04200617 7.77775846 -0.00588678 0.00239964 -0.00423445
C 24.70945133 2.91327515 11.31430532 -0.00323078 -0.00216296 -0.00714447
C 27.82096572 29.94349088 12.57760717 -0.00855282 0.00212286 -0.00103086
C 24.89268397 3.00787174 15.90392100 0.00285950 0.00209711 -0.00410642
C 27.85533272 29.97131548 17.40464381 0.00235516 -0.00099338 0.00115153
C 24.77019238 2.83337314 20.58853784 -0.00284801 0.00241499 0.00282816
C 27.99835921 29.86836920 22.09567453 0.00457195 0.00334790 0.00920502
C 24.22590638 9.72128342 1.69799017 -0.00512520 0.00790855 0.00594363
C 27.27925364 6.63487726 2.99005352 0.00517162 -0.00242196 -0.00104599
C 24.11260726 9.63213263 6.48854954 0.00231331 -0.00202339 0.00593748
C 27.39534621 6.52522293 7.74982374 0.00265261 -0.00249508 -0.00201273
C 24.19670772 9.68225999 11.17647207 -0.00262206 0.00248402 0.00263229
C 27.42978419 6.63027499 12.47922116 0.00079876 -0.00234939 -0.00231998
C 24.32756259 9.69827647 15.97638831 0.00624518 0.00039262 0.00613018
C 27.22142016 6.49826171 17.18551943 0.00102332 0.00009347 0.00171197
C 24.11531262 9.57789189 20.68081056 -0.00398014 -0.00178253 0.00488047
C 27.17328268 6.46013703 21.86382323 -0.00221250 0.00025444 0.00412734
C 24.56902682 15.12428411 1.84589457 0.00041347 0.00095996 -0.00664198
C 27.74240162 12.09484811 2.92438928 -0.00280604 0.00227771 0.00084931
C 24.52665333 15.38800904 6.47057539 0.00549422 -0.00230275 0.00155035
C 27.73140304 12.39117121 7.85779574 0.00295328 -0.00444963 0.00018980
C 24.64344016 15.20695853 11.22301283 0.00307968 0.00526935 0.00319901
C 27.84469350 12.27209572 12.50182059 0.00403675 0.00697873 -0.00163432
C 24.67638009 15.37392307 15.96169136 -0.00025734 0.00358375 0.00646537
C 27.75327561 12.20482987 17.24719106 0.00325575 0.00116854 -0.00124302
C 24.49591083 15.29085101 20.76635415 0.00237184 -0.00130849 0.00347795
C 27.66893087 12.33777288 22.06413861 -0.00121033 0.00140123 -0.00033656
C 24.88615539 20.82329744 1.63206425 0.00052346 -0.00377311 -0.00036351
C 28.00839585 17.80765619 3.21224319 0.00204757 -0.00568393 0.00416581
C 25.00761728 20.64144300 6.44647029 0.00257480 0.00277400 0.00150205
C 28.19372594 18.15143330 7.99080282 0.00265231 0.00326374 -0.00592992
C 24.74897958 20.85838517 11.35433209 -0.00275421 0.00302478 -0.00159532
C 28.10379124 17.76150728 12.54440925 -0.00593988 0.00601746 0.00258116
C 25.15950996 20.90555470 15.91198452 -0.00078275 0.00211064 0.00508117
C 28.01549389 17.83876754 17.36410947 0.00204687 0.00346167 0.00402283
C 25.31796055 20.83473209 20.65920909 -0.00251157 0.00743652 0.00119649
C 28.14181597 18.00057986 22.11153904 0.00008924 0.00668822 0.00341405
C 25.43424442 26.51904878 1.76305110 0.00030317 0.00268687 0.00311390
C 28.48273267 23.60631068 3.03449052 0.00201587 -0.00120185 -0.00011749
C 25.64768264 26.46525765 6.41798021 0.00710356 -0.00395363 -0.00395846
C 28.49402085 23.42223071 7.73405468 0.00246512 0.00290101 -0.00478989
C 25.12041468 26.57118897 11.16036941 0.00611112 -0.00878323 0.00176458
C 28.44431821 23.58564735 12.38333016 0.00125708 -0.00222098 -0.00140228
C 25.10308888 26.40260792 15.73112873 0.00390855 0.00433157 -0.00496391
C 28.18904405 23.47784971 17.27911601 0.00377134 -0.00064323 -0.00581812
C 25.52806197 26.55548191 20.72355962 0.00168518 0.00529081 -0.00005557
C 28.48421355 23.68431559 22.10602176 -0.00714456 0.00128334 -0.00430524
N 30.79492494 4.55986983 0.98188309 -0.00038947 0.00261521 0.00561254
N 3.48934818 5.21421480 3.78488730 -0.00344131 -0.00339786 0.00314467
N 5.19142756 2.19323474 0.96778217 0.00260599 -0.00643155 -0.00316755
N 1.76440337 1.63226542 3.75159278 0.00086006 0.00736946 0.01031615
N 0.13749997 4.48281705 5.84696456 0.00365738 0.00017193 -0.00113064
N 3.46102500 5.25698323 8.47101327 -0.00250961 0.00202771 -0.00529358
N 5.21138527 2.43318298 6.04271525 -0.00185659 0.00148105 0.00283855
N 1.53144146 1.33573817 8.56339298 0.00177244 0.00055496 0.00231800
N 0.04703029 4.36078557 10.57026997 -0.00154420 -0.00073845 -0.00648353
N 3.43663003 4.95372328 13.14271261 0.00372016 -0.00381810 0.00370036
N 5.29302118 2.30171830 10.51487610 -0.00246951 0.00521822 -0.00138752
N 1.67223520 1.29064563 13.39730795 -0.00489273 -0.00556844 0.00133519
N 0.24301928 4.36871291 15.26068262 -0.00655908 0.00199472 -0.00548354
N 3.30023612 5.26662321 18.10796003 -0.00204672 -0.00042703 -0.00713569
N 5.16907049 2.46325108 15.17605535 0.00279955 -0.00360524 0.00324971
N 1.50549099 1.13760385 17.60766913 -0.00243124 0.00250898 -0.00171039
N 0.30778520 4.30726000 20.10329590 -0.00339666 -0.00171355 -0.00500268
N 3.28640206 5.22791366 22.61942856 0.00232085 -0.00453030 -0.00784248
N 5.09450406 2.48994300 19.93000335 -0.00322015 -0.00284692 0.00513018
N 1.59208379 1.29078735 22.60140902 0.00284465 0.00835074 0.00278936
N 0.60492136 10.05188641 1.02369092 -0.00080667 -0.00478181 0.00518090
N 3.89011194 10.72643657 3.86464067 0.00239820 0.00230489 -0.00589897
N 5.62112591 7.81643976 1.06280095 -0.00502430 -0.00430701 -0.00320413
N 2.06767268 7.11627622 3.73373131 0.00107585 -0.00089764 -0.00134472
N 0.49310488 10.40427248 5.81537752 -0.00349520 0.00220643 -0.00121774
N 3.68585440 10.72125917 8.60036752 -0.00214996 0.00268304 -0.00143178
N 5.24924842 7.88902057 5.85922902 -0.00174059 -0.00025789 -0.00019874
N 2.28081395 7.20745953 8.62509699 0.00096971 -0.00599192 -0.00172369
N 0.48094398 9.91198679 10.30627344 -0.00097050 0.00116262 -0.00128740
N 3.85282733 10.80441365 13.38015822 0.00330410 -0.00133394 -0.00086761
N 5.36293392 7.92935465 10.49268180 0.00518672 0.00255844 -0.00467457
N 2.28024828 6.95963108 13.15144051 -0.00530989 0.00470314 -0.00386931
N 0.67942265 10.05693750 15.30526335 -0.00452406 -0.00343341 0.00199941
N 3.97623259 10.90674492 17.98724108 0.00204169 0.00146127 0.00059442
N 5.61439265 7.97433755 15.27300254 -0.00066945 -0.00050883 0.00177558
N 2.52232099 7.40446415 17.97747060 0.00783303 -0.00354150 0.00167715
N 0.32941636 10.13812346 19.93952001 -0.00082378 -0.00232883 0.00037662
N 3.90936969 10.90199112 22.93275555 -0.00163400 0.00362412 0.00057155
N 5.73630735 7.89468071 20.03887885 0.00465350 -0.00401173 0.00081749
N 2.37892246 7.28583999 22.67298410 0.00225153 0.00049941 -0.00116582
N 1.28930139 15.82108720 0.92445215 0.00060664 0.00270687 -0.00321076
N 4.67082857 16.98254268 3.72382533 0.00349797 -0.00543781 0.00149162
N 5.98013013 13.53136351 0.88485553 0.00125830 -0.00136924 -0.00125848
N 2.66772363 12.75601995 3.80862644 -0.00040201 0.00754010 -0.00578491
N 0.99597769 15.64275981 5.68799407 -0.00131407 0.00267242 0.00591056
N 4.54366321 16.54304319 8.37903657 0.00100743 0.00318757 0.00115073
N 6.02101355 13.62029629 5.65055482 -0.00282937 -0.00564258 -0.00257693
N 2.64639934 12.79817045 8.36767753 -0.00063162 -0.00440930 0.00070803
N 1.18242067 15.71718614 10.38906959 0.00059923 0.00216430 0.00227094
N 4.65853738 17.02315579 13.32915835 -0.00580285 0.00128257 0.00614844
N 6.01138510 13.66141783 10.56231329 0.00235470 0.00188415 0.00307591
N 2.82661642 12.80210413 13.18607628 -0.00204993 -0.00377428 0.00398840
N 1.02182487 15.76676895 15.33464727 0.00145643 0.00344042 -0.00067535
N 4.74375314 16.80330809 18.00603697 -0.00085461 -0.00204652 0.00187988
N 6.07181946 13.43341063 15.23579972 0.00239983 -0.00268073 -0.00529015
N 2.46166363 12.67764075 18.21800141 0.00260200 -0.00781825 0.00523708
N 0.94195461 15.73008247 20.15898322 -0.00659723 -0.00771912 -0.00015207
N 4.65587600 16.89094699 22.70022196 0.00147864 0.00218783 0.00096150
N 5.92586145 13.63857618 20.00902000 -0.00533972 0.00383181 0.00307750
N 2.59097427 12.79066766 22.86772256 -0.00033624 0.00569501 0.00112714
N 1.62454222 21.27270270 1.00818925 0.00852953 -0.00532616 0.00199379
N 4.02449290 23.69747502 3.45357423 -0.00613312 0.00481505 0.00380908
N 5.73838392 20.26648134 1.13831408 0.00351692 -0.00204812 0.00330065
N 3.03932784 18.54351426 3.65769931 0.00026923 0.00632095 0.00189746
N 1.36506066 21.61164032 5.81282023 -0.00444036 0.00086378 -0.00379269
N 4.18925402 23.52262925 8.18524886 0.00097453 -0.00456808 0.00338791
N 5.43565323 20.33636867 5.60205935 -0.00254953 -0.00185709 0.00556723
N 2.89451094 18.21585910 8.39639895 0.00176563 0.00460768 -0.00307987
N 1.51073669 21.37160754 10.44437563 0.00141523 0.00060423 -0.00604210
N 4.04495218 23.57452124 13.27434486 0.00033696 0.00571894 0.00630201
N 5.23005198 20.55274732 10.73679132 0.00346997 0.00011701 -0.00530776
N 2.92465704 18.55825291 13.06897080 0.00561913 0.00162321 0.00350625
N 1.45697783 21.23379501 15.41621300 -0.00072816 -0.00424389 -0.00261477
N 4.14628540 23.54465223 18.08920805 0.00048465 0.00390695 0.00691595
N 5.25607683 20.48733219 15.59145725 -0.00489613 0.00263271 0.00608154
N 2.95186790 18.16346711 18.03317599 -0.00103614 -0.00217265 0.00264832
N 1.26691053 21.52495267 20.12256676 -0.00098461 0.00757942 0.00134582
N 4.22185338 23.50203507 22.68189698 0.00443625 0.00428283 0.00177975
N 5.32166201 20.57454440 20.20423861 -0.00233506 -0.00220481 0.00336124
N 2.70874362 18.28003945 22.64014542 -0.00154830 0.00464386 0.00037306
N 0.89443960 27.95272606 1.24043229 0.00297239 0.00146093 0.00195559
N 3.18638431 29.89623212 3.90141064 0.00235378 0.00174968 0.00107788
N 5.08640804 26.88754144 0.92740993 0.00738667 0.00416066 -0.00108146
N 2.09093050 24.82247023 3.70967596 -0.00041751 0.00270194 -0.00153173
N 0.85868174 27.80295773 5.66802325 -0.00065425 -0.00360402 -0.00930320
N 3.24247820 29.84230579 8.62675242 0.00979837 -0.00212626 -0.00116243
N 4.77153704 26.98404229 6.07028787 0.00427893 -0.00311954 0.00315006
N 2.12238164 24.47148428 8.43239549 0.00717407 0.00189473 -0.00644586
N 0.70335044 28.12246751 10.23577656 -0.00271106 0.00261528 0.00115147
N 3.28577280 29.72618065 13.17509603 -0.00134589 0.00430806 -0.00039800
N 4.95013382 26.76708836 10.40089785 -0.01241339 0.00256264 -0.00849334
N 2.07098993 24.63779084 13.04767862 0.00425346 -0.00431463 -0.00220517
N 0.50279311 28.08460881 15.10184996 -0.00361884 0.00177610 -0.00076084
N 3.40492385 29.97266341 17.85063001 0.00042285 -0.00218456 -0.00146853
N 4.63734848 26.98809041 15.23968763 -0.00288964 0.00604876 -0.00006000
N 2.08128868 24.50283975 18.10983641 0.00281601 -0.00060366 -0.00115943
N 0.84773134 27.73693724 19.85867840 0.00330490 0.00095307 0.00248998
N 3.29813654 29.71719373 22.83797048 0.00611599 -0.00093973 0.00608324
N 4.72490264 26.82686691 20.07097180 -0.00762436 -0.00067343 0.00624285
N 2.29912473 24.87910306 22.71519132 -0.00166869 0.00518036 0.00027587
N 6.61372587 3.98106246 1.02885350 0.00385970 -0.00419002 0.00352728
N 10.21743042 4.77466282 3.44011391 -0.00582578 -0.00076801 0.00150701
N 12.12590007 1.92608256 1.10166697 -0.00036350 -0.00814810 -0.00203343
N 8.49169821 1.04299001 4.07037272 -0.00083126 -0.00027036 0.00439565
N 6.73101355 4.09192558 5.68083260 -0.00222259 0.00297719 -0.00059404
N 10.03350191 4.78033395 8.21402980 0.00187388 0.00708796 0.00423450
N 12.20839266 1.63839434 5.59177390 0.00006589 0.00990737 0.00291929
N 8.61536585 1.06969165 8.59738009 0.00056030 -0.00032760 0.00045223
N 6.75011204 4.07333858 10.34673733 0.00456059 0.00710778 -0.00114290
N 10.27298297 5.13715921 13.16064068 0.00345701 -0.00561011 0.00149661
N 12.01178680 1.89497485 10.68603732 -0.00011971 -0.00544306 0.00336243
N 8.43962116 1.12959669 13.10209107 0.00603624 -0.00239191 -0.00064105
N 6.85837894 4.02198431 15.42090834 0.00062653 0.00068386 0.00464828
N 10.19334201 4.96611175 18.00605100 -0.00346823 -0.00137260 -0.00040802
N 11.76452809 2.05679068 15.42392925 0.00395155 0.00192023 0.00297340
N 8.44754664 1.10961867 17.89940771 -0.00064049 -0.00087845 -0.00142254
N 6.61600526 4.18548795 19.83451440 -0.00188833 0.00141491 0.00411812
N 9.95949457 4.74464720 22.64209686 -0.00224666 -0.00113851 -0.00226195
N 11.55505592 2.02975645 20.02655325 -0.00237382 0.00115979 -0.00037444
N 8.71861908 1.41249044 22.86062165 0.00046617 0.00521594 0.00142687
N 7.01037219 9.61451369 0.97173135 -0.00148290 -0.00123621 0.00557736
N 10.73949174 10.63871372 3.62437362 0.00129451 0.00278809 -0.00622945
N 12.32116447 7.57904302 1.12900637 -0.00113240 0.00169357 0.00219631
N 9.03598988 6.75783916 3.63771318 -0.00130287 -0.00338164 0.00339686
N 6.94217834 9.46283897 5.79085851 0.00044107 -0.00787859 -0.00589031
N 10.57335770 10.45302351 8.25986683 0.00818468 0.00129845 0.00200871
N 12.33295490 7.37833524 5.58277329 -0.00433206 -0.00250533 0.00061689
N 8.92681005 6.78788740 8.12766262 -0.00163716 -0.00108659 -0.00488982
N 7.10825950 9.57292003 10.36857001 -0.00154389 0.00186490 -0.00186262
N 10.54226936 10.71782730 13.22746684 -0.00337683 0.00835059 -0.00394531
N 12.18869248 7.52728155 10.58047032 0.00509429 -0.00273811 -0.01088837
N 8.79595827 6.79811820 13.03508756 0.00089433 0.00653151 -0.00262657
N 7.04059433 9.71145650 15.11957312 -0.00569462 0.00288964 0.00475824
N 10.66130532 10.60169696 18.04057631 0.00202702 -0.00075893 -0.00535520
N 12.32358561 7.43695323 15.31635106 -0.00169140 0.00457029 -0.00119806
N 8.76222305 6.79437548 17.75314463 0.00287947 0.00073715 -0.00743103
N 7.14167639 9.62783333 20.15194479 0.00532493 -0.00109276 -0.00551470
N 10.53821460 10.54947843 22.88098059 0.00131527 0.00243780 0.00217697
N 12.29032835 7.32864156 20.04584708 0.00438814 0.00159239 0.00163296
N 8.89664729 6.78495950 22.70087475 0.00676280 0.00212418 0.00042696
N 7.60282389 15.14606416 1.00859224 -0.00222369 -0.00306585 0.00632648
N 10.78565076 17.79037176 3.83171614 -0.00464919 -0.00651565 -0.00434515
N 11.54357945 14.13102160 0.86905474 0.00058505 0.00008095 0.00219233
N 8.86115325 11.99636076 3.67764022 -0.00177110 -0.00610553 -0.00216832
N 7.74338099 15.15320379 5.65962009 0.00116913 0.00749692 -0.00612753
N 10.01186667 17.47516850 8.63319889 0.00376666 -0.00514294 -0.00113378
N 11.71364348 13.96046055 5.81344307 -0.00245591 -0.01066515 -0.00124512
N 9.08604459 12.27507344 8.33288207 0.00612376 0.00262700 -0.00089370
N 7.73634838 15.22608038 10.62583406 -0.00888095 0.00246581 0.00158553
N 10.46642315 17.90781091 13.26352560 -0.00137633 -0.00048290 0.00470198
N 11.54189988 14.43049421 10.46096538 0.00526951 0.00457931 0.00447960
N 9.14133503 12.52950628 12.91041539 -0.00435332 0.00373542 0.00282925
N 7.42654171 15.34209975 15.27154220 -0.00303655 -0.00258640 0.00010093
N 10.37248470 17.22524976 18.00933285 -0.00174952 -0.00344649 -0.00259195
N 11.68408850 14.32579197 15.26769075 -0.00337288 0.00183132 0.00064485
N 9.03493452 12.12286688 17.94157223 0.00170181 0.00064865 0.00337770
N 7.60474811 15.23932049 19.92354501 0.00426598 -0.00023757 -0.00431098
N 10.41970461 17.30087367 22.78405574 0.00012036 -0.00161561 -0.00171491
N 11.53100560 14.21939424 20.05479630 0.00631766 0.00547816 -0.00028989
N 8.93877686 12.17981910 22.75311735 -0.00350443 -0.00624821 0.00634240
N 7.33721331 21.89563333 0.89495647 -0.00059262 -0.00661031 0.00216382
N 9.45755498 23.94752940 3.86954528 0.00140367 0.00173300 -0.00140806
N 10.87645332 21.13866156 0.88538085 -0.00173844 -0.00350476 0.00112693
N 8.53183180 18.48442582 3.90621929 -0.00123661 0.00109066 0.00107873
N 7.04185924 21.98531249 5.71280120 0.00280458 -0.00037030 -0.00132000