2000
Time=63000.00000006 pbc="T T T" Lattice="31.12806663 0.00000000 0.00000000 0.00000000 29.89212131 0.00000000 0.00000000 0.00000000 23.70288096" energy=-12039.41593289 virial="17.75620198 -13.82952406 -36.84626963 -13.82952406 1.38223665 -14.63198274 -36.84626963 -14.63198274 43.57834616" stress="0.00292100 -0.00064915 -0.00165014 -0.00064915 0.00220789 -0.00054938 -0.00165014 -0.00054938 0.00488784" Properties=species:S:1:pos:R:3:vel:R:3
C 30.48343549 3.46652073 1.73285208 0.00169980 -0.00463815 -0.00619078
C 2.59182034 0.48900057 3.08407206 0.00146816 0.00041844 0.00672308
C 30.24934345 3.78147315 6.52657722 -0.00324652 0.00755774 0.00132389
C 2.44633048 0.78391439 7.86363798 0.00414343 0.00197001 0.00058961
C 30.33432645 3.72095201 11.20593727 0.00376610 -0.00102429 -0.01018043
C 2.41240910 0.60273182 12.52607540 -0.00433087 0.00179882 -0.00537375
C 30.49599454 3.99667176 15.90560464 0.00087128 -0.00961431 0.00137462
C 2.48680961 0.71683437 17.14145309 -0.00290183 0.00594203 -0.00142003
C 30.40959172 3.49792015 20.61627203 -0.00001575 0.00003718 0.00487824
C 2.59638297 0.61136155 22.04546001 0.00570228 0.00049789 0.00138505
C 30.83062439 9.21397521 1.80164277 0.00269414 -0.00017083 -0.00173395
C 2.65471164 6.09593954 2.88456383 -0.00578726 0.00220871 -0.00255246
C 30.74393345 9.36528951 6.52787719 0.00368670 -0.00313147 -0.00208854
C 2.62188907 6.17320798 7.88317743 0.00281353 -0.00052479 -0.00417783
C 30.92483528 9.42264067 11.34591320 0.01031678 -0.00216587 0.00054013
C 2.85703797 6.35940075 12.47246859 0.00207003 0.00323578 -0.00133259
C 31.12374641 9.56765227 15.96028757 -0.00111113 -0.00163421 0.00153215
C 2.79433617 6.19327724 17.36788493 0.00148613 -0.00346682 -0.00252075
C 31.07073008 9.39441455 20.63442796 -0.00949542 0.00227274 0.00019744
C 2.98341041 6.33900408 21.97707181 0.00228764 0.00112331 0.00586741
C 0.15960642 14.95308420 1.62104361 0.00275125 0.00314479 -0.00635604
C 3.18095003 11.57862394 3.23984747 -0.00221290 0.00800949 0.00319796
C 0.07489008 14.49758473 6.52633293 -0.00315267 -0.00481717 -0.00191065
C 3.15158446 11.85227293 7.82698703 0.00320967 -0.00976129 -0.00009650
C 31.06519141 14.88203463 11.19602124 0.00195943 0.00561377 0.00242336
C 3.49767276 11.99754393 12.61501992 0.00255196 -0.00090788 -0.00089254
C 0.14922997 14.92515304 15.94402904 0.00260489 -0.00038571 0.00216561
C 3.55966564 11.97464662 17.13718355 0.00443098 -0.00618612 0.00473578
C 0.45968669 14.62709767 20.75429907 0.00068180 -0.00212795 -0.00306689
C 3.52540523 11.94955814 22.00742605 0.00417711 -0.00051604 -0.01232839
C 0.43976092 20.54334174 1.60020887 0.00102336 -0.00050605 0.00547697
C 3.38711706 17.22880616 3.07808677 0.00061446 -0.00470139 0.00734905
C 0.49924356 20.26240984 6.18259634 -0.00559626 -0.00028428 0.00590496
C 4.03975985 17.38480174 8.01714491 -0.00153367 0.00224626 0.00087989
C 0.71288873 20.18480249 10.90929983 -0.00138517 -0.00253101 0.00219510
C 3.67136050 17.40050883 12.53608532 0.00427272 0.00461024 0.00275616
C 0.60040245 20.35316165 15.85659429 0.00634089 0.00373984 -0.00601468
C 3.77278059 17.28406841 17.14139062 -0.00043191 0.00722578 0.00224914
C 0.50678863 20.35859077 20.59509604 -0.00014430 0.00530865 0.00273873
C 3.61721161 17.54580856 22.12595735 -0.00120334 -0.00298067 -0.00263395
C 0.06970605 26.96876496 1.43052873 -0.00024697 -0.00329551 0.00655389
C 3.17341126 23.75412706 2.80366021 0.00456108 -0.00275949 -0.00136813
C 0.22629432 26.75407783 6.17739567 0.00129117 0.00146779 0.00030483
C 3.16196554 24.02614826 7.58102509 0.00448593 -0.00118832 -0.00684977
C 0.01986543 26.94631175 11.14458932 -0.00509407 0.00295256 -0.01285995
C 2.93539571 23.66151160 12.42507205 -0.00252859 -0.00496024 0.00186463
C 0.07993888 26.77522438 15.78509767 -0.00351356 -0.01127352 0.00468776
C 3.08192525 23.76783591 17.28618105 -0.00234817 0.00545028 0.00471263
C 0.25783383 26.97162178 20.58497866 -0.00053887 -0.00066775 -0.00817918
C 3.34332405 23.84568620 21.97637088 -0.00585572 0.00236461 -0.00213321
C 5.95828533 3.21666861 1.84881069 -0.00095593 -0.00137831 0.00507656
C 9.06018843 0.12462136 3.21042724 -0.00332028 -0.00183482 -0.00372940
C 6.16007856 3.58120473 6.55433369 0.00449215 -0.00071004 -0.00734834
C 9.30671605 0.11019332 7.99398609 -0.00770968 0.00121629 0.00067454
C 6.06626209 3.54191955 11.26247644 0.00997407 0.00074296 -0.00138859
C 8.86532134 0.11748413 12.70344277 -0.00779015 -0.00560275 0.00668144
C 5.87946431 3.45365532 16.24981009 0.00380114 -0.00106285 -0.00008192
C 8.92918277 0.01211814 17.50961213 0.00141175 -0.00269397 0.00158217
C 5.93433225 3.41599123 20.90974906 -0.00569751 0.00495077 -0.00453774
C 9.29082632 0.04133620 22.20283989 0.00248737 0.00090977 0.00309824
C 6.27491031 8.87025630 1.80960693 0.00014259 -0.00532843 -0.00225286
C 9.56530595 5.89285626 3.02615738 -0.00086486 0.00115836 -0.00303522
C 6.11838042 8.83340159 6.52342178 0.00229495 -0.00257851 0.00162463
C 9.59007720 5.93596401 7.74607925 -0.00431404 -0.00290862 -0.00278309
C 6.38289076 8.86443295 11.24585284 -0.00078844 -0.00132321 -0.00300160
C 9.47341743 5.82946390 12.56777665 0.00274767 0.00273165 0.00063467
C 6.08580876 8.83201827 15.91695741 -0.00275574 0.00669241 0.00109417
C 9.60868643 6.10237842 17.41564122 -0.00059730 -0.00176281 0.00984285
C 6.52393753 8.91412977 20.81564321 0.00125404 -0.00125602 -0.00540078
C 9.43623870 5.76443504 22.09355396 -0.00000517 -0.00165948 -0.00103302
C 6.67899557 14.52752639 1.65574871 -0.00323751 0.00408548 0.00059681
C 9.68545599 11.16504042 2.87674798 0.00186476 0.00641793 0.00019555
C 6.57583806 14.44863216 6.44239919 -0.00435770 -0.00553341 -0.00124774
C 9.87708858 11.53433415 7.70223914 0.00307693 0.00252764 -0.00230116
C 6.87943489 14.49627140 11.19466400 -0.00086102 -0.00356572 -0.00132856
C 10.28091275 11.22456081 12.51988535 0.00169085 -0.00519703 -0.00055637
C 7.24106354 14.38652111 15.78219837 0.00477520 -0.00610988 0.00190385
C 10.03480388 11.26717963 17.28898386 -0.00273838 -0.00014932 -0.00838347
C 6.92521159 14.26613744 20.59603208 0.00121564 0.00769090 0.00794290
C 9.78699443 11.44901131 22.00639451 0.00244628 -0.00380907 -0.00071027
C 6.35893795 20.86884537 1.72849082 0.00687565 0.00606638 -0.00063241
C 9.42303764 17.84562978 3.03330266 0.00028106 -0.00306534 -0.00136441
C 5.97007240 20.85532677 6.42914141 -0.00116761 0.00581718 -0.00826912
C 9.60854242 17.76695651 7.88103157 0.00083806 0.00228165 -0.00505067
C 6.11735984 20.77324492 11.09761448 -0.00343335 -0.00262514 0.00248151
C 9.31649736 17.94539055 12.58616360 -0.00854681 -0.00296819 -0.00279291
C 6.17503205 21.13050198 15.72367609 0.00183591 0.00477205 0.00874179
C 9.18409984 18.04161970 17.41736371 0.00309408 0.00476554 -0.00171482
C 6.07455811 20.97614947 20.68725100 -0.00137709 0.00708694 0.00916111
C 9.31943928 17.78526705 22.00612147 0.00483384 0.00485464 0.00220486
C 5.90240048 27.43238193 1.69960461 -0.00463511 0.00110982 -0.00358098
C 8.87466505 24.34693276 2.89661074 0.00099355 -0.00027283 0.00313014
C 5.63148859 27.65806278 6.55206688 -0.00496377 -0.00539896 0.00577167
C 8.51606063 24.57978060 7.66665766 0.00368137 -0.00028236 0.00513503
C 5.58445261 27.67211810 11.13788508 0.00024773 0.00666713 0.00675083
C 8.69792341 24.42058284 12.43103120 0.00140848 0.00110583 -0.00161019
C 5.61602745 27.24520353 15.92334923 0.00118942 0.00263470 0.00057174
C 8.46783704 24.65531060 17.37673037 -0.00043614 -0.00291318 0.00057109
C 5.33457448 27.50489195 20.59940117 -0.00346167 -0.00183195 0.00416675
C 8.50662922 24.43085758 22.03782443 0.00255241 0.00406377 0.00431763
C 12.64234331 2.66744106 1.82572156 0.00219139 0.00449262 0.00417420
C 15.90370301 29.45847946 3.13786943 -0.00043731 -0.00478540 0.00306694
C 12.59948235 2.40290528 6.50540980 0.00359257 0.00562975 -0.00688956
C 16.06255389 29.84768404 7.74161425 0.00240453 0.00101183 -0.00213168
C 12.39207647 2.67158335 11.34791294 -0.00144261 0.00208149 -0.00280388
C 16.04281950 29.76477715 12.60807661 -0.00123835 0.00132800 -0.00037309
C 12.29236113 2.61791543 16.12675471 0.00394356 0.00190698 -0.00428940
C 15.58053338 29.55524499 17.37479492 -0.00202155 -0.00020384 -0.00831952
C 12.40029579 2.73732660 20.74638544 0.00071440 0.00313854 0.00543620
C 15.92546818 29.83593238 22.05434312 0.00061681 0.00473860 0.00192035
C 12.88962744 8.11090702 1.68585786 -0.00252035 0.00227067 -0.00160309
C 16.02300116 5.14310349 2.90828370 0.00104005 -0.00369823 -0.00015409
C 13.12210695 8.37901676 6.43398265 -0.00523869 -0.00455633 -0.00013642
C 15.91224156 5.29961026 7.72921882 0.00604237 0.00027854 0.00457564
C 13.24627835 8.00261568 11.11002880 -0.00079147 -0.00209351 -0.00395857
C 16.18232469 4.99660993 12.61740517 0.00315850 0.00395907 -0.00477090
C 13.12151027 8.09628135 15.71264279 0.00485831 0.00992031 0.00338019
C 16.20852978 5.22154243 17.21154440 -0.00120654 -0.00009575 0.00125101
C 13.13862536 8.08808685 20.64146787 0.00180185 0.00346505 -0.00558571
C 16.09438579 5.31801737 22.05121725 -0.00243430 -0.00611478 -0.00115979
C 12.45960118 14.87377625 1.82826815 -0.00332929 0.00205351 -0.00120398
C 15.54249473 11.96460700 3.04656113 0.00042235 0.00022633 0.00055730
C 12.35487960 14.83656475 6.54149104 0.00123234 0.00975323 0.00314319
C 15.37396199 11.85987095 7.72286624 -0.00054194 -0.00098438 0.00492396
C 12.51815502 14.76806555 11.32762004 -0.00218135 -0.00259759 0.00658693
C 15.74644372 11.67513841 12.71297504 -0.00681078 0.00030301 -0.00138376
C 12.71820107 14.99676699 16.04480322 0.00376533 -0.00153789 -0.00121848
C 15.72799279 12.15284665 17.41930448 -0.01321668 0.00488960 0.00124713
C 12.39301291 15.01740247 20.78613835 0.00150844 -0.00198802 0.00527259
C 15.75343155 11.83523412 22.09134837 0.00493198 0.00372263 0.00818360
C 11.76791602 21.53397102 1.67387003 0.00128557 -0.00126860 0.00251977
C 15.30338041 18.65006681 3.18445886 0.00477997 0.00171818 -0.00718815
C 11.77339614 21.58500667 6.62678766 -0.00820670 0.00235966 0.00571339
C 14.92910976 18.48849039 7.84365561 0.00610831 -0.00703341 0.00105610
C 11.97081066 21.54488206 11.27886415 0.00061935 0.00597933 -0.00514216
C 15.11688397 18.75837489 12.59694735 0.00487074 -0.00035770 0.00269491
C 11.94035045 21.62124817 16.06364416 0.00301361 0.00078084 -0.00015002
C 15.08297646 18.66416369 17.16693962 -0.00143859 -0.00299353 0.00112380
C 11.66400921 21.35223103 20.67289381 -0.00144305 0.00777262 0.00542702
C 15.02309090 18.38156793 22.11767658 -0.00756785 0.00027113 0.00458306
C 12.44074562 26.87335444 1.67958723 -0.00070420 0.00002769 -0.00252495
C 15.68926690 24.10322316 3.04379009 0.00029089 -0.00015659 -0.00296104
C 12.29009960 26.88336440 6.52794332 -0.00005908 0.00159218 -0.00350209
C 15.38178762 24.11021036 7.68628285 -0.00075575 -0.00375485 0.00564367
C 12.23666260 27.21412860 11.28491429 0.01098745 -0.00083388 0.00048508
C 15.49772427 23.98419838 12.53061127 0.00006263 -0.00340051 0.00788851
C 11.98000542 27.12653339 15.87930675 0.00393466 -0.00403656 0.00066638
C 15.24975879 23.89759941 17.12767252 -0.00225258 0.00175441 -0.00527062
C 12.14001664 27.03422113 20.80661552 0.00258565 -0.00724890 -0.00109459
C 15.31295517 24.10829578 21.69484054 0.00641277 0.00332611 -0.00251211
C 19.14765333 2.45939929 1.78776935 -0.00024948 -0.00646044 -0.00071477
C 22.32356309 29.49418531 2.96961046 -0.00424950 0.00014264 0.00750273
C 19.36750782 2.43086223 6.56713491 -0.00305005 0.00495283 -0.00735952
C 22.45086942 29.26461832 7.57604701 0.00096177 0.00531073 0.00114004
C 19.39284619 2.41072230 11.14031991 0.00275913 0.00114552 0.00110160
C 22.52718403 29.31833360 12.33327055 -0.00063105 -0.00413304 0.00505975
C 19.39394904 2.19023268 15.84828829 -0.00426730 0.00184368 -0.00456153
C 22.52100458 29.43987975 17.10203249 0.00393770 0.00022766 0.00791698
C 19.25100563 2.32062612 20.50708380 -0.00276902 -0.00970793 0.00027643
C 22.44678113 29.04672285 21.93983753 -0.00319687 0.00023465 0.00391671
C 18.60055142 8.77924316 1.77001657 0.00078426 -0.00139364 0.00221191
C 21.61835320 5.95841197 2.95883586 0.00056859 -0.00308365 0.00368003
C 18.33898454 8.95549721 6.43988551 -0.00254256 -0.00088463 0.00676310
C 21.98349347 6.06407438 7.66462521 -0.00331590 0.00267254 0.00167477
C 18.76542063 9.06679287 11.09204484 -0.00016442 -0.00872996 0.00494021
C 21.97552557 5.95033316 12.70016261 -0.00203370 0.00035750 -0.00061254
C 18.89046505 8.44903697 16.05187044 0.00270786 0.00067452 0.00032551
C 21.94215824 6.03736865 17.41362357 -0.00416408 -0.00851389 0.00278088
C 18.64710433 8.84187292 20.80139156 -0.00524965 0.00341146 -0.00683871
C 21.68072549 5.94423380 22.02997312 -0.00035700 0.00371079 -0.00492374
C 18.18801854 15.40279170 1.77838386 0.00436447 0.00322889 -0.00101912
C 21.15425478 12.49795721 3.01139588 0.00090847 0.00119329 0.00455160
C 17.98067894 15.48786505 6.40854707 0.00033651 -0.01016103 0.00011960
C 21.33061992 12.79749732 7.72746568 -0.00183545 -0.00242982 -0.00616343
C 17.95820189 15.20095704 11.10991510 -0.00398350 -0.00018016 -0.00010296
C 20.99260929 12.55258477 12.73382512 -0.00204686 -0.00034826 -0.00686907
C 17.99794584 15.69814830 15.97545626 -0.00658222 -0.00083770 -0.00000055
C 21.05650821 12.32821919 17.32862607 -0.00153762 0.00165053 0.00030147
C 18.18488369 15.49495027 20.62215265 0.00017093 0.00252056 0.00144126
C 21.23503409 12.37642748 21.94958021 0.00021689 0.00447000 0.00101535
C 18.65785583 20.93392668 1.84382507 0.00476265 0.00113121 0.00158730
C 21.68832225 18.08404603 2.86828436 -0.00763714 -0.00256569 0.00106128
C 18.50104824 21.00937805 6.48807554 -0.00179752 -0.00754084 0.00477581
C 21.18579120 17.77454097 7.72976753 -0.00358162 0.00264330 -0.00100795
C 18.79690600 21.03843445 11.21125172 -0.00164132 -0.00047579 0.00581538
C 21.65494348 18.28855664 12.42801289 0.00060429 0.00620377 -0.00081503
C 18.77337837 21.26441307 16.09717300 -0.00144506 0.00512316 -0.00290727
C 21.63716179 18.05214084 17.44140009 0.00256650 -0.00034195 0.00763162
C 18.56705537 21.36853652 20.80837839 -0.00232693 -0.00323333 0.00527277
C 21.71857107 18.23377980 21.96684448 0.00179779 -0.00113982 -0.00240439
C 18.77086615 26.65707696 1.67735043 0.00201451 0.00192852 -0.00132537
C 22.01151627 23.95087443 2.75761349 0.01192552 -0.00719467 -0.00195401
C 19.00506264 26.59639161 6.35570116 0.00083185 0.00226638 0.00230109
C 22.08369282 23.49411702 7.55789292 -0.00062432 0.00009692 0.00578581
C 18.95097341 26.42074121 11.12645192 -0.00163333 -0.00098404 0.00030951
C 22.11444792 23.90241673 12.47069570 0.00518082 -0.00342366 -0.00970896
C 18.84742222 26.77193224 15.86520100 0.00422721 0.00027749 -0.00468521
C 22.05352336 23.95388687 17.01613009 -0.00235647 0.00279232 -0.00577232
C 18.75530418 26.56373569 20.53688229 0.00286742 -0.00513245 -0.00130820
C 22.00928613 23.60463779 21.72505668 -0.00544893 -0.00323104 -0.00422094
C 24.82999816 2.88466578 1.69618894 0.00603091 -0.00811706 -0.00218752
C 28.01128090 0.09810708 2.87829365 -0.00150126 0.00052686 -0.00722549
C 25.02601628 3.09971620 6.37483264 0.00270575 -0.00845838 -0.00626670
C 28.20082739 29.83718788 7.80734054 0.00472086 0.00024741 0.00120125
C 24.97264793 2.94736043 11.24251714 -0.00214906 -0.00134158 -0.00140956
C 27.98516643 29.86956537 12.49794365 0.00002631 -0.00082289 -0.00677620
C 25.12667373 2.99596073 15.93695098 -0.00106743 0.00343797 0.00058934
C 28.16836297 0.08625810 17.28009495 -0.00437218 0.00388388 0.01454876
C 24.98086935 2.67924379 20.69099172 0.00012548 -0.00743634 -0.00596917
C 28.09230794 29.79910458 21.87853166 -0.00278935 0.00568678 -0.00128992
C 23.99088415 9.30587024 1.84009225 -0.00138764 0.00060942 0.00604878
C 27.43320892 6.90714752 3.07959262 0.00231349 -0.00310041 -0.00339100
C 24.16410024 9.45123560 6.57765855 0.00067321 0.00238840 0.00202077
C 27.44303537 6.87777917 7.81720220 0.00226359 -0.00084863 -0.00518179
C 24.26425013 9.57448172 11.26601198 -0.00359862 0.00337492 0.00218184
C 27.36761907 6.34377764 12.46217995 -0.00050096 -0.00637957 0.00486266
C 24.34417582 9.66905716 16.00483262 0.00203195 -0.00220570 -0.00140595
C 27.63865886 6.89636325 17.28441775 -0.00441634 0.00192500 0.00006685
C 24.14602964 9.72522069 20.78164591 0.00464323 0.00149258 0.00432930
C 27.33360710 6.54671007 21.95992209 0.00997044 0.00195216 0.00306134
C 24.65436511 15.21640036 1.73990547 -0.00285517 0.00166123 -0.00966678
C 27.54214729 12.09306210 3.09355384 -0.00216120 -0.00581717 -0.00324130
C 24.84595535 15.31180706 6.44807267 -0.00501823 0.00101587 -0.00154307
C 27.66339953 12.22762449 7.73962268 0.00388983 0.00458320 0.00076245
C 24.57103164 15.38854997 11.17516039 0.00228724 0.00246214 0.00084859
C 27.84173742 12.03772881 12.52436449 0.00243558 0.00769600 0.00148568
C 24.70616591 15.23720986 16.00323886 -0.00208014 -0.00653254 0.00155509
C 27.74454011 12.28698518 17.34629871 -0.00266311 0.00057539 0.00207761
C 24.57592732 15.08516192 20.82190515 -0.00088518 0.00171350 -0.00099381
C 27.60689223 12.19986632 22.08938919 -0.00415134 0.00174310 0.00397542
C 25.24636742 20.78340856 1.70494552 -0.00096193 -0.00337263 0.00083820
C 28.40996709 17.66172797 3.04722655 0.00356848 0.00253803 0.00634323
C 25.23371762 20.95939171 6.16671793 -0.00396301 0.00120109 0.00226754
C 28.02352544 17.74527698 7.62607835 0.00494792 0.00464034 -0.00062224
C 24.89379434 20.65554374 10.89479511 -0.00016938 -0.00637120 0.00622826
C 28.23338577 17.81353620 12.44112442 -0.00032723 0.00690838 -0.00297863
C 24.90734851 20.74409747 15.71832919 -0.00436020 0.00446670 0.00138467
C 28.45308111 17.78046149 17.18405914 0.00266331 -0.00096507 -0.00451948
C 25.19419961 20.59022958 20.55654648 0.00388184 0.00173507 0.00824658
C 28.13688855 17.92520792 22.01870947 -0.00188315 -0.00246152 -0.00642235
C 25.77954468 26.03224222 1.60310004 -0.00456778 0.00846211 0.00173522
C 28.67574443 23.63178483 2.77542296 -0.00028051 -0.00087068 -0.00417103
C 25.61019778 26.41332791 6.06744158 -0.00153920 0.00109582 0.00147198
C 28.69053864 23.45061233 7.68543572 -0.00438522 -0.00453910 -0.00049235
C 25.51572920 26.31434765 11.02418929 0.00222749 -0.00304566 -0.00154900
C 28.36801003 23.39627004 12.34130297 -0.00400044 0.00684725 0.00208440
C 25.77120346 26.34565539 15.86266653 -0.00592051 -0.00346225 -0.00000407
C 28.71253428 23.22421383 17.03526210 -0.00507523 -0.01038117 0.00464640
C 25.59781139 26.43493937 20.38937331 -0.00221736 0.00762043 -0.00044828
C 28.54387585 23.49528748 21.77496624 0.00432836 0.00033293 0.00082840
N 0.24800680 4.22383415 1.04292806 -0.00406637 0.00064684 0.00420167
N 3.19065706 5.20924461 3.70165136 -0.00200698 -0.00425256 0.00198910
N 5.27467536 2.35694320 1.05587089 -0.00212374 0.00039525 0.00295039
N 1.76226567 1.23587127 3.88713992 0.00802652 -0.00159566 -0.00120711
N 0.10762327 4.46321720 5.82939878 -0.00034517 -0.00340349 -0.00155089
N 3.41985133 5.34513042 8.67406841 -0.00372955 -0.00124024 -0.01041376
N 5.13591854 2.86134362 5.94674733 -0.00319593 0.00029765 0.00006933
N 1.64624734 1.40211487 8.73494076 0.00007715 -0.00294249 -0.00735801
N 0.03225161 4.45334803 10.43700142 0.00051459 0.00546920 0.00537812
N 3.39129931 5.26185664 13.10528104 -0.00418627 -0.00022698 0.00327422
N 5.25358127 2.73626670 10.53638640 0.00597185 0.00626932 0.00208500
N 1.53987707 1.41437298 13.22162770 -0.00427885 0.00140132 0.00448550
N 0.36252311 4.59310168 15.23085310 0.00638208 -0.00922194 -0.00357512
N 3.22184335 5.21912493 18.21973094 0.00177743 -0.00005654 0.00499592
N 5.04770773 2.70485264 15.50424171 -0.00319759 -0.00223980 0.00182097
N 1.90102420 1.64414665 17.89307099 -0.00240849 0.00506166 0.00854224
N 31.11249066 4.44022953 19.94832240 -0.00296024 -0.00219349 -0.00000982
N 3.35946989 5.11827158 22.41823723 -0.00098206 0.00058709 0.00218736
N 5.14465295 2.46655378 20.35643399 0.00101123 -0.00294410 0.00004011
N 1.55804457 1.17147099 22.82224036 0.00194989 -0.00138640 0.00034184
N 0.38409936 10.06965846 1.03852241 -0.00031315 -0.00651705 0.00034915
N 3.70907799 10.56545375 4.06591101 -0.00021476 0.00291600 -0.00910534
N 5.64353218 7.91208887 1.16015823 0.00312884 -0.00350309 -0.00661888
N 1.96951216 7.11427685 3.48999461 -0.00236705 -0.00736660 0.00120177
N 0.64825088 9.94218200 5.79578416 -0.00296828 0.00182563 -0.00599783
N 4.04595539 10.99495183 8.43737525 -0.00434262 0.00631145 -0.00843392
N 5.34926813 7.89388819 5.90110302 -0.00503548 0.00013913 0.00241169
N 1.85114654 7.07747125 8.55934875 0.00556122 0.00274014 0.00291039
N 0.48202592 10.22004227 10.41119931 -0.00383387 0.00555493 0.00903686
N 4.10606099 11.01620966 13.28270664 0.00564451 0.00394828 0.00265520
N 5.62484311 8.02078846 10.54393261 -0.00153163 0.00213887 0.00218368
N 2.28577048 7.37542069 13.19282643 0.00135488 0.00858929 0.00106625
N 0.76371717 10.44951624 15.16493999 0.00563121 0.00013613 -0.00054073
N 4.02243735 10.98036049 17.90538157 0.00304023 0.00315711 0.00317984
N 5.25082310 7.98722805 15.18604897 -0.00844440 -0.00097076 0.00145880
N 2.27654571 7.34065657 17.89884465 -0.00077368 0.00165112 0.00342269
N 0.70485531 10.27546547 19.93579194 0.00207449 -0.00946182 0.00143613
N 4.15871470 10.82720768 22.59367940 0.00177843 -0.00351108 0.00622740
N 5.71946456 8.12043855 20.06639993 0.00332680 0.00371908 0.00099352
N 2.08903651 7.05849241 22.75043125 0.00027453 0.00029985 0.00477931
N 0.87225044 15.83278990 0.87590541 -0.00245956 -0.00351167 -0.00438337
N 4.31006975 16.60961244 3.89466474 -0.00174715 -0.00042939 0.00799505
N 5.66575765 13.72236227 1.05792821 -0.00633740 0.00009083 -0.00173170
N 2.74939635 12.66145485 3.95348113 -0.00121614 -0.00605517 -0.00051552
N 1.04920107 15.30140684 5.92383252 -0.00428968 -0.00118005 -0.00373110
N 4.32392202 16.29307229 8.75298101 -0.00323468 -0.00347299 -0.00064284
N 5.84360635 13.52363069 5.71542151 0.00318251 0.00523052 0.00017830
N 2.56442289 12.71582296 8.75199042 0.00566985 -0.00253923 -0.00721915
N 0.67978288 15.87735997 10.58643013 -0.00248207 -0.00297125 0.00657707
N 4.63509385 16.74751285 13.16364710 -0.00134941 -0.00292844 -0.00583414
N 6.14014830 13.66179870 10.47601244 0.00243285 -0.00046874 0.00487194
N 2.84990065 12.97389027 13.33624576 0.00547279 -0.00035032 -0.00189828
N 1.00291370 15.64682110 15.08247064 0.00503419 -0.00240018 0.00557404
N 4.63564169 16.57681961 17.93605176 -0.00397087 0.00318050 -0.00215856
N 6.48501507 13.41225278 15.23914432 0.00257559 -0.00025145 0.00340712
N 2.95216584 12.97455665 17.76998233 -0.00291706 -0.00207460 -0.00510658
N 1.23318386 15.40402158 19.97087411 -0.00130259 -0.00074936 0.00121562
N 4.55144373 16.70008757 22.68740328 -0.00469284 -0.00096319 0.00280783
N 6.27426921 13.17863488 19.91647792 -0.00190463 -0.00171931 0.00528078
N 3.01108544 12.80692765 22.86071072 0.00171926 0.00612373 -0.00727141
N 1.37682467 21.32260997 1.02530778 0.00251415 -0.00167565 -0.00426148
N 4.24588082 23.24605985 3.49149161 0.00199560 -0.00181742 0.00177905
N 5.63413639 20.03836354 0.87262349 -0.00116300 -0.00098231 0.00097234
N 2.39161034 18.00930334 3.66152124 0.00140855 0.00155943 0.00604604
N 1.19932825 21.16734488 5.42219662 -0.00763390 -0.00275299 -0.00368952
N 3.99475654 23.39051459 8.35825663 -0.00387762 0.00481238 0.00098082
N 5.29155855 19.95831340 5.65512326 -0.00013847 0.00835986 -0.00694030
N 3.19778428 18.24482193 8.62779065 0.00351771 0.00076602 -0.00311779
N 1.41728125 21.08262309 10.19022577 0.00104561 0.00492584 0.00500184
N 3.99839230 23.22269447 13.15638975 -0.00914946 -0.00018868 -0.00421934
N 5.30927723 19.88394101 10.42221477 0.00216886 -0.00328963 0.00232734
N 2.95510085 18.21623093 13.40310991 -0.00557917 0.00678013 -0.00853882
N 1.41135564 21.17834500 15.17504612 0.00163444 0.00152125 -0.00012041
N 4.08678793 23.24799573 18.06399620 -0.00339071 0.00025468 -0.00356820
N 5.40563714 20.15966020 15.21169966 -0.00153704 0.00149578 0.00029695
N 2.94450869 18.08453719 17.89168544 0.00639570 -0.00395241 -0.00114904
N 1.40889282 21.11242466 19.86554630 0.00414570 -0.00045107 0.00076307
N 4.25528969 23.19141196 22.74274103 -0.00026932 -0.00390761 -0.00095220
N 5.04859584 20.28288163 20.07176081 0.00154548 -0.00039408 -0.00330900
N 2.96688135 18.40105606 23.03363471 -0.00433809 0.00179311 0.00057896
N 1.05625312 27.60816730 0.77166344 0.00027500 -0.00297804 0.00119419
N 3.53393960 29.57624731 3.62133871 -0.00585149 0.00116620 0.00094484
N 4.95215676 26.70324965 1.04488837 0.00040668 0.00394671 0.00215582
N 2.23253824 24.29027053 3.55258301 0.00105066 0.00715706 0.00034100
N 1.04715427 27.65951280 5.58526349 0.00183412 0.00245598 -0.00651995
N 3.28120839 29.72589801 8.44390106 0.00274128 0.00364728 0.00638715
N 4.71725069 26.90892609 5.89820707 -0.00197912 -0.01024776 -0.00285351
N 2.00620318 24.40826523 8.14878645 0.00331865 0.00000364 0.00103296
N 0.90165341 27.65197783 10.43143418 -0.00099922 -0.00166109 0.00102732
N 3.29637716 29.83202305 13.32396578 -0.00445871 -0.00594263 0.00181911
N 4.65536981 26.81635273 10.52976256 0.00105434 -0.00540053 -0.00837840
N 1.86693444 24.16592544 13.11335664 -0.00118563 -0.01110980 0.00461506
N 1.02433244 27.53923329 15.03655267 0.00180310 -0.01139389 -0.00245212
N 3.17989477 29.56699794 17.75463570 0.00045860 -0.00051693 -0.00226561
N 4.98703308 26.24252263 15.26997461 0.00124333 0.00033761 0.00208525
N 2.17052596 24.50526741 17.95183028 0.00361231 0.00546699 0.00553027
N 0.93506853 27.70510298 19.67790431 -0.00908057 0.00633598 -0.00174241
N 3.57034712 29.79207814 22.72509952 0.00103681 0.00206907 -0.00611921
N 4.59992909 26.54652100 19.97694953 0.00322392 -0.00007977 0.00971903
N 2.63001494 24.72792920 22.67465205 -0.00096728 0.00216784 0.00213694
N 6.78922112 4.01893327 1.15177919 -0.00333967 -0.00326828 0.00281430
N 10.09363164 4.88929152 3.67763927 0.00084166 -0.00793998 0.00315469
N 11.76387580 1.93197659 1.01823990 0.00023691 -0.00289636 -0.00257807
N 8.49968711 1.21439466 3.81196588 -0.00170743 -0.00572520 -0.00203074
N 6.81541394 4.35801752 5.62877709 0.00056710 -0.01084230 -0.00348331
N 10.22473577 5.08868146 8.60922547 -0.00590842 0.00122991 0.00184077
N 11.79526304 1.52676859 5.77601676 0.00144724 -0.00469768 0.00089101
N 8.60704767 0.99629151 8.71013240 -0.00053104 -0.00371803 -0.00181012
N 6.81833969 4.44993848 10.48628555 0.00240751 0.00583741 0.00364557
N 9.95006088 4.82786675 13.38740331 -0.00808312 -0.00417188 0.00337406
N 11.72613089 1.71588806 10.59297613 0.00208796 0.00334989 0.00090513
N 8.24954217 1.06679065 13.40215589 -0.00289473 -0.00145665 0.00445763
N 7.01773325 3.98257690 15.51289836 -0.00370626 -0.00797019 -0.00309466
N 10.25943015 5.24337781 18.25407028 -0.00494290 0.00372495 -0.00501888
N 11.73996545 1.63125975 15.39959015 -0.00651883 -0.00119183 -0.00417240
N 8.22853475 1.06303225 18.09584558 -0.00103030 -0.00045827 0.00495416
N 6.61680246 4.20239881 20.07099255 0.00731413 -0.00207432 0.00075854
N 10.01284403 4.80085155 22.83108171 -0.00492850 0.00302296 -0.00008567
N 11.58644982 2.03213107 19.97091504 -0.00071791 -0.00284156 0.00008484
N 8.76456976 1.01929488 22.94429463 -0.00554540 0.00084467 -0.00528421
N 7.01736498 9.77763445 1.05830904 -0.00135683 0.00202531 0.00088686
N 10.51345205 10.51495540 3.72893510 0.00600862 0.00269691 -0.00292666
N 12.16135040 7.35282624 0.82976853 0.00437983 0.00344977 -0.00523873
N 8.99461242 6.81101497 3.89392204 0.00348931 -0.00329281 0.00128790
N 6.90554068 9.62584125 5.80494932 -0.00188257 -0.00261275 0.00014817
N 10.71298504 10.69274498 8.39337148 0.00559318 -0.00472341 -0.00775986
N 12.33943000 7.49636763 5.65172928 0.00204716 -0.00080924 -0.00291606
N 8.98496280 6.94945846 8.33480111 0.00449092 -0.00297143 -0.00153587
N 7.00989591 9.77420885 10.43724165 0.00071380 0.00124244 0.00226905
N 11.28739560 10.54461697 13.27083392 0.00157242 0.00216918 0.00886013
N 12.13325603 7.48757510 10.54837510 -0.00200141 0.00106949 -0.00670829
N 8.80743101 6.80923526 13.22442223 0.00503366 0.00243282 0.00104235
N 6.97159216 9.55067568 15.22032016 -0.00034849 -0.00177435 -0.00004317
N 10.80438935 10.70574986 18.25766298 0.00464129 0.00399860 -0.00242740
N 12.31428889 7.23316773 15.00946223 0.00437766 -0.00194352 -0.00226178
N 8.77196808 6.93956358 18.06205199 0.00223244 -0.00210487 0.00515445
N 7.17810676 9.93080336 20.19191505 0.00331222 -0.00348520 -0.00184384
N 10.78371550 10.77652404 22.61731993 0.00070786 -0.00007091 0.00245356
N 12.11774073 7.57463214 19.95610739 0.00591201 0.00109986 -0.00211288
N 8.92644037 6.76790903 22.85024283 0.00040209 -0.00004145 -0.00044446
N 7.39345558 15.36147149 0.84106901 -0.00069474 -0.00505378 0.00266542
N 10.32939175 17.36714948 3.85551285 0.00024624 0.00019108 -0.00186035
N 11.57452602 13.99961469 1.22627408 -0.00549209 -0.00302655 -0.00123913
N 8.94905938 12.11633266 3.37625267 -0.00439935 0.00380353 0.00259657
N 7.26998712 15.43679606 5.79050953 -0.00620425 -0.00000384 -0.00145794
N 10.63990598 17.30684390 8.68721318 0.00217179 0.00203026 -0.00326607
N 11.41170399 14.26635555 5.72660553 -0.00193791 0.00100200 -0.00620119
N 9.28405248 12.49815404 8.48207799 0.00440502 0.00233908 0.00004963
N 7.89877858 15.07039034 10.53146026 0.01004271 0.00603430 -0.00374508
N 10.39423592 17.35873010 13.17357371 0.00386952 0.00233607 -0.00331893
N 11.54838070 14.09819798 10.66434581 0.00049973 0.00480935 -0.00402084
N 9.44392014 11.95845137 13.24581632 -0.00397708 -0.00063340 0.01050204
N 7.91133393 15.31537591 15.01488208 0.00514217 0.00000432 -0.00449476
N 10.22336035 17.60783515 18.16480939 0.00442182 0.00544419 -0.00089697
N 12.03904508 14.17510562 15.29110179 0.00425010 0.00043466 0.00419291
N 9.14741306 12.19202739 17.77508719 -0.00190526 0.00207752 -0.00433472
N 7.64251901 15.02594901 19.77522797 0.00447394 -0.00151782 0.00152954
N 10.33679507 17.21863745 22.65234107 0.00035673 -0.00324947 0.00196570
N 11.69183837 14.02971471 20.11647045 -0.00216667 0.00513424 -0.00138879
N 9.00102937 12.24273038 22.84015878 -0.00087847 0.00317310 0.00455118
N 7.19606122 21.79149336 1.10266455 -0.00620615 0.00245481 0.00398962
N 9.70493283 23.70269357 3.72092259 0.00343499 0.00006510 0.00145931
N 10.82125588 20.75583155 1.14776316 -0.00166122 -0.00105100 0.00026456
N 8.36356683 18.40719476 3.77783590 0.00174697 0.00082016 -0.00077930
N 6.54164954 21.90616449 5.77585466 -0.00463853 0.00010812 0.00123836