2000
Time=4000.00000000 pbc="T T T" Lattice="30.97710320 0.00000000 0.00000000 0.00000000 30.16195769 0.00000000 0.00000000 0.00000000 23.58535218" energy=-12038.47603023 virial="-38.63998257 -36.28219918 3.09544234 -36.28219918 -37.20033077 18.77295976 3.09544234 18.77295976 -32.58577053" stress="0.00014942 -0.00159518 0.00012790 -0.00159518 0.00027158 0.00077795 0.00012790 0.00077795 0.00177641" Properties=species:S:1:pos:R:3:vel:R:3
C 30.39162883 3.57746185 1.56363920 -0.00035617 0.00217559 -0.00317672
C 2.48064750 0.32697363 2.92324660 0.00254218 -0.00604779 0.00067629
C 30.28856485 3.50534072 6.42711650 0.00073223 -0.00469792 -0.00077645
C 2.71405422 0.70113086 7.65539180 -0.00296295 -0.00404887 0.00174058
C 30.43137608 3.62592677 11.10996813 0.00018485 -0.00113704 -0.00074515
C 2.52609541 0.77229706 12.38237016 0.00017476 -0.00477244 -0.00312201
C 30.34973012 3.51771483 15.77997510 0.00414202 0.00241659 0.00265873
C 2.80911309 0.48122997 17.29238438 0.00155055 -0.00477634 -0.00349955
C 30.47593482 3.56517770 20.41537240 0.00068022 0.00342389 0.00247825
C 2.51741512 0.44390532 21.84381449 -0.00186667 0.00184672 0.00050091
C 30.82443553 9.19009029 1.72723234 -0.00381634 -0.00571488 0.00123444
C 2.77913664 6.20814103 3.12262508 -0.00308031 0.00069198 -0.00490101
C 30.69574333 9.08127662 6.45748777 0.00194435 -0.00510693 -0.00232039
C 3.19781349 6.20166984 7.72563387 0.00582819 0.00482614 0.00190794
C 30.90071771 9.32431657 11.07369608 -0.00106322 -0.00398771 0.00563786
C 2.86834976 6.16762174 12.45777866 -0.00429189 0.00154679 -0.00293592
C 30.85439248 9.27202948 15.96409385 -0.00213757 0.00055812 0.00557082
C 2.90729666 6.17027101 17.32504025 -0.00381223 -0.00337717 -0.00029655
C 30.84656096 9.27247249 20.56646228 -0.00048826 0.00103557 -0.00288738
C 2.87336539 6.24505565 21.85778494 -0.00099147 -0.00346063 0.00283230
C 0.21676885 14.74960051 1.66587650 -0.00272962 -0.00229561 -0.00027940
C 3.30447724 11.89920086 3.09203024 0.00443712 -0.00500778 -0.00408836
C 0.29111562 14.90010705 6.33351021 0.00389214 0.00407473 0.00704469
C 3.31570265 11.69423850 7.78592892 -0.00157518 0.00663371 0.00132296
C 0.36978437 14.91193156 11.17613135 0.00183367 0.00169837 0.00372552
C 3.28338362 11.80780510 12.51786755 -0.00207995 -0.00438249 0.00239195
C 0.26367491 14.84010652 15.98502328 -0.00114455 0.00385275 0.00382464
C 3.39994836 11.88917176 17.33282785 -0.00124435 0.00508627 0.00082715
C 0.15345198 14.77892875 20.63436781 0.00206768 -0.00685968 -0.00226670
C 3.35387220 11.91097079 21.83676976 -0.00103856 0.00029193 -0.00731927
C 0.59299561 20.50417191 1.65166235 -0.00376674 0.00137608 -0.00167112
C 3.61517348 17.57988757 2.96663902 0.00038439 -0.00272262 0.00326568
C 0.62677741 20.45407079 6.46381137 -0.00136351 -0.00102560 -0.00523245
C 3.48832202 17.51034041 7.67746089 -0.00134298 0.00219557 0.00644686
C 0.52626728 20.54510898 11.05216843 -0.00214673 0.00395329 -0.00137401
C 3.85328234 17.53909531 12.36559607 -0.00140268 -0.00159143 -0.00829037
C 0.73271232 20.37720109 15.90007100 0.00846177 -0.00029606 -0.00089781
C 3.61911438 17.30562751 17.09278977 0.00394813 -0.00640584 0.00041904
C 0.46807132 20.62854933 20.62086549 -0.00194750 0.00271339 0.00418971
C 3.77550255 17.51015425 21.81720315 -0.00691505 -0.00122847 0.00286525
C 30.95095044 27.19335992 1.58342801 -0.00504063 -0.00360787 -0.00264021
C 2.97486372 24.05888504 3.02418422 -0.00813531 -0.00224812 -0.00393399
C 30.84044322 27.28086063 6.35023309 -0.00493713 0.00465092 -0.00347990
C 3.07333960 24.07676607 7.73093065 -0.00122718 0.00047867 -0.00000588
C 0.11444379 26.97178898 11.11180212 -0.00644526 0.00064873 0.00263970
C 3.07362459 24.05175649 12.40528659 -0.00563533 -0.00109651 -0.00110296
C 0.23658442 27.21731188 15.79090846 -0.00496399 -0.00060069 0.00819299
C 3.09907471 24.11009629 17.10899133 -0.00093368 -0.00140748 0.00434830
C 0.14699216 27.37487808 20.57362829 -0.00434861 0.00506507 0.00152600
C 3.17672706 24.21584157 22.00893908 -0.00413776 0.00468646 -0.00331104
C 6.05368548 3.46343399 1.73481281 0.00244741 0.00280964 0.00693601
C 9.05771458 0.10252034 2.96569652 0.00780693 0.00002410 0.00588370
C 6.19130621 3.09392485 6.37563239 -0.00040118 0.00106646 -0.00148147
C 9.22473967 0.11045274 7.69487303 0.00433209 0.00020724 -0.00166801
C 5.94771904 3.16579297 11.08852753 -0.00475549 -0.00567086 -0.00502292
C 9.17939377 0.27930897 12.42886954 0.00395692 -0.00018545 -0.00010609
C 5.91722220 3.19169548 15.93128818 0.00681015 0.00488564 -0.00519873
C 8.94293974 0.12269251 17.10424309 -0.00171782 -0.00314488 -0.00594666
C 6.13090093 3.37286317 20.57137309 0.00584215 -0.00135883 -0.00297185
C 9.12765769 0.29545219 21.74544063 -0.00055079 0.00111195 -0.00672810
C 6.34284387 9.08813270 1.69569252 -0.00295852 0.00153890 -0.00559389
C 9.48988688 5.88620863 3.04224471 -0.00361626 0.00144767 -0.00122187
C 6.26813719 8.89012760 6.50773147 0.00087080 0.00062706 -0.00211921
C 9.34633075 5.74465567 7.81281998 -0.00652158 -0.00215906 0.00077291
C 6.29886895 8.77918495 11.13015088 0.00083551 -0.00208363 -0.00339847
C 9.51150461 5.99298697 12.37171521 0.00140268 0.00508349 0.00597875
C 6.30381052 8.74701868 15.89659662 0.00507922 0.00507366 -0.00147096
C 9.44053016 5.97620155 17.28241794 0.00417785 0.00162046 -0.00255649
C 6.41369929 8.82884902 20.72581117 0.00381365 0.00698465 0.00382794
C 9.66369899 6.12445162 21.92045110 0.00101854 0.00173396 0.00131324
C 6.86874259 14.65828224 1.71622813 -0.00051023 -0.00240032 0.00260820
C 9.91252064 11.62204435 2.94262239 -0.00251195 0.00151671 0.00075357
C 6.93891356 14.41967434 6.49618905 -0.00548845 0.00702386 0.00100723
C 9.91486323 11.53545308 7.80453294 -0.00354988 0.00095403 0.00428046
C 6.80448018 14.56414471 11.03981965 0.00253889 0.00084931 -0.00159967
C 9.93027028 11.44180444 12.53101589 -0.00301451 0.00116572 0.00348297
C 6.85838732 14.41209085 15.73820938 -0.00098153 0.00239286 -0.00315774
C 10.03750358 11.72865450 17.19292168 -0.00189752 0.00150237 0.00494841
C 6.90691125 14.33390384 20.53900409 -0.00424330 -0.00391306 0.00094080
C 10.00718550 11.50044577 21.90486192 -0.00228389 0.00024940 -0.00367452
C 6.05721490 21.20505863 1.71719258 0.00143454 -0.00182767 0.00339166
C 9.25048041 18.08595985 3.02269611 0.00133961 -0.00441354 0.00059250
C 6.21011517 21.23565613 6.48343271 -0.00004959 -0.00157555 0.00189786
C 9.15232227 18.21976234 7.81924484 -0.00045749 0.00570320 -0.00024331
C 6.28248388 21.17176667 11.09270680 -0.00096253 0.00333966 -0.00284086
C 9.27575102 18.03785398 12.35958202 -0.00737824 -0.00521759 -0.00003565
C 6.14759432 20.74325647 15.84337952 0.00342511 -0.00905280 0.00280015
C 8.94040368 17.90590923 17.27077426 0.00218231 -0.00155770 0.00294496
C 5.90990867 20.87309482 20.73035254 0.00162390 -0.00641138 0.00012566
C 9.46955054 18.27117640 21.90153270 -0.00443390 0.00127411 0.00164817
C 5.60697443 27.73891487 1.69505105 -0.00078856 0.00443745 0.00218308
C 8.60260251 24.52973233 3.12348940 -0.00112482 0.00426234 -0.00362668
C 5.33119006 27.61955864 6.43538566 -0.00673022 0.00035515 -0.00337881
C 8.74666662 24.62886132 7.75824485 0.00357667 -0.00095294 -0.00449491
C 5.78198990 27.83084333 11.07422003 0.00477428 0.00250051 -0.00025291
C 9.04356161 24.89191505 12.46403415 0.01206359 -0.00294232 -0.00210079
C 5.63248929 27.82637363 15.78180756 0.00076539 0.00390846 0.00384111
C 8.66145288 24.70495165 17.10434166 0.00356426 0.00298556 -0.00084897
C 5.67118692 27.71153996 20.46568425 0.00006793 0.00213226 -0.00163786
C 8.72257595 24.74671999 21.75900674 -0.00192727 0.00053248 -0.00025021
C 12.42337161 2.71922191 1.74732754 -0.00220191 -0.00103594 0.00002009
C 15.66141131 29.97571059 2.99658294 -0.00094829 0.00044000 -0.00408552
C 12.66551479 2.56759501 6.47491687 -0.00217902 0.00181512 -0.01106494
C 15.78170341 30.03872873 7.70553193 -0.00441674 -0.00616936 -0.00233360
C 12.68458297 2.56439492 11.12497513 -0.00427303 0.00563564 -0.00341587
C 15.69113191 29.94152279 12.62685434 -0.00499925 -0.00222704 -0.00432206
C 12.37538944 2.90257912 15.71819680 -0.00661046 0.00276843 0.00156234
C 15.77939066 29.84588127 17.10336429 -0.00344274 0.00209281 0.00097787
C 12.56117108 2.79655576 20.55655737 0.00064311 -0.00293088 -0.00583295
C 15.55815289 29.76900508 21.94596928 -0.00077513 0.00240288 -0.00301038
C 12.98308114 8.71782171 1.75203168 0.00410394 -0.00095511 -0.00143617
C 15.77550697 5.47322587 3.04327792 -0.00409868 0.00015185 0.00614151
C 12.99244502 8.43305683 6.54830673 0.00301265 0.00178699 -0.00426883
C 16.02660593 5.58310610 7.73638902 0.00260008 -0.00086463 0.00449704
C 12.91374007 8.40009302 11.37271039 0.00235630 -0.00015046 -0.00295330
C 15.96061620 5.64928029 12.44024546 0.00375272 -0.00864730 -0.00133128
C 12.96823273 8.47374285 15.81678705 0.00072743 -0.00016993 -0.00122292
C 15.91729849 5.42385419 17.25997218 -0.00206380 -0.00338064 -0.00128001
C 13.05225384 8.72610193 20.60200972 0.00420414 -0.00121677 0.00165952
C 16.05318495 5.63866897 21.88861360 0.00220392 0.00147843 -0.00068436
C 12.59209682 15.16853050 1.78307843 -0.00180916 -0.00090578 -0.00215286
C 15.47461165 12.11623339 3.08428831 -0.00457043 -0.00193898 0.00064156
C 12.35246832 15.14537306 6.60480151 0.00057550 0.00149226 -0.00430241
C 15.47187227 12.18721643 7.83589239 -0.00271348 -0.00551834 0.00005782
C 12.43259181 14.81628917 11.31347383 -0.00152570 0.00070356 -0.00248124
C 15.62180283 12.05983484 12.54764096 0.00009497 0.00207108 0.00175781
C 12.34529322 15.09011729 15.97562036 0.00187766 -0.00919359 -0.00211992
C 15.40182290 11.90365150 17.17307490 0.00236716 -0.00356404 0.00305944
C 12.44995408 15.22376331 20.66684036 0.00494921 0.00451438 0.00274501
C 15.62458600 12.03974964 21.96149407 -0.00626564 0.00092076 -0.00141611
C 11.74415613 21.70459899 1.73221238 0.00213747 -0.00425210 0.00108681
C 14.89377612 18.68986774 3.14008572 -0.00189867 0.00553516 0.00180269
C 11.78207187 21.63049526 6.35700963 0.00463744 -0.00001540 -0.00780235
C 14.86882023 18.50880003 7.67676816 -0.00302616 -0.00045940 0.00023962
C 11.84397014 21.88701665 11.06304993 -0.00087644 0.00182380 0.00800228
C 14.97695628 18.56030869 12.50624397 0.00880952 0.00057996 0.00098127
C 11.93973284 21.53875762 15.76873528 0.00458930 -0.00227750 0.00504965
C 15.02963726 18.51602851 17.24503773 -0.00134759 0.00131747 0.00169153
C 11.66392417 21.69634086 20.59353650 0.00167506 0.00297491 -0.00204905
C 14.91002503 18.58639233 21.81297991 0.00373900 0.00449516 0.00151275
C 12.08224611 27.23487506 1.84610826 0.00411428 0.00007072 0.00085677
C 15.24496989 24.32103000 2.98616561 0.00248064 0.00119315 0.00320540
C 12.27986099 27.26636569 6.51606908 0.00456941 0.00131401 -0.00056279
C 15.18483057 24.26830302 7.73919202 0.00111761 0.00268312 -0.00038058
C 12.33389559 27.44612834 11.16489173 0.00115120 0.00138554 -0.00080812
C 15.44090331 24.43209016 12.39678837 -0.01107907 -0.00554339 0.00211759
C 12.15937780 27.27844046 15.85624402 -0.00228216 0.00223312 0.00567423
C 15.11692064 24.34960577 17.21524652 -0.00194253 -0.00399199 0.00201463
C 12.11450864 27.32520237 20.62777826 0.00335812 -0.00372215 -0.00301216
C 15.13169710 24.39107936 22.01642342 -0.00493720 -0.00754935 -0.00320664
C 19.10791457 2.29417547 1.62560758 -0.00227949 0.00390023 -0.00110993
C 22.21898312 29.50677651 3.00144003 -0.00044051 -0.00309107 0.00690989
C 19.22700128 2.26397193 6.24699846 -0.00429023 -0.00103665 0.00055150
C 22.32182090 29.54215213 7.80013717 0.00105064 0.00154503 0.00025877
C 19.19783452 2.47249363 11.06703152 -0.00746205 -0.00139486 -0.00414222
C 22.26430052 29.58996233 12.45989536 -0.00476756 0.00891039 -0.00098180
C 19.06354262 2.39308253 15.76806106 0.00416165 -0.00440639 -0.00444223
C 22.37059421 29.59772368 17.17918198 -0.00226361 0.00311147 0.00367219
C 18.93272431 2.37972102 20.56626253 -0.00349271 -0.00144574 -0.00100516
C 22.43949449 29.72272124 21.87681839 0.00589462 0.00388070 0.00237912
C 18.73761203 9.13764472 1.68585560 -0.00053489 -0.00184159 -0.00069857
C 21.52966050 6.02867259 3.03871320 0.00469607 0.00276367 -0.00124550
C 18.41232097 8.94864589 6.41305332 -0.00059484 -0.00249309 -0.00067600
C 21.57706051 6.12496413 7.72363248 0.00608151 -0.00211423 0.00526508
C 18.65634545 9.12364174 11.07972328 0.00434986 0.00307954 0.00092805
C 21.77615348 5.98871420 12.51263475 -0.00474414 -0.00253153 0.00281001
C 18.55837330 9.12766373 15.86938044 0.00020534 -0.00273817 0.00200423
C 21.67958726 5.80839146 17.15584357 0.00439551 -0.00210211 -0.00633606
C 18.70914171 8.86679329 20.51653068 0.00802553 -0.00033918 0.00483777
C 21.83063667 5.97817099 21.89495976 0.00555985 0.00275961 0.00747175
C 18.03318227 15.66632446 1.71919066 0.00174006 0.00165284 -0.00729069
C 21.07645528 12.41073071 3.03464852 0.00370390 -0.00589912 -0.00107932
C 18.08572709 15.57548401 6.56000208 -0.00503484 -0.00042466 -0.00000328
C 21.01053492 12.46207685 7.75135094 -0.00503118 -0.00324353 0.00786339
C 18.11494239 15.58338881 11.14590007 -0.00141564 -0.00573614 -0.00041102
C 21.19602767 12.59746362 12.33650729 -0.00189551 -0.00446318 0.00384863
C 18.10133268 15.68275651 16.00875988 0.00113375 -0.00334325 -0.00076104
C 20.98127996 12.42778195 17.11161631 0.00379909 -0.00137594 0.00451419
C 18.19507263 15.53308182 20.68666202 0.00149430 -0.00537707 -0.00129200
C 21.10624270 12.55827881 21.87206230 -0.00118509 -0.00800541 -0.00093916
C 18.41460492 21.42989345 1.79006307 0.00077411 -0.00287289 -0.00240678
C 21.44975902 18.28059625 2.97244310 -0.00637361 0.00612861 0.00200669
C 18.42415284 21.33121888 6.44411979 0.00134465 0.01369827 -0.00260085
C 21.41431105 18.57131143 7.72086879 0.00177743 0.00129633 -0.00210841
C 18.14640595 21.23390636 11.09332546 0.00441347 0.00432667 0.00198298
C 21.24439959 18.35530094 12.39997090 -0.00333742 0.00546226 -0.00092305
C 18.47760195 21.25769194 15.81461554 0.00394918 -0.00712137 0.00137243
C 21.34769977 18.30439771 17.13690297 0.00425845 0.00046877 0.00709179
C 18.29507709 21.49704342 20.53421965 -0.00312167 0.00233404 -0.00046639
C 21.34243627 18.53260356 21.81242024 -0.00255556 0.00064888 0.00361556
C 18.76940234 26.97679697 1.78331363 -0.00150808 -0.00447748 -0.00291506
C 21.75601331 24.05322848 3.00349248 0.00264855 0.00208063 0.00033882
C 18.71422640 26.95555025 6.47663395 -0.00546706 0.00214649 0.00444677
C 21.72584532 24.05712564 7.61688129 -0.00131854 -0.00631702 0.00407916
C 18.92855567 26.80008833 11.09938127 0.00008762 -0.00135644 -0.00148902
C 21.73783281 23.91171926 12.45701214 -0.00065740 0.00379808 -0.00173371
C 18.92164486 26.89196611 16.00486409 -0.00322907 0.00441247 0.00018444
C 21.91375786 23.99051821 17.17687619 0.00098069 0.00073301 0.00071842
C 18.84502308 26.97336315 20.61252072 0.00301285 -0.00427834 -0.00073675
C 21.92839989 23.96725363 21.93165893 0.00052392 0.00317783 -0.00057429
C 24.81405972 3.04608861 1.65150816 0.00662120 -0.00304496 0.00430801
C 27.65260274 0.14244864 3.02920396 -0.00113562 -0.00911022 0.00113431
C 24.74081162 3.10935342 6.35215580 -0.00003129 -0.00104962 -0.00343598
C 27.68794801 0.10070816 7.70997398 0.00322708 -0.00364545 0.00629097
C 24.98131591 2.94838297 10.95715997 0.00481153 -0.00292239 0.00275011
C 27.83944248 30.11881100 12.38022259 0.00356285 -0.00033829 0.00167896
C 24.88748664 2.96218339 15.77700128 0.00652885 -0.00383697 0.00036473
C 28.12430909 30.15466057 17.03931857 -0.00031119 -0.00062855 -0.00555452
C 24.92527436 3.20563498 20.57908921 -0.00532830 -0.00341344 -0.00303256
C 27.74632061 30.14968184 21.85747910 -0.00611497 -0.00256232 0.00193941
C 24.38866418 9.57682442 1.66199858 0.00614815 0.00156587 0.00131093
C 27.37600621 6.46168786 2.78274938 0.00079421 -0.00468930 0.00713755
C 24.08188758 9.59203779 6.40703116 0.00426545 -0.00464524 0.00005330
C 27.29020663 6.58627271 7.65333806 -0.00813073 -0.00491148 -0.00444996
C 24.24870996 9.47737576 11.04698604 -0.00297155 -0.00266946 0.00723014
C 27.42765638 6.72690772 12.43886171 0.00028204 0.00188479 -0.00591528
C 24.10823506 9.75389089 15.74734697 -0.00078221 -0.00170825 0.00002566
C 27.35806342 6.63447247 17.08684625 -0.00170167 0.00056464 -0.00299321
C 24.14005422 9.77784520 20.49897350 -0.00051581 -0.00537465 -0.00495574
C 27.25445287 6.68596946 21.74952346 -0.00032014 -0.00092864 -0.00758708
C 24.45079601 15.17831835 1.66118792 0.00396470 -0.00136456 0.00034875
C 27.56601015 12.10027677 3.01447431 0.00204718 0.00652164 0.00589093
C 24.48551791 15.08053168 6.42063158 -0.00353000 -0.00009726 0.00186125
C 27.79474344 12.28491761 7.75445419 -0.00241520 0.00289784 -0.00139679
C 24.40996852 15.30773499 11.18268324 0.00207694 -0.00092485 -0.00134989
C 27.73568511 12.45325741 12.43706503 -0.00331466 -0.00154494 0.00430513
C 24.49731768 15.37620733 15.70763306 0.00377721 -0.00203650 0.00147285
C 27.53800850 12.20393115 17.12468328 -0.00400461 -0.00346676 0.00013531
C 24.51633243 15.31947304 20.52725780 -0.00176007 0.00167957 -0.00068587
C 27.74848896 12.37135798 22.00855416 -0.00258558 -0.00164616 -0.00221748
C 24.86910672 20.83139035 1.65397550 -0.00087918 -0.00306481 0.00550288
C 28.02989297 18.03358678 3.09825174 0.00036633 0.00135433 -0.00388590
C 24.95722118 20.83231233 6.37755531 -0.00404518 -0.00166750 -0.00071304
C 28.02062926 17.91796245 7.81650722 0.00107663 0.00310060 0.00054220
C 24.91940257 20.97221521 11.23504227 -0.00068047 -0.00067104 0.00175299
C 28.29628100 18.00292040 12.37530848 0.00186050 -0.00281279 -0.00393411
C 24.97494571 21.08185185 15.74091377 -0.00151486 0.00483558 -0.00066943
C 27.93778662 17.90639985 17.07466928 0.00107785 0.00003151 -0.00709168
C 24.75948059 21.14242986 20.52409483 -0.00243415 -0.00052532 -0.00312960
C 28.07150898 18.06169781 21.81910963 -0.00695322 -0.00285578 -0.00144774
C 25.36684526 26.45735777 1.62236014 -0.00566418 0.00314763 -0.00241439
C 28.48286645 23.55528679 2.86865216 0.00042194 0.00523500 -0.00203310
C 25.34014735 26.51866876 6.47512065 0.00306659 0.00207063 -0.00136714
C 28.49990894 23.67025089 7.65271978 -0.00051831 0.00405411 0.00301856
C 25.45718631 26.41483313 11.23344498 -0.00144157 0.00387724 0.00864357
C 28.52031574 23.57675661 12.53585217 -0.00252471 -0.00340896 -0.00620975
C 25.54092381 26.75650217 15.87223981 -0.00022549 0.00002114 -0.00033956
C 28.52095591 23.63757911 17.16772080 0.00164710 -0.00495006 -0.00040645
C 25.42462705 26.62921264 20.56037673 -0.00359737 0.00042477 -0.00341553
C 28.43075569 23.54104624 21.71788713 -0.00000086 -0.00225006 -0.00369962
N 0.25262425 4.43303122 0.87844549 0.00329734 -0.00095181 0.00461121
N 3.42153331 5.18001661 3.73444420 0.00245767 -0.00073804 -0.00148662
N 5.17229500 2.60335392 1.23335945 -0.00469256 -0.00265546 -0.00811913
N 1.49316615 1.01475741 3.53360371 -0.00020557 -0.00247664 0.00155116
N 0.21649119 4.14919152 5.67039423 0.00506483 0.00173583 0.00082453
N 3.77810332 5.27654675 8.55041911 -0.00458931 0.00755654 -0.00579089
N 5.40212103 2.24834513 5.70289016 0.00375364 0.00001578 0.00245306
N 1.85385535 1.62397175 8.26218993 -0.00021793 -0.00155561 0.00279260
N 0.19374846 4.42033918 10.28389194 0.00760011 0.00828390 0.00239624
N 3.40704538 5.10481199 13.14843396 0.00150024 -0.00347274 0.00161795
N 5.29670061 2.23234649 10.34192339 0.00127470 0.00406940 0.00578763
N 1.73495548 1.54964927 13.14201847 0.00259508 0.00091150 -0.00283362
N 30.90571416 4.55890972 15.05205811 0.00068433 -0.00288761 0.00040523
N 3.56651433 5.17495381 17.96038087 0.00575806 -0.00146272 0.00338700
N 5.17275569 2.36164329 15.18748496 0.00414970 0.00502631 0.00062978
N 1.90093425 1.25809918 17.87140089 0.00290164 0.00281890 0.00378103
N 0.32220741 4.36283830 19.68244460 0.00481860 -0.00227437 0.00126308
N 3.61224785 5.43325768 22.67931071 0.00306905 -0.00198229 0.00023999
N 5.46226447 2.41458012 19.90552921 0.00002139 0.00267317 -0.00050283
N 1.87951728 1.38290911 22.60495862 0.00087232 0.00289012 0.00156563
N 0.57910641 10.09493708 1.07201185 -0.00008441 0.00448163 0.00154123
N 3.94554411 10.98246118 3.83092053 0.00458740 -0.00067899 0.00316680
N 5.66815650 8.08668680 1.03178442 -0.00496821 0.00050505 -0.00916157
N 2.45102093 7.23082525 3.90430838 0.00186925 -0.00223777 -0.00446203
N 0.48793628 10.01570492 5.86886103 -0.00426293 0.00420205 0.00127261
N 3.98946113 10.81342540 8.55528138 -0.00214347 -0.00397672 -0.00310725
N 5.46128560 8.13505452 5.72119314 0.00317714 0.00255685 -0.00928229
N 2.43184760 7.11548429 8.29493764 -0.00160124 -0.00829558 0.00088064
N 0.68397717 10.15550304 10.29146136 -0.00350575 -0.00622540 -0.00170856
N 4.00306189 10.96503939 13.25602337 -0.00040122 0.00201502 -0.00226591
N 5.57205648 7.91236302 10.43896671 -0.00214835 -0.00312263 0.00311271
N 2.35036537 7.11685030 13.25493993 0.00220086 0.00100989 -0.00696726
N 0.73016416 10.04877326 15.28642476 0.00389057 -0.00079397 0.00417598
N 3.97271268 10.87316759 17.94854064 -0.00111334 -0.00217898 -0.00737812
N 5.63648884 7.86274169 15.12449454 0.00296593 -0.00704288 0.00188410
N 2.31183875 7.09921285 18.08603007 0.00291390 0.00254100 0.00101825
N 0.51792652 10.21928147 19.92290673 0.00032147 0.00025464 0.00307352
N 3.97247074 11.10567727 22.72334588 -0.00455243 -0.00217010 -0.00452414
N 5.58849757 8.10096960 19.91999369 -0.00532310 -0.00771341 0.00541360
N 2.32351911 7.25354944 22.54502563 -0.00426207 0.00130825 -0.00420829
N 0.91744558 15.64581785 0.88711783 0.00134285 0.00407060 0.00385624
N 4.49574450 16.69755359 3.51998247 0.00630593 0.00026224 -0.00236546
N 6.12731074 13.82944506 0.95658051 0.00038378 0.00149003 0.00021651
N 2.61576690 12.84015783 3.80052627 0.00219639 -0.00001558 0.00124792
N 0.90359653 15.77128649 5.52263670 0.00112898 0.00182841 0.00439801
N 4.44715256 16.98501749 8.43401093 -0.00090965 0.00083211 0.00345540
N 6.06032896 13.73306637 5.70903585 0.00311146 0.00128749 0.00031112
N 2.58916518 12.64487800 8.49703591 -0.00226829 0.00468992 -0.00240843
N 1.16112043 15.72650331 10.38181207 -0.00447584 -0.00031939 -0.00107078
N 4.50404183 16.69814791 13.19262054 -0.00329034 -0.00107867 -0.00141891
N 5.88491515 13.84133907 10.34611956 -0.00045369 -0.00014576 -0.00358723
N 2.92167156 12.87850299 13.29857392 0.00301370 0.00513112 -0.00283783
N 0.96635806 15.68528500 15.13324855 0.00022053 0.00023237 0.00164604
N 4.35140428 16.45232622 17.88584431 -0.00105472 0.00257175 0.00109651
N 6.21706919 13.44584038 15.04024164 0.00209934 0.00133843 0.00208135
N 2.77452527 12.82003160 18.12637290 0.00528549 -0.00537034 0.00405619
N 0.92671237 15.68337099 19.90798025 -0.00321997 0.00260635 0.00054712
N 4.59609630 16.80173063 22.53948354 0.00479999 0.00058726 -0.00225003
N 6.28407308 13.43350321 19.76030490 -0.00486775 -0.00173531 -0.00235238
N 2.64809425 12.94052806 22.40700782 0.00229892 -0.00260965 -0.00036563
N 1.23315804 21.44659777 0.91266082 0.00487108 -0.00020113 0.00060787
N 4.05896422 23.64976063 3.72546406 0.00001509 0.00075390 0.00150651
N 5.20275798 20.31467669 1.16463641 -0.00596661 -0.00027145 0.00132898
N 2.80716844 18.25081260 3.84732079 -0.00534860 0.00067440 0.00020282
N 1.34872144 21.35735145 5.76626448 0.00205372 -0.00283274 0.00030749
N 4.10001574 23.47630450 8.44896217 0.00311793 0.00319821 0.00171564
N 5.48632001 20.28361054 5.84103325 -0.00179879 -0.00398722 -0.00186924
N 2.66838967 18.39165075 8.31552683 0.00587971 -0.00066664 0.00045508
N 1.38723723 21.33057643 10.36910145 0.00225662 -0.00140530 0.00437069
N 4.05000140 23.47381918 13.09474064 -0.00097504 0.00366764 0.00066340
N 5.48617008 20.31578093 10.38714857 -0.00414280 -0.00177435 0.00045429
N 2.99093853 18.32242442 13.10018758 -0.00133186 0.00104482 0.00548931
N 1.48122430 21.25724960 15.22343890 -0.00266906 0.00032200 -0.00234266
N 4.00892100 23.39821153 17.85214828 -0.00418197 -0.00050995 0.00058472
N 5.29350478 19.98527079 15.15411869 -0.00747934 -0.00532732 0.00027040
N 2.79860286 18.16037588 17.79422186 -0.00224168 0.00482303 -0.00007753
N 1.50747873 21.28469775 20.05242705 0.00255911 0.00013786 -0.00043905
N 4.03387749 23.50813008 22.78412153 -0.00063960 -0.00422377 0.00348083
N 5.01030134 20.26735404 19.96308193 -0.00278349 0.00121608 0.00319238
N 2.88639692 18.38792014 22.51883285 -0.00106063 0.00734776 0.00138016
N 0.84386589 28.03297590 0.93389280 -0.00218934 -0.00306482 0.00018274
N 3.24445218 29.73871272 3.76727002 0.00485722 -0.00174429 -0.00064403
N 4.64788830 26.95011310 1.14397797 0.00584535 -0.00183220 -0.00263049
N 2.02256225 24.57610368 3.81579572 -0.00187036 -0.00361573 0.00855191
N 0.74166125 28.06644154 5.71876222 0.00205786 0.00211451 0.00122675
N 3.41733489 30.10396910 8.51312971 0.00569587 -0.00096458 -0.00513563
N 4.58571681 26.85784537 5.61388619 -0.00303861 -0.00458953 -0.00088562
N 2.24116897 24.80512098 8.42683381 0.00386191 0.00121330 0.00011981
N 0.73328299 27.85783633 10.29312911 0.00039295 0.00222436 -0.00292835
N 3.54409349 0.14482854 13.05865849 -0.00248575 -0.00054350 0.00051771
N 4.90467190 26.95568319 10.52183341 -0.00035346 -0.00384883 -0.00074015
N 2.05467349 24.64158532 13.12249961 0.00231337 -0.00315101 -0.00334655
N 0.94651797 28.05050310 15.00737528 0.00837492 0.00471332 0.00021528
N 3.63301597 29.89310671 18.06594184 0.00021655 -0.00003992 0.01108042
N 4.80193035 26.94076785 15.12037410 0.00261057 0.00530440 -0.00789204
N 2.24138866 24.82170505 17.80395235 -0.00261585 0.00118008 -0.00373715
N 0.98866468 28.07737525 19.79315734 0.00073855 -0.00633298 0.00012750
N 3.34188290 29.76726705 22.53923940 0.00096277 0.00507529 0.00444453
N 4.83919154 26.93426709 19.79575801 0.00562276 0.00259657 0.01113060
N 2.13019776 24.72950008 22.70828680 -0.00172691 0.00364496 -0.00505384
N 6.79388575 4.18898292 0.84842283 0.00588942 0.00452394 0.00172717
N 10.05841716 4.87086446 3.73546054 -0.00113869 0.00232002 -0.00385290
N 11.68782205 1.85658766 0.89302322 -0.00446797 -0.00564334 -0.00130847
N 8.60194184 1.09254075 3.84196022 0.00276796 0.00195686 -0.00114180
N 7.00784147 3.89365605 5.67668471 0.00044886 0.00538011 -0.00105841
N 9.97451105 4.84557175 8.57851168 0.00028138 -0.00297365 0.00220886
N 11.85147066 1.76998846 5.68478800 0.00280339 0.00051086 0.00518871
N 8.68715998 1.15727052 8.35717026 -0.00192573 0.00438031 0.00568650
N 6.80722756 3.93519834 10.33452841 -0.00169001 0.00127801 0.00213860
N 10.15121785 4.93298913 13.03321950 0.00221729 0.00378640 -0.00393776
N 11.86942222 1.80470024 10.41343766 0.00230822 -0.00914344 0.00262171
N 8.31301596 1.17518845 13.12261537 0.00563563 -0.00028197 -0.00042423
N 6.71034621 4.07215396 15.24493192 -0.00129822 0.00370675 -0.00125157
N 10.03213423 4.90892479 17.93564661 -0.00320482 0.00906427 0.00438026
N 11.60491450 1.93842914 15.10353776 -0.00019397 0.00105256 -0.00029744
N 8.41584760 1.12276237 17.82677589 -0.00063940 -0.00096532 -0.00570019
N 6.85695162 4.25810068 19.81472066 0.00092158 -0.00102879 -0.00302294
N 10.07709774 4.98738943 22.57480955 -0.00366451 -0.00341898 0.00028607
N 11.93644779 1.92423167 19.72480772 -0.00001156 0.00042743 0.00302643
N 8.24263947 1.23699685 22.26993589 -0.00227068 -0.00317384 0.00663671
N 7.14835869 9.90391172 0.95293008 -0.00169845 0.00101714 -0.00831985
N 10.83524572 10.94727012 3.67218785 0.00128824 -0.00103926 -0.00315475
N 12.29046958 7.74454160 1.16887289 0.00433208 -0.00001314 -0.00482588
N 8.73412470 6.86267606 3.66230652 0.00028773 -0.00219599 0.00901742
N 7.05536261 9.78344099 5.76324754 0.00505313 0.00245898 0.00087740
N 10.49050533 10.65080541 8.55967329 -0.00031152 -0.00595477 0.00589670
N 12.02203273 7.82038920 5.82169184 -0.00232776 -0.00283649 -0.00058908
N 8.78278497 6.74239192 8.52732743 -0.00100721 0.00082633 0.00120542
N 6.82936826 9.86733047 10.49791600 0.00097245 0.00712643 0.00409856
N 10.64074409 10.50726924 13.21979691 -0.00200645 0.00439110 0.00245833
N 12.06021662 7.60861724 10.69359216 0.00086205 0.00064937 -0.00245480
N 8.90173312 6.86722877 13.19965470 0.00242338 -0.00259428 -0.00426204
N 7.08263797 9.66185055 15.21732767 -0.00361761 0.00190797 -0.00351669
N 10.72386227 10.85572968 17.92944280 0.00151944 0.00563435 0.00159243
N 12.26447387 7.56500961 15.11269132 0.00246952 0.00060804 -0.00150989
N 8.88731519 6.98335521 18.00631397 -0.00635333 0.00066770 -0.00518429
N 7.31205066 9.65737177 20.04327782 -0.00205177 0.00145601 0.00540779
N 10.95266271 10.88325647 22.70871762 0.00380258 0.00427235 -0.00264950
N 12.21272053 7.87545891 19.93857793 -0.00321570 0.00381572 0.00662483
N 9.07025430 7.05442123 22.76632819 -0.00395264 -0.00377221 -0.00194604
N 7.80949884 15.41399105 1.00610195 0.00146814 0.00146649 0.00021850
N 10.29581835 17.48907947 3.62000278 0.00437697 -0.00424780 -0.00167890
N 11.69671240 14.34883751 1.14743639 0.00219131 -0.00358123 0.00069878
N 9.01138630 12.31933765 3.62486381 0.00427412 -0.00150510 0.00210304
N 7.81573455 15.19500720 5.87761254 -0.00144936 0.00147502 0.00248312
N 10.16098952 17.46344844 8.44147868 -0.00647020 0.00021174 -0.00380623
N 11.68962272 14.22740012 5.82490437 0.00109525 -0.00155698 -0.00386996
N 9.00467748 12.36514373 8.41336191 -0.00220786 0.00154673 -0.00675514
N 7.68257926 15.29365336 10.30005406 0.00223489 -0.00155085 0.00039294
N 10.27864913 17.52477742 13.14056631 0.00279847 0.00020787 -0.00077309
N 11.61378677 14.06903114 10.54803230 -0.00180813 0.00635562 0.00791886
N 9.23527440 12.37642441 13.21019601 0.00156366 0.00018918 -0.00147447
N 7.65939149 15.23701019 15.05551785 -0.00158831 -0.00061199 0.00057512
N 10.00539535 17.27179531 17.83579514 -0.00586169 -0.00142563 0.00236269
N 11.49727067 14.34638273 15.27988727 0.00138361 0.00015123 0.00086702
N 9.01344129 12.40221208 17.81156813 0.00548605 -0.00328180 -0.00374296
N 7.67993125 15.26429815 19.96490712 0.00216440 -0.00347797 -0.00036541
N 10.42346067 17.73065987 22.68978507 0.00215030 -0.00373349 0.00126045
N 11.49682789 14.41556288 20.12026309 0.00060688 0.00046434 -0.00225282
N 9.08494532 12.22590242 22.56746018 -0.00730311 0.00167684 -0.00125800
N 6.94747378 21.77263005 0.86072213 -0.00308772 -0.00106284 -0.00438636
N 9.46939865 23.81964416 3.95526250 0.01146926 -0.00417778 -0.00283248
N 11.00785923 20.84409564 1.00446678 0.00166923 0.00514915 -0.00093970
N 8.22647383 18.51047670 3.83019949 -0.00152501 0.00188975 0.00355377
N 6.98734976 22.01268101 5.70027889 0.00319754 -0.00085144 0.00193730