2000
Time=24000.00000000 pbc="T T T" Lattice="31.17922315 0.00000000 0.00000000 0.00000000 29.92583855 0.00000000 0.00000000 0.00000000 23.67522211" energy=-12040.27285683 virial="-73.37690458 -14.72078123 9.38264248 -14.72078123 -46.36310279 7.51815880 9.38264248 7.51815880 -102.81429931" stress="-0.00106309 -0.00071727 0.00038882 -0.00071727 0.00003141 0.00020417 0.00038882 0.00020417 -0.00194647" Properties=species:S:1:pos:R:3:vel:R:3
C 30.64657034 3.41166876 1.67780835 -0.00052132 -0.00134350 -0.00097056
C 2.61330378 0.56229646 3.08670714 -0.00557004 0.00280010 0.00731395
C 30.35064651 3.44787082 6.39031903 0.00371158 -0.00050262 0.00040167
C 2.52426894 0.53982277 7.69439257 0.00070834 0.00686592 -0.00347409
C 30.44258789 3.57486408 11.20512180 0.00595332 0.00427724 0.00250848
C 2.46466057 0.62421465 12.44789225 -0.00517434 -0.00102818 -0.00166660
C 30.39454550 3.53832320 16.03562143 -0.00088048 -0.00292294 -0.00464320
C 2.53846195 0.79483601 17.13615047 0.00250684 -0.00100814 -0.00268489
C 30.54109716 3.40694419 20.64693864 -0.00050747 -0.00304367 -0.00052342
C 2.56410093 0.62127003 21.98357681 0.00159045 0.00154929 0.00375027
C 31.08017621 9.21443901 1.65026255 -0.00098464 0.00037609 0.00197546
C 3.05444175 5.99478734 2.96829069 0.00435276 0.00377790 -0.00213719
C 31.06317813 8.98315090 6.49493025 -0.00491159 0.00413150 0.00114373
C 2.88062058 6.13388877 7.77738210 0.00612988 -0.00904907 0.00494649
C 30.93261172 9.09890560 11.25845039 -0.00416113 0.00047300 -0.00184477
C 2.77468807 6.17494849 12.73843668 0.01349550 0.00022766 0.00101777
C 30.91968802 9.10471110 16.07529592 0.00218752 -0.00186954 -0.00008591
C 2.79289079 6.09023361 17.31886170 0.00242990 0.00284720 -0.00094920
C 30.83250205 9.18107700 20.79019263 0.00261594 -0.00514703 0.00169628
C 2.94372939 5.84099006 21.89581928 -0.00240738 0.00594893 -0.00202836
C 0.19559312 14.80512752 1.78996748 -0.00300813 -0.00728486 -0.00200662
C 3.25143871 11.83423201 2.84430689 -0.00923577 0.00462003 0.00278665
C 0.36703798 14.68216022 6.48881984 0.00309542 -0.00021294 0.00088022
C 3.28892960 11.84931614 7.80537849 0.00741935 -0.00197615 -0.00412052
C 0.18319223 14.84396812 11.24826848 0.00581915 -0.00525402 0.00261729
C 3.08716963 11.80897982 12.52487715 -0.00037139 -0.00257525 0.00161933
C 0.24525387 14.75551670 16.05542780 0.00067458 -0.00200389 0.00185587
C 3.10331566 11.84272827 17.31922213 0.00712158 0.00251757 0.00449933
C 0.26988510 14.85297915 20.76946034 0.00314298 0.00442288 0.00355746
C 3.11441650 11.61179372 21.92442219 0.00094179 -0.00370604 -0.00103860
C 0.68460070 20.29834754 1.79365119 -0.00589690 -0.00302456 -0.00040290
C 3.65757750 17.28802047 2.97752784 -0.00099144 0.00090040 -0.00329715
C 0.80951276 20.15540135 6.45073961 -0.00012557 0.00410148 0.00374860
C 3.81876403 17.36644308 7.59488373 0.00406519 -0.00594007 -0.00015367
C 0.90001229 20.14798033 11.10735086 -0.00350053 -0.00396848 0.00300460
C 3.90878844 17.31749864 12.48297774 -0.00211958 0.00759716 -0.00215832
C 0.64108068 20.28978468 15.89639692 -0.00436041 0.00435935 -0.00002297
C 3.65884316 17.47444427 17.16020490 -0.00132469 0.00113096 0.00049989
C 0.80000825 20.29704988 20.65668507 -0.00162038 0.00106788 0.00038152
C 3.83383521 17.30277502 21.88066503 0.00454856 0.00118102 -0.00315461
C 30.93855046 27.05202462 1.61123300 -0.00256263 0.00030628 0.00431482
C 3.05771408 23.92239356 3.20086434 0.00261574 -0.00672414 -0.00324885
C 31.02384212 26.89871140 6.23187370 0.00377030 0.00595447 -0.01493121
C 3.07439838 23.99213147 7.92797934 0.00135618 0.00967279 -0.00403950
C 31.04793824 26.86246228 11.24419186 -0.00831885 0.00481954 -0.00217078
C 2.86732264 24.02134841 12.55198188 -0.00181941 -0.00111339 -0.00100466
C 30.97798832 27.20373927 15.89318596 0.00354672 -0.00516870 0.00349053
C 3.16814992 23.79697808 17.39301773 0.00253596 -0.00760119 0.00722729
C 0.14764573 26.82213581 20.69582843 0.00270231 0.00381048 -0.00922635
C 3.25028466 23.98759690 22.08364828 -0.00141714 0.00281895 0.00304921
C 6.20367477 3.30065284 1.82240352 0.00047615 -0.00312843 0.00004625
C 9.26879928 0.33591136 3.08897165 0.00479989 -0.00235991 -0.00325232
C 5.93737048 3.19042111 6.59414325 -0.00313525 -0.00332410 0.00069846
C 9.26577189 0.22726384 7.91583115 0.00115830 0.00224642 -0.00352220
C 6.04159548 3.32023741 11.02676808 -0.00212979 0.00339204 -0.00081232
C 8.93213220 0.22117882 12.47860802 -0.00330890 0.00900784 0.00326703
C 5.96284639 3.40678548 15.93951400 0.00624739 -0.00153322 -0.00297347
C 8.97480211 0.23119118 17.07123519 0.00190386 0.00116401 0.00234426
C 6.05833831 2.97319837 20.53569031 0.00354703 0.00120981 0.00311272
C 9.14519652 0.15887995 21.92259396 0.00364553 -0.00530411 0.00036968
C 6.59628641 8.68086375 1.74788469 0.01001802 -0.00337453 0.00221998
C 9.61159908 5.85865620 3.01848709 -0.00658313 0.00250031 0.00319333
C 6.52930160 8.69869371 6.44149533 0.00134722 0.00154897 -0.00339884
C 9.62441023 5.83371083 7.93821376 -0.00332886 0.00214923 0.00089995
C 6.31279959 8.68415514 11.20355897 -0.00109151 0.00418365 -0.00976059
C 9.51018967 5.91296092 12.48825686 0.00504141 -0.00315986 0.00405451
C 6.20165951 8.71274129 15.89768493 -0.01198549 -0.00033804 -0.00356083
C 9.46854729 5.60011320 17.11581449 0.00358411 -0.00700959 0.00822407
C 6.18543477 8.91290053 20.72274025 -0.00613222 0.00470003 -0.00443128
C 9.47578608 6.04918507 21.80685026 -0.01029154 -0.00286326 0.00385063
C 7.02558095 14.13409321 1.76297371 -0.00482153 0.00072410 -0.00222142
C 9.85823544 11.35401177 3.03589206 0.00170811 0.00337578 -0.00146835
C 6.76269105 14.31108632 6.60999567 -0.00443924 0.00086413 0.00343179
C 10.17101158 11.17979139 7.69199141 -0.00017217 0.00084140 0.00611580
C 6.89061388 13.90488886 11.25463052 0.00393865 -0.00417417 -0.00269965
C 10.10391326 11.42791727 12.52069614 0.00194684 0.00383414 0.00078908
C 6.60580821 14.17881171 16.06857133 0.00212678 0.00276652 -0.00311094
C 9.64690105 11.26193366 17.30549788 -0.00426536 0.00499581 0.00395277
C 6.70753154 14.21595911 20.75242098 -0.00836082 -0.00098991 -0.00238519
C 10.14449750 11.37674552 21.96268352 0.00253107 -0.00183816 0.00194500
C 6.28182202 20.67364781 1.72438502 0.00207707 0.00125115 -0.00145339
C 9.50930611 18.09096634 3.04986073 0.00468238 -0.00902239 0.00306966
C 6.34262158 21.09859089 6.50934403 -0.00118633 0.00690855 -0.00444982
C 9.21539563 18.05289908 7.76229747 0.00262784 0.00681678 0.00310618
C 5.95773005 20.89463423 11.17812886 -0.00526823 0.00144717 0.00964376
C 9.15540813 18.09341591 12.42187442 -0.00121916 0.00370825 0.00280308
C 6.06168315 21.03491170 15.91049800 0.01053348 -0.00161309 0.00013437
C 9.01149237 17.76725943 17.03564691 0.00477292 0.00313425 -0.00110133
C 6.31510137 20.81394514 20.56415665 -0.00059509 0.00222627 0.00161690
C 9.24188582 17.85720107 21.97004374 0.00589580 0.00092919 0.00374185
C 5.75461379 27.46870780 1.69391038 0.00130320 -0.00096217 0.00405724
C 8.77523594 24.67229833 2.72899433 -0.00355297 -0.00446569 0.00189300
C 5.62939420 27.59228132 6.37622365 0.00497498 -0.00005878 0.00312208
C 8.47746384 24.44124282 7.74202231 0.00066857 0.00405207 -0.00539641
C 5.52954509 27.55979745 11.24292387 0.00404459 0.00286075 0.01176001
C 8.68854267 24.57445718 12.53699161 0.00173269 -0.00015058 0.00659355
C 5.50231340 27.59486002 15.96673621 -0.00083680 0.00693086 -0.00306266
C 8.72965200 24.46550424 17.28220518 0.00083385 -0.00070379 -0.00499690
C 5.43807777 27.61429878 20.57029017 0.00078125 -0.00505878 0.00647671
C 8.64673675 24.38720183 21.87684142 0.00495233 -0.00119549 0.00572431
C 12.73109940 2.83689536 1.73262852 -0.00253598 0.00874309 -0.00154720
C 16.10726583 0.02515215 2.85741838 0.01200210 0.00529167 -0.01026369
C 12.93836479 2.57363974 6.57547401 -0.00845480 0.00055269 -0.00487471
C 15.65718812 29.77242250 7.91862081 -0.00286285 0.00111551 -0.00172528
C 12.61327066 2.94311886 11.22186049 0.00244476 -0.00273827 0.00686047
C 15.75540861 29.63236389 12.45900046 0.00415218 -0.00190604 0.00062125
C 12.77400838 2.69536372 15.92750616 0.00173861 0.00118275 -0.00159844
C 15.95181694 29.67965269 17.20612242 -0.00344733 -0.00072883 -0.00613307
C 12.71079691 2.92041672 20.60018802 -0.00735582 0.00290604 -0.00465777
C 15.39086218 0.02456856 21.91195110 0.00248727 -0.00236307 0.00372235
C 13.06822900 8.08703093 2.00781717 0.00274753 -0.00227936 -0.00168022
C 16.50972689 5.40945914 3.17668000 0.00016281 0.00246639 -0.00651360
C 13.25952528 8.27724414 6.42648637 0.00200038 0.00464734 -0.00003776
C 16.26556385 5.17426296 7.67390633 0.00449879 -0.00166054 0.00082971
C 13.28843056 8.31385301 11.05363966 -0.00095412 -0.00332433 -0.00327269
C 16.46502173 5.51753030 12.36516342 -0.00657411 0.00419768 0.00117916
C 13.22467381 8.33686965 15.78477455 -0.00371119 0.00399852 0.00202118
C 16.45467483 5.63042370 17.32984904 0.00165352 0.00628248 0.00000478
C 13.10838193 8.31105955 20.61970309 0.00535279 -0.00007254 0.00678903
C 16.27056540 5.49211516 22.13508562 0.00390572 0.00487640 0.00086667
C 12.50244073 14.88203109 1.62638268 -0.00455022 0.00112693 0.00264718
C 15.64824542 11.94974342 2.99957300 -0.00063684 -0.00192204 -0.00347633
C 12.42044950 15.06204696 6.26431470 -0.00055332 -0.00525460 0.00332928
C 15.68342044 12.04068122 7.87207393 0.00113085 0.00396703 -0.00035750
C 12.34632382 14.65369820 11.04080827 0.00286985 -0.00683452 0.00260344
C 15.70453564 11.77025130 12.59678770 -0.00448395 0.00065910 0.00113287
C 12.31438997 15.01038233 15.99803240 0.00056791 0.00055858 0.01056191
C 15.70333795 11.83806223 17.25220267 0.00239310 0.00015324 -0.00425027
C 12.45490420 14.86370043 20.53396241 -0.00570162 0.00320329 0.00411527
C 15.90051256 11.83651644 22.03304231 0.00295644 0.00462327 0.00098395
C 11.88129016 21.66835803 1.68863690 -0.00231183 0.00071749 -0.00246873
C 14.98261438 18.54640455 3.01749177 -0.00118526 -0.00310409 0.00221825
C 11.63770855 21.49889084 6.42308665 -0.00579509 0.00294900 0.00243252
C 14.99648079 18.58203640 7.67123146 -0.00459272 -0.00269615 -0.00003913
C 11.61023931 21.62998590 11.09500040 0.00152131 -0.00741797 -0.00376976
C 14.82382649 18.74889725 12.43129195 0.00446296 0.00091401 -0.00255919
C 11.65004490 21.58188790 15.91067103 0.00294711 0.00009850 0.00379280
C 15.15262293 18.64120566 17.24474195 0.00660365 -0.00594837 -0.00187480
C 11.70677241 21.41812904 20.67955091 0.00673951 0.00497415 0.00442322
C 15.05919645 18.34676751 21.85798700 -0.00465934 -0.00040048 -0.00521401
C 12.44064130 27.08013308 1.72692612 0.00109856 0.00382720 -0.00569053
C 15.28104049 24.42356778 3.05787519 0.00495732 -0.00434319 0.00323913
C 12.14190753 26.96532750 6.56673419 -0.00383789 0.00698451 0.00144715
C 15.29550425 24.15210532 7.81930849 -0.00354668 0.00020750 0.00233414
C 12.19444646 27.28239116 11.25857426 0.00083528 -0.00151872 0.00609495
C 15.28941880 24.12469981 12.42343703 -0.00032909 -0.00202887 -0.00487814
C 12.29596736 27.11780964 16.03809061 -0.00001709 0.00070786 -0.00451224
C 15.33549864 24.16899692 17.10851710 0.00320876 -0.00075739 -0.00001908
C 12.20574853 27.36058489 20.61905297 0.00034370 0.00013064 -0.00217406
C 15.11647532 24.29847855 21.92664264 0.00363724 -0.00063713 -0.00421219
C 19.60143437 2.35176414 1.70505620 -0.00554548 0.00124658 -0.00684251
C 22.33140486 29.31484063 2.79632725 -0.00208338 -0.00770930 0.00204196
C 19.57853090 2.26487103 6.52118823 -0.00195920 -0.00436143 0.00230170
C 22.77265841 29.37656476 7.54241002 0.00143258 -0.00600929 0.00475810
C 19.48255337 2.29932182 11.25662989 0.00312066 0.00335919 0.00407903
C 22.52812044 29.20588621 12.30846026 0.00326161 -0.00059209 0.00128955
C 19.40131069 2.33766170 15.84939096 -0.00105117 -0.00199368 -0.00607184
C 22.47520319 29.16801177 17.06029038 -0.00476351 -0.00125558 -0.00356045
C 19.44442157 2.72269425 20.66682743 0.00046084 0.00099986 -0.00506383
C 22.48694175 29.02080073 21.76667866 -0.00249931 -0.00041719 -0.00407934
C 18.84776920 9.38382199 1.59098889 0.00047214 -0.00075938 0.00374016
C 21.85773854 6.04517707 3.06381462 0.00259355 -0.00030024 0.00158076
C 18.77692478 9.27438436 6.29743499 0.00057115 0.00016135 -0.00297401
C 21.92201948 6.05589911 7.73485722 -0.00457724 -0.00086441 -0.00177960
C 19.09829796 8.75871332 11.10453271 0.00199855 0.00153265 0.00051289
C 22.21574632 6.22499705 12.50450189 0.00327984 0.00123206 -0.00873614
C 18.91761001 9.07833070 15.76155765 -0.00385534 -0.00669660 -0.00041027
C 21.84750915 6.00795246 17.24870383 0.00218321 0.00281431 0.00352839
C 18.85677934 9.14271405 20.65316572 0.00104784 -0.00312869 -0.00016092
C 21.93119777 6.14448609 22.05017353 0.00489246 0.00039766 -0.00125879
C 17.99859732 15.50834394 1.85765027 0.00784889 -0.00025270 0.00325943
C 21.37635080 12.51629398 3.12059523 0.00303026 0.00293774 0.00076966
C 18.12788950 15.54295952 6.44865946 -0.00064718 0.00240489 -0.00133424
C 21.37931211 12.71989524 7.78908819 -0.01392130 -0.00472130 0.00335473
C 17.76247392 15.57452420 11.02888062 -0.00922180 0.00471167 -0.00231566
C 21.20899927 12.52407902 12.62630453 0.00189667 -0.01043434 -0.00108609
C 18.16603483 15.85061759 15.87205459 -0.00074704 -0.00445089 -0.00923823
C 21.36835066 12.75465482 17.08284589 -0.00342277 -0.00375112 0.00550135
C 18.07367391 15.64258395 20.54021463 0.00256122 -0.00084996 0.00275924
C 21.51771331 12.84031358 21.96434098 -0.00226170 0.00497846 -0.00144804
C 18.31771385 21.37170412 1.69352428 0.00079983 0.00424433 -0.00356913
C 21.51826525 18.14984980 3.18239799 0.00332041 0.00002556 0.00524882
C 18.35067250 21.31436582 6.37789846 -0.00238472 -0.00755233 0.00111947
C 21.63858768 18.23409185 7.87523735 0.00336681 -0.00062821 0.00096875
C 18.68756539 21.14411604 11.12736809 0.00274170 0.00161866 -0.00101150
C 21.63540736 18.01230516 12.57877313 -0.00778895 -0.00113660 0.00388858
C 18.52233186 21.24087011 15.85984546 -0.00317996 0.00780254 -0.00075247
C 21.59732596 18.23569037 17.17822374 -0.00178049 0.00009458 -0.00512024
C 18.45014972 21.25009089 20.68984004 -0.00214284 0.00260962 0.00019664
C 21.51631850 18.25213982 21.99860663 0.00909271 -0.00063659 0.00257851
C 18.52731511 26.76275183 1.56602534 -0.00424565 -0.00073289 -0.00159605
C 21.80951902 23.77843443 2.94284542 -0.00132305 0.00128028 -0.00172730
C 19.07020514 26.72560305 6.44951709 0.00136801 0.00469597 -0.00409238
C 22.09473866 23.87098781 7.88737573 0.00494405 -0.00265417 0.00037786
C 18.73383904 26.64303366 11.11243440 -0.00119789 0.00376121 -0.00155198
C 22.16072154 23.60006157 12.46758213 -0.00543598 0.00268266 -0.00091508
C 19.04491204 26.49937183 15.88834615 0.00346751 0.00407073 -0.00181056
C 22.11960614 23.57694817 17.26202961 -0.00504216 -0.00148831 -0.00098896
C 18.68177100 26.89670112 20.60007417 -0.00022118 -0.00222737 -0.00118425
C 21.95311879 23.90088961 21.83505817 0.00095048 0.00861065 0.00412678
C 24.88626332 2.92392891 1.61939485 -0.00051380 -0.00064022 -0.00098517
C 27.58214284 29.62269616 3.00714152 0.00719026 -0.00088787 -0.00220342
C 25.06656464 3.09755794 6.45833412 -0.00387327 0.00194630 0.00209953
C 28.26422505 29.84948188 7.70161013 0.00670326 -0.00077348 -0.00262293
C 24.81488230 3.21048061 11.10824472 -0.00328810 0.00390339 0.00600793
C 28.00875676 0.05795116 12.42188043 -0.00843571 0.00377920 0.00563914
C 24.83374800 2.99827068 15.96039099 -0.00020433 -0.00044205 -0.00101626
C 28.05250178 29.90990590 17.18296450 0.00940146 -0.00636368 -0.00005186
C 24.93007464 3.03262979 20.77197429 0.00046207 0.00128837 -0.00271770
C 28.01798312 0.03915953 21.97703246 0.00044504 0.00945393 -0.00526836
C 24.46693377 9.76042141 1.95718138 -0.00243671 -0.00405064 0.00557096
C 27.66929702 6.68051686 2.93509307 -0.00437298 -0.00266442 0.00469539
C 24.23973540 9.62864652 6.66998306 0.00126747 0.00506730 0.00138801
C 27.62409643 6.75045899 7.52708705 -0.00623781 -0.00236318 -0.00562255
C 24.36050171 9.67056021 11.20399985 -0.00134405 0.00005536 0.00703270
C 27.49469731 6.54802027 12.40011817 0.00009587 -0.00261011 -0.00101493
C 24.41688418 9.61469504 15.86992124 -0.00305012 0.00137748 -0.00153117
C 27.15171276 6.43872853 17.36104563 0.00041149 0.00053770 0.00725298
C 24.28785736 9.67093301 20.80868389 -0.00017520 -0.00063477 0.00144995
C 27.29753015 6.57594129 22.06776318 -0.00400156 -0.00949511 0.00052650
C 24.91426177 15.48049474 1.90254432 -0.00346683 -0.00341904 -0.00354554
C 27.93704745 12.19883248 2.93705045 -0.00406210 -0.00521637 0.00067856
C 24.71100092 15.16315211 6.55506157 -0.00148402 0.00159533 0.00202919
C 28.18771731 12.36818703 7.67753595 0.00593040 -0.00072011 0.00851222
C 24.62799418 15.42807961 11.19708545 0.00399775 0.00057061 0.00098846
C 27.78135241 12.23224683 12.44589175 0.00600846 0.00117677 0.00298792
C 24.96559863 15.29588765 15.95068191 -0.00011980 -0.01076973 -0.00470420
C 27.88503297 12.21733736 17.33612548 -0.00064958 -0.00157853 -0.00055803
C 24.76427117 15.51487239 20.62234858 -0.00355663 0.00408542 -0.00507012
C 27.63623387 12.17622801 21.97906962 -0.00348985 0.00523546 -0.00306785
C 25.11349917 20.86181695 1.70893970 0.00371139 0.00546995 0.00295426
C 28.32868202 17.71499305 3.16550071 0.00192440 -0.00015431 0.00686359
C 25.11703149 20.71716203 6.38729343 -0.00386830 0.00145004 -0.00177952
C 28.44771074 17.42477110 7.76072921 -0.01080924 -0.00059843 0.00029378
C 25.10208621 20.67663715 11.05300774 -0.00082159 -0.00061647 -0.00365227
C 28.44410618 17.74545210 12.60731949 -0.00408070 -0.00196272 -0.00379967
C 24.96413264 20.62988174 15.85484968 -0.00770725 0.00091168 -0.00262867
C 28.38253257 17.74873412 17.26673732 -0.00196787 0.00020673 0.00268612
C 25.19166592 20.61348661 20.67089893 0.00167000 -0.00214047 0.00305322
C 28.15048135 17.83945946 22.27559188 0.00455997 0.00177475 -0.00567773
C 25.10161635 26.15424223 1.73792315 -0.00683109 -0.00105179 -0.00145439
C 28.60452536 23.29987184 2.99289335 -0.00172460 0.00253746 -0.00064808
C 25.51349177 26.26758575 6.43673985 -0.00006668 0.00177434 0.00424742
C 28.45760824 23.47009038 7.73082288 -0.00250967 -0.00675099 0.00445116
C 25.54036495 26.27100120 11.17742279 0.00101079 0.00839895 0.00564224
C 28.87436822 23.27015435 12.43123197 0.00161735 -0.00037127 -0.00528693
C 25.62142784 26.17422086 15.87412175 0.00739906 -0.00260405 0.00571046
C 28.68222860 23.05093217 17.12004827 0.00567623 0.00096127 -0.00134245
C 25.68280496 26.02230885 20.52981553 0.00447192 -0.00079115 -0.00265477
C 28.40804835 23.21136794 21.92118584 0.00083111 -0.00251885 0.00462109
N 31.17235823 4.36503342 0.84155526 0.00706294 0.00733566 -0.00032216
N 3.60090416 5.04622623 3.72882529 0.00054421 0.00139926 -0.00389193
N 5.53448936 2.50411698 1.00293732 0.00095734 -0.00188192 0.00070453
N 1.83498984 1.32765147 3.83943217 0.00042951 -0.00428072 -0.00293678
N 0.11423955 4.18109199 5.69810210 0.00154786 -0.00188286 0.00247729
N 3.68509004 5.17202409 8.41532911 -0.00097285 -0.00098175 0.00226589
N 5.21631917 2.42663675 5.77490319 -0.00010174 0.00246406 0.00055719
N 1.59104270 1.33275261 8.26555280 -0.00099275 -0.00030236 0.00517405
N 0.13338989 4.28008900 10.44867243 -0.00122513 0.00383584 0.00425021
N 3.54050605 5.17145943 13.36335385 0.00045096 -0.00364633 0.00730491
N 5.33860994 2.28642708 10.51241617 -0.00545131 -0.00120300 -0.00008782
N 1.51035973 1.33223612 13.02942395 -0.00328036 -0.00397797 0.00069296
N 0.18199796 4.16111036 15.25588280 -0.00085470 0.00158859 -0.00096872
N 3.53467998 5.24241464 17.99831063 0.00035688 -0.00238583 0.00166856
N 5.16040803 2.57055998 15.20208809 -0.00117954 -0.00368020 -0.00088858
N 1.59269095 1.35865216 17.98526060 0.00108734 0.00094709 0.00168528
N 0.19040301 4.23595414 20.01387256 -0.00087626 -0.00899656 -0.00078115
N 3.48485586 4.91657957 22.70570962 -0.00224489 0.00013266 0.00400428
N 5.21658690 2.16700777 19.84220023 -0.00427688 0.00556290 -0.00244652
N 1.72581707 1.41854136 22.75015989 -0.00212173 -0.00070444 0.00309702
N 0.63114817 10.16318889 1.05941430 0.00031797 0.00073897 -0.00642786
N 3.98431209 10.82970450 3.41674422 0.00287405 -0.01062444 -0.00495066
N 5.62033543 8.03016361 1.05211433 -0.00177142 0.00067543 -0.00699498
N 2.35850308 6.95069247 3.67367227 -0.00326365 0.00399704 -0.00610213
N 0.86946163 9.86514414 6.03909060 -0.00004950 0.00646235 0.00214099
N 4.01497287 10.89476208 8.52625858 -0.00443193 0.00218401 0.00195025
N 5.66668797 7.81544600 5.74011657 0.00003910 0.00320168 0.00415820
N 2.31291185 7.06430132 8.57991255 -0.00346098 0.00097659 0.00375862
N 0.62034849 9.93954053 10.64787177 -0.00300807 -0.00370347 -0.00210302
N 3.61841868 10.78139108 13.25282533 -0.00066378 -0.00425567 0.00391588
N 5.46847089 8.03050548 10.36121455 -0.00026488 0.00018855 0.00310328
N 2.30037536 7.07509458 13.55369425 -0.00443037 0.00162442 -0.00676463
N 0.44464316 10.10990469 15.52486691 0.00063587 -0.00367512 -0.00580985
N 3.53340152 10.65505096 17.94696144 0.00238078 -0.00788824 -0.00604186
N 5.30702009 7.94935599 15.29811666 -0.00081481 0.00503489 -0.00431787
N 2.13599424 7.03849426 18.02065042 0.00280583 -0.00105174 -0.00255673
N 0.46875480 9.77926216 19.87572651 -0.00032415 -0.00121933 0.00560943
N 3.75237309 10.75879300 22.83399715 -0.00071482 -0.00131596 -0.00376164
N 5.49405212 7.97863114 20.05717901 0.00289269 -0.00656169 -0.00116584
N 2.45267814 7.01439612 22.45339464 -0.00150168 -0.00076925 -0.00105505
N 0.95640642 15.71755938 1.15301242 0.00196071 0.00875768 0.00107527
N 4.42221590 16.32238665 3.60949078 0.00287481 0.00222761 -0.00515783
N 6.05927507 13.40972811 1.23853881 0.00059357 -0.00603882 -0.00181771
N 2.61224513 12.61427565 3.75811316 0.00019602 -0.00169221 -0.00735378
N 1.17797208 15.44290512 5.73416576 -0.00783699 -0.00311224 -0.00280569
N 4.55545066 16.63260013 8.43283293 -0.00404219 -0.00584093 0.00034416
N 6.06439752 13.38167090 5.90677404 -0.00085587 -0.00075395 -0.00120441
N 2.58644955 12.69817930 8.63335830 0.00282174 0.00358556 -0.00365417
N 0.99467838 15.57976964 10.46722723 0.00457343 -0.00803601 -0.00865807
N 4.82315638 16.56892134 13.20679258 0.00654828 -0.00121250 0.00007257
N 5.99612839 13.19176222 10.51580166 0.00019363 0.00221002 0.00233245
N 2.29313912 12.65183688 13.29274207 0.00046046 0.00146168 -0.00347095
N 1.24061496 15.38213677 15.40466950 0.00249373 -0.00461746 -0.00766740
N 4.18158102 16.56523928 17.99045561 -0.00647997 0.00470725 -0.00367248
N 5.89558062 13.41831362 15.28156890 0.00536042 0.00465849 0.00214778
N 2.66877879 12.81044734 18.12737536 -0.00106042 0.00435163 -0.00050533
N 1.13722119 15.68978520 20.12015674 -0.00205373 0.00108994 0.00364278
N 4.51892093 16.37130732 22.64639774 -0.00610258 0.00420299 -0.00484721
N 5.79951799 13.61164911 20.00846614 0.00292197 -0.00523039 -0.00497456
N 2.50274480 12.62723788 22.50373537 -0.00550549 0.00254042 -0.00099193
N 1.49823388 21.10024468 1.06930503 0.00940733 0.00518990 -0.00269204
N 4.12346462 23.35595416 3.83949487 0.00727289 0.00123996 0.00281030
N 5.41153941 19.93270923 0.94313071 -0.00322434 -0.00507316 -0.00437389
N 3.02677361 18.24755231 3.75157928 -0.00177880 -0.00255300 -0.00340678
N 1.52196389 21.08096447 5.79173602 0.00699301 0.00096778 -0.00274131
N 4.06763316 23.53852922 8.74969682 0.00459593 0.00418654 -0.00159094
N 5.50480780 20.25218287 5.80075509 -0.00084142 0.00959050 -0.00354309
N 2.76487812 18.06802747 8.21449787 0.00470035 0.00101359 -0.00312657
N 1.59213624 20.97057886 10.31820219 -0.00246113 0.00171338 0.00076226
N 3.90616576 23.52013136 13.16153007 0.00437099 0.00150626 -0.00464232
N 5.10869925 20.18128419 10.37971544 -0.00001828 0.00183189 0.00032069
N 3.15004714 18.13071049 13.22963149 -0.00485701 -0.00255506 -0.00479325
N 1.52123470 20.99275152 15.16345896 -0.00843971 0.00070741 0.00242976
N 4.28214604 23.34594603 18.09341843 -0.00058318 -0.00141944 0.00068028
N 5.31951705 20.20469900 15.13824434 0.00321885 0.00224806 0.00209616
N 2.83566726 18.35731400 17.78951556 0.00406030 0.00173189 0.00116607
N 1.69573600 21.11085111 19.97140691 -0.00382790 -0.00373984 0.00046536
N 4.12555309 23.09286876 22.60890201 -0.00268229 0.00079634 -0.00445589
N 5.44205383 20.03695653 19.90384919 -0.00417328 -0.00000297 0.00030648
N 3.07229293 18.16233622 22.66756401 0.00241815 -0.00226163 -0.00453126
N 0.74884483 27.73861689 1.04701923 0.00624236 -0.00218228 0.00705233
N 3.59073258 29.68488030 3.63994296 0.00378814 0.00143220 -0.00389300
N 4.79964390 26.69687195 0.96296991 0.00188089 -0.00504400 0.00318241
N 2.07778120 24.50362674 3.96381995 -0.00384620 -0.00706149 0.00993912
N 0.61116909 27.63235751 5.30243505 0.01274298 0.00140989 0.00152835
N 3.27458320 29.72611412 8.53138914 0.00046411 -0.00037252 -0.00200331
N 4.90355308 26.61257697 5.75959673 -0.00016670 0.00288375 -0.00609038
N 1.99563490 24.52431188 8.51086428 0.00285144 0.00185111 -0.00122327
N 0.62778313 27.88041759 10.49826326 0.00203301 0.00235637 0.00575214
N 3.46118378 0.17322234 13.25327246 -0.00219114 0.00545414 0.00066624
N 4.74088562 26.70670498 10.49114422 -0.00376920 -0.00042729 -0.00086037
N 1.85699636 24.56784984 13.37208854 0.00032142 -0.00017037 0.00220584
N 0.64587280 27.89492437 15.15677881 0.00508002 0.00486255 -0.00776375
N 3.25947900 29.65186517 17.69589742 -0.00325230 0.00034343 -0.00475232
N 4.60065811 26.82798994 15.26889730 -0.00313306 0.00373892 0.00047869
N 2.23207378 24.49582496 18.09919880 -0.00486215 0.00284156 0.00780235
N 0.79260361 27.56468878 19.79807418 0.00004475 -0.00621010 0.00562566
N 3.35867105 29.68956882 22.72875441 -0.00113239 0.00353567 0.00258301
N 4.61518154 26.83582150 19.82673973 0.00085080 -0.00372661 -0.00222076
N 2.34514260 24.47808138 22.93443290 -0.00344927 0.00378464 0.00704464
N 7.16644243 4.00911628 1.18459461 0.00128403 0.00063095 -0.00112564
N 10.19818807 4.95128002 3.84896297 -0.00139589 -0.00019081 -0.00071626
N 11.78366757 2.17951383 0.90611951 -0.00144295 -0.00393178 0.00029923
N 8.46962457 1.31308499 3.57360520 0.00299201 0.00027839 0.00232939
N 6.98059057 3.96555383 6.04680952 -0.00197911 -0.00251089 0.00798743
N 10.20951947 4.83538532 8.66153286 -0.00303457 0.00098775 0.00235006
N 12.06198203 1.80728667 5.88522019 0.00324841 0.00421163 0.00083245
N 8.53471923 1.12282504 8.61512827 -0.00058416 0.00018387 -0.00054324
N 6.70778814 4.17765272 10.21524162 -0.00842408 -0.00234088 0.00150414
N 10.29220729 5.04952102 13.22645128 0.00265229 0.00085581 -0.00055164
N 11.89354402 2.02735367 10.54311519 -0.00075904 0.00044378 -0.00107595
N 8.30043218 1.21544681 13.15996324 0.00149031 -0.00082944 -0.00675960
N 6.68708750 4.30584446 15.22041987 -0.00290412 -0.00099986 0.00192049
N 10.31901159 4.76701442 17.83348763 -0.00285613 -0.00073047 -0.00008853
N 12.01283191 1.91675136 15.11938070 -0.00029775 -0.00161781 -0.00290154
N 8.45129093 1.22070320 17.82837237 0.00324426 0.00296948 -0.00399045
N 6.75137331 3.93468729 19.87004034 -0.00448736 -0.00131666 -0.00423074
N 10.15807087 5.07757225 22.50989793 -0.00118216 0.00356349 0.00031024
N 12.02062588 2.06486356 19.88273040 -0.00901316 -0.00245308 -0.00071931
N 8.56612187 1.23548723 22.55380324 -0.00334685 0.00556612 -0.00916530
N 7.22086574 9.61266491 1.02386284 0.00216512 -0.00301437 -0.00290189
N 10.88336437 10.71094096 3.69233903 0.00202665 0.00105559 0.00497974
N 12.21642063 7.41354593 1.19740177 0.00910417 0.00240859 -0.00422491
N 8.98920961 6.85980901 3.65652911 0.00312752 -0.00311013 0.00009652
N 7.20338883 9.55212974 5.65770670 0.00002635 0.00264491 -0.00323746
N 11.00867613 10.54661929 8.47741687 -0.00352410 -0.00184618 0.00797145
N 12.56242179 7.24716260 5.92387334 0.00050431 -0.00292357 0.00724754
N 9.12364835 6.83917323 8.64182435 0.00169355 -0.00387582 0.00295507
N 7.36001511 9.39618789 10.65106371 -0.00140920 -0.00001949 0.00177320
N 11.11655530 10.80783194 13.17898298 0.00347786 0.00218082 -0.00154824
N 12.49855343 7.60326127 10.22400428 0.00252087 0.00263348 -0.00743288
N 8.88422609 6.85712502 13.23721764 0.00617133 0.00150142 -0.00301080
N 6.86541782 9.66161522 15.15271767 -0.00270029 0.00097219 -0.00308896
N 10.73273748 10.78260004 17.88926487 -0.00113202 0.00135147 -0.00041933
N 12.34206151 7.37620956 15.20387537 -0.00694212 -0.00489208 0.00186514
N 8.89550572 6.53108366 17.84789848 0.00384276 -0.00042018 0.00208992
N 6.91300878 9.72052769 19.91887844 0.00158783 -0.00201395 -0.00632935
N 10.88911074 10.57821318 22.73792596 -0.00338997 -0.00168151 -0.00419258
N 12.36203060 7.65260218 19.61809035 0.00520060 0.00628128 0.00541527
N 8.79523895 6.93968858 22.58058615 0.00154957 0.00109112 0.00210669
N 7.85195606 14.86479474 0.94105875 -0.00007998 -0.00161937 -0.00203239
N 10.56346402 17.63325814 3.70439620 -0.00622275 0.00245119 0.00200585
N 11.73236232 14.11656286 0.81098740 0.00375586 0.00284382 -0.00079150
N 9.15266125 12.23392185 3.82258792 0.00352317 -0.00362369 0.00429871
N 7.57887497 15.15515248 5.91349337 -0.00217703 0.00731129 -0.00309685
N 10.07932002 17.20772635 8.36736307 -0.00412636 -0.00190412 -0.00273929
N 11.60146244 14.27019675 5.48249461 0.00474687 -0.00115476 0.00104008
N 9.20121525 11.80123477 8.35200116 -0.00045078 0.00499660 -0.00095377
N 7.74898008 14.70320283 10.57395068 0.00171013 -0.00382596 -0.00139047
N 10.00585386 17.25772089 13.07950063 -0.00271942 -0.00282545 0.00428760
N 11.52735821 13.92494413 10.23217354 -0.00132967 0.00619541 0.00003543
N 9.16430786 11.91498411 13.36806757 -0.00279711 0.00379257 0.00067960
N 7.69976436 14.75623377 15.43223467 0.00361475 -0.00204530 0.00211184
N 10.08429127 17.57580205 17.81959283 0.00107216 -0.00058394 -0.00389003
N 11.52544685 14.33502286 15.14925219 -0.00271062 0.00367401 -0.00030801
N 8.85350121 12.12895439 18.05421338 -0.00454570 0.00251590 -0.00043587
N 7.56170509 14.96570828 19.99739800 0.00356128 0.00005109 -0.00636146
N 10.22920268 17.20392004 22.65412525 0.00028843 -0.00126285 -0.00187028
N 11.65188422 14.01618351 19.82203480 -0.00700088 -0.00635980 -0.00187531
N 9.05869136 11.98151200 22.58298614 -0.00300257 0.00251903 0.00404240
N 7.03195160 21.56512973 0.96173340 -0.00235522 -0.00655734 0.00196120
N 9.50235965 23.69945016 3.35497434 -0.00158614 -0.00170279 0.00453671
N 11.00121711 20.88291517 0.97459914 0.00425843 -0.00435026 -0.00072448
N 8.35392743 18.40764791 3.78252082 -0.00042466 0.00291832 -0.00585205
N 7.10219926 21.85022210 5.69029820 -0.00070748 -0.00091812 -0.00461156