2000
Time=40000.00000002 pbc="T T T" Lattice="31.26413306 0.00000000 0.00000000 0.00000000 29.96207506 0.00000000 0.00000000 0.00000000 23.67391661" energy=-12042.51233381 virial="-92.30072993 -4.11990048 -15.23421897 -4.11990048 -80.17643620 12.34490972 -15.23421897 12.34490972 -20.59340088" stress="-0.00210641 -0.00021037 -0.00064551 -0.00021037 -0.00155138 0.00060091 -0.00064551 0.00060091 0.00188966" Properties=species:S:1:pos:R:3:vel:R:3
C 30.38595620 3.66047079 1.68471101 0.00056948 0.00011303 0.00241567
C 2.45284985 0.65809471 2.95596070 -0.00631538 -0.00454155 -0.00439180
C 30.59993852 3.61544627 6.34564308 0.00195417 0.00256365 -0.00546023
C 2.52265134 0.56036564 7.60814457 0.00070811 -0.00660482 0.00402719
C 30.67460008 3.87026555 11.10641883 0.00344239 -0.00484539 -0.00703824
C 2.85653359 0.59157143 12.50131196 -0.00108223 -0.00376184 0.00060457
C 30.81578337 3.61824479 15.77511366 -0.00241312 0.00022616 -0.00349199
C 2.52681725 0.77073748 17.19234640 -0.00619098 0.00120097 -0.00418960
C 30.66855959 3.58491330 20.78334156 -0.00208099 0.00349174 0.00245769
C 2.57318401 0.57992865 22.04322445 0.00404373 -0.00102907 -0.00284080
C 30.88831917 9.33276989 1.67746439 -0.00037482 0.00496363 -0.00676362
C 2.88235093 6.25473151 3.10163807 -0.00377160 -0.00340462 -0.00174461
C 30.89394994 9.26428762 6.39099799 -0.00259442 0.00620296 -0.00272067
C 3.09102706 6.21769572 7.65893655 -0.00210971 0.00039744 0.00009763
C 31.12939979 9.16527974 11.08284020 -0.00747724 0.00056132 -0.00098714
C 3.02433843 6.29316348 12.64113621 -0.00895321 -0.00030670 -0.00223975
C 31.18988349 9.30229821 15.97956658 -0.01159078 -0.01467471 0.00064576
C 2.90503723 6.15619066 17.36270646 0.00544415 0.00044608 -0.00266077
C 30.90201838 9.12232913 20.67864822 -0.00132297 0.00887970 0.00537499
C 2.58806142 6.15498496 22.04314856 0.00192100 -0.00208991 -0.00165492
C 0.18530688 14.73958938 1.65199769 -0.00072531 -0.00553796 0.00277323
C 3.14720629 11.53123855 2.96191487 0.00482195 -0.00126162 -0.00106090
C 0.33391766 14.79903361 6.42620536 0.00963350 -0.00777186 0.00431492
C 3.36812452 12.18995101 7.72425327 -0.00115110 -0.00575869 0.00727174
C 0.19604389 14.91313503 11.14849976 -0.00422868 0.00265294 0.00163582
C 3.38473230 11.82968713 12.56918856 -0.00298429 0.00382877 0.00380136
C 0.25497075 14.74553405 15.87330518 -0.00572729 -0.00232526 -0.00442698
C 3.18725773 11.64166756 17.28576959 0.00515786 -0.00049339 -0.00314443
C 0.18261719 14.69100127 20.71080331 0.00373553 -0.00014067 -0.00159165
C 3.42027726 11.99941760 21.94422578 0.00150588 -0.00341690 -0.00059717
C 0.74424120 20.20165701 1.81777407 -0.00076554 -0.00399742 0.00469885
C 4.03675704 17.32460294 3.05901908 0.00027148 -0.00038229 -0.00135701
C 0.85264897 20.20308390 6.33119607 -0.00096680 -0.00135154 0.00343374
C 4.00323264 17.30774554 7.75743844 -0.00604799 0.00087209 -0.00061862
C 0.77307939 20.42791959 11.08302036 0.00328441 -0.00032512 0.00236095
C 3.75056423 17.38458120 12.63796544 0.00796935 0.00520398 -0.00559942
C 0.59042428 20.30457405 15.97087049 -0.00589462 0.00141310 0.00055095
C 3.75376387 17.33064516 17.41885811 0.00599890 0.00184748 0.00054120
C 0.57075163 20.52915768 20.74511058 -0.00205501 0.00521303 0.00109871
C 3.94466913 17.40397841 22.07941238 0.00351270 -0.00616519 0.00357106
C 31.12622193 27.18041303 1.84054118 0.00471290 0.00529074 0.00318560
C 3.11145436 23.95332998 3.23897836 -0.00135960 -0.00089024 -0.00088268
C 0.02475085 26.82421044 6.41270689 -0.00617367 0.00483360 -0.00243637
C 3.07301145 23.99815333 7.86581644 -0.00106504 -0.00405869 0.00563947
C 31.16268674 27.22393830 11.17358780 -0.00132578 0.00250436 -0.00184573
C 3.01768408 23.94482380 12.45473126 -0.00243187 -0.00041986 0.00347100
C 31.23620624 26.92392963 16.02832511 -0.00772108 0.00658664 -0.00951288
C 3.15876269 24.01081170 17.26394583 -0.00221423 -0.00034135 -0.00798283
C 0.03866998 26.79917953 20.84477464 -0.00547789 0.00092394 -0.00226127
C 3.29101306 24.12802120 22.13830248 0.00514493 0.00406119 -0.00693276
C 6.02838835 3.48723836 1.85573842 -0.00702713 0.00598477 -0.00614625
C 9.19445416 0.21394543 3.11050225 0.00028938 0.00931590 0.00617990
C 6.24014577 3.14877231 6.42258385 0.00828495 0.00633114 0.00166119
C 9.16992037 0.23153081 7.90253005 0.00676286 0.00233938 -0.00175188
C 6.03237688 3.22805600 11.40055782 0.00074503 0.00350460 0.00016091
C 8.98738036 0.17919502 12.69033175 -0.00230961 0.00331774 0.00593022
C 6.14763662 3.39296158 16.02500495 0.00345429 -0.00554149 0.00310605
C 9.09934763 0.22784594 17.53693390 0.00130643 0.00339559 0.00158107
C 6.06516627 3.11562059 20.79852467 0.00373575 -0.00272892 -0.00521358
C 9.08121928 0.25914814 22.03801502 -0.00698094 0.00108148 -0.00189255
C 6.52449672 8.76057121 1.67852343 -0.00111602 0.00162435 -0.00314859
C 9.70456202 5.94194459 3.01751171 -0.00140849 0.00259269 -0.00208596
C 6.45797963 8.68821880 6.35160558 0.00379940 -0.00229190 -0.00482226
C 9.87794839 5.92870714 7.98079235 0.00556444 0.00263569 -0.00003561
C 6.26913787 8.54010032 11.19868112 -0.00162585 -0.00295797 -0.00864594
C 9.61502145 6.07510082 12.69254883 0.00197039 0.00092013 0.00379312
C 6.36811818 9.08992277 15.94701868 -0.00055411 -0.00424784 0.00287470
C 9.57637730 5.98758111 17.22769156 -0.00854869 -0.00369679 -0.00210665
C 6.49214762 8.59418301 20.50502855 0.00552234 -0.00372848 0.00075153
C 9.38991750 5.51417553 21.92169318 0.00083685 0.00291755 -0.00499086
C 7.05157882 14.31065544 1.74306596 0.00069848 0.01175127 -0.00056940
C 9.98914267 11.12871831 3.08836171 0.00066320 -0.00243892 0.00208409
C 7.14373409 14.57481972 6.27608697 -0.00547335 0.00269410 -0.00600419
C 9.89880732 11.34993495 7.75794777 0.00130476 -0.00730101 -0.00119455
C 7.08476555 14.36114136 11.05931031 0.00214470 -0.00380315 -0.00193815
C 9.92006807 11.50493754 12.40006141 -0.00332738 0.00022307 0.00102158
C 6.88990923 14.43007480 15.79094018 0.00643252 0.00140507 0.00648546
C 10.02653896 11.27710774 17.01101259 -0.00011981 0.00463695 -0.00193291
C 7.14634325 14.37112616 20.61091995 0.00241019 -0.00296690 0.00369155
C 9.89250720 11.36415080 21.87037704 -0.00300892 -0.00118813 0.00018366
C 6.00312800 21.00117789 2.00908407 0.00191816 0.00203354 0.00723824
C 9.43498197 17.90713586 2.97410160 0.00196230 0.00371154 0.00018080
C 6.56646875 21.04436363 6.63888566 0.01048540 0.00199650 -0.00220825
C 9.45838182 18.05793160 7.69506354 -0.00017161 0.00170378 0.00279012
C 6.37702812 20.80625510 11.21306342 -0.00314796 -0.00523455 0.00247322
C 9.46182389 17.90011151 12.42233312 0.00894415 -0.00436616 -0.00130165
C 6.30066509 20.93370742 15.92904387 0.00039121 -0.00860288 -0.00266424
C 8.88158736 17.96921567 17.18960401 -0.00571781 0.00605582 0.00039818
C 6.14867861 21.10471727 20.68320410 0.01131202 0.00853330 -0.00509963
C 9.60082912 18.15520341 21.92430379 0.00612513 0.00559338 0.00825221
C 5.53241637 27.76356491 1.81914143 0.00073688 0.00283161 -0.00579062
C 8.80256657 24.76297850 3.24008113 -0.00703578 0.00009964 0.00079793
C 5.75072202 27.61156301 6.30641281 -0.00239584 -0.00515280 0.00355986
C 8.74076786 24.49659391 7.82385149 -0.00712915 0.00174215 0.00000884
C 5.60452519 27.83236711 11.25364375 -0.00361954 0.00464089 -0.00178143
C 8.75596840 24.50859550 12.67939235 -0.00184712 0.00338460 -0.00129718
C 5.69077525 27.38200886 16.04604891 0.00204540 -0.00558215 -0.00288171
C 8.63592555 24.60904071 17.34834382 -0.00056411 0.00108758 -0.00215181
C 5.54244013 27.47453087 20.70896169 -0.00145178 0.00319927 0.00211270
C 8.63659689 24.44300374 21.97537118 -0.00122576 -0.00362311 0.00346085
C 12.55546909 2.59166751 1.67150825 0.00136735 -0.00112590 -0.00820325
C 15.89386554 29.87413020 3.15731195 -0.00460785 -0.00106619 -0.00023707
C 12.75441662 2.66649629 6.35182263 0.00069365 -0.00423128 0.00611256
C 15.83497552 29.94559896 7.89845141 -0.00351757 0.00176565 0.00607522
C 12.59528658 3.00585613 11.19842317 -0.00177236 -0.00083911 -0.00586530
C 15.95827630 29.72859648 12.67889984 0.00411997 0.00563493 -0.00960982
C 12.70851448 2.87833294 15.95495493 -0.00156878 0.00417323 -0.00577085
C 15.89339110 0.05089171 17.35192269 -0.00631996 0.00253086 0.00583098
C 12.48679026 2.96581375 20.64680540 0.00032969 0.00064113 0.00437275
C 15.95550175 29.95712205 21.94437130 0.00148181 0.00294186 0.00742832
C 13.05403414 8.45603561 1.91045325 -0.00106771 -0.00455070 0.00118676
C 16.35341635 5.37864460 3.05953821 -0.00003197 -0.00090638 -0.00156059
C 13.15083167 8.10178425 6.56778785 -0.00349037 -0.00506034 -0.00557967
C 16.16608322 5.33342771 7.65081321 0.00664653 0.00579728 0.00021829
C 13.02551946 8.60226901 11.11489510 0.00482280 0.00327332 0.00751688
C 16.16861961 5.36975550 12.45329549 0.00285853 0.00061710 -0.00006333
C 13.35127191 8.50971236 15.96016660 -0.00846712 0.00209895 0.00699841
C 16.22186784 5.62295946 17.19334490 -0.00097791 -0.00034254 -0.00327911
C 13.00734112 8.34318711 20.73813612 0.00165753 -0.00205083 0.00189860
C 16.17807768 5.52315911 21.98043303 0.00722207 -0.00558571 -0.00329860
C 12.50218145 14.93391739 1.75697316 0.00260498 -0.00521008 0.00548743
C 15.59809363 11.85939391 3.05616944 -0.00212701 0.00729450 0.00989191
C 12.47797366 14.96722337 6.56841596 0.00276634 0.00726830 -0.00297294
C 15.43521669 11.69770738 7.60806049 0.00140910 -0.00064125 0.00407434
C 12.56386620 14.93315500 11.22227683 -0.00000441 0.00352762 -0.00005392
C 15.72180440 11.95306175 12.44892915 0.00090335 0.00314716 0.00815993
C 12.33496572 15.09671436 15.90815102 0.00537947 -0.00167430 0.00482842
C 15.61778131 12.09403871 17.28251618 0.00351032 0.00570734 0.00217498
C 12.50558570 14.86928763 20.65754423 -0.00058851 0.00382303 -0.00642343
C 15.47310738 11.85025948 22.06846335 -0.00352402 -0.00199234 0.00069746
C 11.96372356 21.82326545 1.72475118 0.00490363 0.00186521 0.00174522
C 15.03097427 18.51091172 2.96010940 -0.00793857 0.00267215 -0.00306546
C 11.85569711 21.63550800 6.44398079 -0.00318475 -0.00283858 0.00011442
C 15.07112339 18.70212592 7.61463887 0.00209139 -0.00281665 -0.00406764
C 11.88259675 21.56426415 11.08816038 0.00084063 0.00131093 0.00246543
C 14.95753997 18.39387663 12.38248728 -0.00223478 -0.00068550 -0.00712598
C 11.59760826 21.62636079 15.98177691 0.00111020 -0.00333630 0.00624307
C 15.10466332 18.35738691 17.31919314 -0.00665214 0.00636905 0.00522522
C 11.68961377 21.60143939 20.78215948 -0.00068352 -0.00134685 -0.00325400
C 15.09295774 18.77572173 21.89001082 0.00309016 -0.00165135 0.00731207
C 12.22029009 27.43180281 1.55877396 0.00294074 -0.00689639 -0.00513474
C 15.36645391 24.53889002 2.85701272 0.00327920 -0.00144179 -0.00549655
C 12.27802841 27.38689418 6.60076489 0.00267997 -0.00087548 0.00078297
C 15.27019601 24.22413380 7.65198580 -0.00106493 -0.00338740 -0.00572323
C 12.28941572 26.96443037 11.16010312 -0.00346935 -0.00408333 0.00033836
C 15.41763218 23.90535951 12.54395868 0.00137780 -0.00200943 -0.00278640
C 12.43519248 27.08526061 15.87554689 -0.00046987 -0.00495127 -0.00333933
C 15.60776265 24.22552319 17.06524755 -0.00527621 0.00449497 0.00505397
C 12.48487831 27.28970397 20.59323886 0.00314900 0.00081409 -0.00045787
C 15.37657075 24.15707679 21.74093504 -0.00023982 0.00461948 0.00671859
C 19.49109811 2.54487404 1.64693667 0.00110389 0.00037551 -0.00289816
C 22.48359159 29.32889831 2.98397590 0.00231735 0.00102989 -0.00285587
C 19.33725387 2.45484077 6.52243716 0.00244914 0.00259707 0.00045437
C 22.46129451 29.43546365 7.65340187 0.00099924 0.00437947 -0.00174733
C 19.47995343 2.40389856 11.27613087 0.00276105 0.00264266 0.00268843
C 22.41137421 29.29574850 12.65824465 -0.00423137 -0.00327614 -0.00401952
C 19.21892144 2.58180106 15.80538880 -0.00089577 -0.00248961 0.00110167
C 22.01965575 29.34546295 17.26536032 0.00183368 0.00313077 -0.00522919
C 19.55161318 2.32541133 20.60388587 -0.00312627 -0.00473964 0.00386418
C 22.43584919 28.97016720 22.03231620 -0.00429247 0.00354771 -0.00681016
C 18.76564775 9.21034088 1.54159868 0.00440316 -0.00214423 -0.00173370
C 21.98166467 6.09443505 3.06223689 0.00345957 0.00378681 0.00328989
C 18.93478989 8.86298876 6.24661068 0.00608600 0.00369466 -0.00633138
C 21.82886584 5.83942209 7.85877580 0.00004273 -0.00088513 0.00226349
C 18.58931915 8.88870238 11.04379493 -0.00209733 0.00451239 0.00432778
C 21.89425448 5.98448117 12.35822574 -0.00427107 0.00210044 -0.00200412
C 18.75295045 8.98842541 15.81446243 0.00493666 0.00098103 -0.00473835
C 22.12137569 6.04485238 17.04127020 -0.00247120 0.00733975 0.00388093
C 18.68913176 8.89169859 20.48471778 0.00562818 0.00235173 -0.00165526
C 22.04467603 5.84171987 21.96765311 -0.00142432 0.00273144 0.00399440
C 18.09866717 15.67166829 1.66795101 -0.00258236 0.00014770 0.00750498
C 21.46982364 12.58357255 2.84397498 -0.00240855 -0.00215971 0.00656893
C 18.24157912 15.60953964 6.34531374 -0.00119295 0.01013166 0.00640188
C 21.28282473 12.34427180 7.58583295 0.00599264 0.00518625 0.00719749
C 18.27426930 15.43013908 10.97542766 -0.00350038 -0.00885449 -0.00409237
C 21.28025446 12.56745537 12.39161457 -0.00018856 -0.00865453 0.00549462
C 18.18872426 15.59651855 15.91348021 0.00236204 0.00432776 0.00129214
C 21.03062694 12.74534265 16.97195814 0.00528409 0.00644180 -0.00271069
C 18.18228728 15.81404892 20.67710747 -0.00455387 0.00475611 -0.00358795
C 21.51903310 12.41084776 21.69853498 0.00499921 0.00171907 0.00431794
C 18.34636857 21.06603392 1.75358408 0.00537347 0.00031671 0.00871196
C 21.43214231 18.32603306 2.82425107 0.00657425 0.00294079 -0.00384645
C 18.58634454 21.21035622 6.42058353 0.00177232 0.00019907 -0.00113568
C 21.70161115 18.20915346 7.74471878 0.00251432 -0.00895340 -0.00291471
C 18.64329700 21.13569760 11.04149488 -0.00094545 -0.00468247 0.00183543
C 21.59521550 18.05359916 12.46532316 -0.00026472 0.00100059 0.00627091
C 18.63652590 20.73923514 15.91396231 -0.00434788 -0.00315189 -0.00259435
C 21.46674764 17.81891490 17.31766522 0.00849263 0.00353712 0.00185660
C 18.73695087 21.29653685 20.65024254 0.00061450 0.00375904 0.00856013
C 21.47968036 18.14788409 21.97437578 -0.00344842 -0.00406060 0.00269541
C 18.85343418 26.70765438 1.76734635 -0.00303854 -0.00120677 0.00142332
C 21.88522841 23.64027044 2.92233468 -0.00500596 -0.00380799 -0.00288250
C 19.06292435 26.70077238 6.56629286 -0.00275698 0.00256208 0.00388448
C 22.08726713 23.71109516 7.88454338 0.00184108 0.00337108 0.00458505
C 18.98708044 26.72605410 11.23996243 0.00221528 0.00582297 0.00639198
C 22.34245070 23.79101664 12.65129341 0.00642509 0.00263912 -0.00826878
C 18.83317371 26.71339950 15.85571019 0.00240662 -0.00027891 -0.00105134
C 22.05779945 23.65740186 17.17578656 -0.00005899 -0.00931904 -0.00247566
C 18.76064801 26.57837848 20.53447696 0.00358225 -0.00200230 0.00183132
C 22.04383712 23.82330183 22.04430138 0.00614517 -0.00097390 0.00525737
C 24.81913028 2.76969309 1.69340271 -0.00470733 0.00148358 0.00259692
C 28.07387125 29.82589448 3.02519758 -0.00732721 0.00433690 0.00708733
C 25.19698565 2.95956276 6.24744333 -0.00041565 0.00077673 -0.00174209
C 28.08755838 29.86854175 7.70998643 0.00532650 0.00285729 -0.00383386
C 24.89004832 3.23783936 11.17168565 -0.00064259 0.00166724 -0.00187493
C 28.39709721 0.01175315 12.44850394 -0.00144045 0.00344172 0.00085163
C 24.99632811 2.83681073 15.82971430 0.00248947 -0.00402616 -0.00681680
C 28.14196157 29.93609818 17.33494488 -0.00119297 0.00493038 -0.00512241
C 24.82315161 2.75944078 20.54367772 -0.00143083 0.00185497 -0.00240134
C 28.10772456 29.89331116 21.91344770 0.00293012 -0.00469683 0.00686102
C 24.51880437 9.19707310 1.48874663 0.00123142 -0.00469770 0.00336898
C 27.69357912 6.42135681 2.88930313 -0.00033330 -0.00016908 0.00099996
C 24.27745415 9.33662075 6.28637603 0.00488267 -0.00117874 0.00433738
C 27.70343183 6.41909944 7.74096634 -0.00040508 -0.00295289 0.00054997
C 24.19408159 9.53776046 11.01615726 0.00006999 0.00146687 0.00069362
C 27.55834253 6.78086670 12.40527940 -0.00713080 -0.00314173 0.00137398
C 24.52396849 9.57273866 15.69644758 -0.00011638 0.00176511 0.00430820
C 27.59044324 6.56735525 17.15201034 0.00066609 0.00542875 -0.00520387
C 24.32753360 9.59854744 20.48791398 -0.00028640 -0.00277210 0.00149639
C 27.64341046 6.59106302 21.78386933 -0.00245900 0.00325046 0.00493578
C 24.85855329 15.47068431 1.73737292 0.00164278 -0.00543977 -0.00096533
C 27.58140500 12.08811347 3.02996498 -0.00526748 -0.00160418 -0.00086768
C 24.75156671 15.18660785 6.41408653 0.00191655 0.00099481 -0.00132313
C 28.13943151 12.34844006 7.79817364 0.00605893 -0.00751209 -0.00047697
C 25.13178007 15.08967324 11.25570223 0.00166892 -0.00136890 -0.00368025
C 28.18038115 12.31023407 12.37258202 0.00080628 0.00510423 -0.00020835
C 24.77361304 15.23021544 15.73076097 -0.00528801 0.00590808 0.00089868
C 28.02552191 12.28172675 17.47424876 0.00032604 -0.00566234 -0.01098518
C 24.89330839 15.11894330 20.66114650 0.00602926 -0.00185503 -0.00468750
C 27.76226977 12.28800635 22.02910586 -0.00243324 -0.00048924 0.00376088
C 25.08008140 20.77976209 1.69612306 -0.00057951 -0.00115880 0.00199329
C 28.53076173 17.65946805 3.13150448 0.00164833 0.00098521 -0.00264974
C 25.33455967 20.76790583 6.54552488 0.00013586 -0.00364864 0.00894362
C 28.17955690 17.79136224 7.64479734 0.00249773 0.00462775 -0.00783847
C 25.09606831 20.96313668 11.29471865 -0.00474843 0.00300665 -0.00062356
C 28.45055448 17.88491417 12.46171480 -0.00110090 0.00696538 0.00439482
C 25.35815973 20.57993439 15.99898612 -0.00443011 0.00033748 -0.00023180
C 28.18974390 17.78335621 17.27994262 -0.00060923 -0.00332778 0.00397734
C 24.77054591 20.68743493 20.71676732 -0.00294242 -0.00311432 0.00108614
C 28.41576283 17.76607707 21.99089450 -0.00395496 -0.00652091 -0.00093410
C 25.62493370 26.43893450 1.77975590 0.00167632 0.00111531 0.00251805
C 28.87712683 23.44162754 3.07552745 0.00198391 0.00254482 0.00334110
C 25.50849815 26.33822520 6.49507906 -0.00830979 0.00275436 -0.00159643
C 28.86876041 23.10568889 7.83447712 0.00249076 0.00347844 0.00062708
C 25.80895137 26.31878502 11.28206512 -0.00323091 0.00577090 -0.00326386
C 29.11629536 23.54224356 12.46509437 -0.00316922 0.00168238 0.00354715
C 25.56075549 26.44940964 15.83667158 0.00773129 -0.00857398 -0.00397341
C 28.45759043 23.17371150 17.37224348 -0.00310990 0.00637722 0.00047775
C 25.46898241 26.30177937 20.76583016 -0.00123645 0.00492747 0.00119062
C 28.90356616 23.45160846 22.04500458 0.00041582 -0.00153507 -0.00183754
N 0.00953577 4.44742627 0.98686531 0.00194458 0.00610924 0.00182105
N 3.48202240 5.21362171 3.79409919 -0.00440505 -0.00528511 0.00467923
N 5.37350117 2.56926871 1.10126623 -0.00146094 0.00249941 0.00342168
N 1.70855907 1.57767385 3.60703704 -0.00628865 0.00082942 0.00326483
N 0.04815062 4.44423098 5.57453017 0.00244431 0.00358398 0.00503280
N 3.55979068 5.12940353 8.27204074 0.00229843 -0.00129374 -0.00703110
N 5.36124881 2.35058314 5.73073851 0.00060002 -0.00154163 0.00294013
N 1.44291669 1.30747139 8.26962365 -0.00057776 -0.00174405 0.00020144
N 0.39503454 4.51174172 10.43290409 0.00269605 -0.00356075 0.00418252
N 3.55282056 5.33239007 13.42706644 -0.00306487 -0.00017147 0.00011587
N 5.30232130 2.28312622 10.80321942 -0.00110377 0.00429599 -0.00189213
N 1.93336758 1.29137550 13.15849952 -0.00134072 -0.00072631 -0.00408587
N 0.22048575 4.41491391 14.95983489 0.00284231 0.00047237 -0.00095409
N 3.47281231 5.14747765 18.07535409 0.00633761 0.00157547 0.00144779
N 5.37619819 2.54380630 15.33010555 -0.00192385 0.00166366 0.00227647
N 1.55923421 1.42382463 17.87320367 0.00849059 -0.00494584 -0.00515547
N 0.00792181 4.31187570 19.85077072 0.00398686 0.00386075 -0.00199124
N 3.07655320 5.12310562 22.74357497 -0.00185659 -0.00327585 -0.00433105
N 5.31816844 2.27632835 20.03021429 -0.00323010 0.00313566 -0.00454249
N 1.86619098 1.40601441 22.79709568 -0.00126697 0.00680777 -0.00050981
N 0.39428032 10.24977971 0.95227096 -0.00221753 -0.00034805 -0.00793920
N 3.98332869 10.70005180 3.60582359 -0.00131424 0.00881637 -0.00409940
N 5.73838689 7.81655306 1.03560574 0.00468717 0.00416254 -0.01032594
N 2.22938366 7.13203441 3.93738407 0.00019652 -0.00223210 0.00016860
N 0.40190380 10.15663803 5.73638826 0.00418010 0.00005154 0.00012243
N 3.97829951 11.18844156 8.50192539 -0.00029678 0.00011827 0.00237469
N 5.76897230 7.80702195 5.61356704 -0.00255870 -0.00178379 0.00411332
N 2.48752375 7.15921027 8.47136564 -0.00438413 0.00583148 -0.00166123
N 0.68262183 10.03584361 10.39588502 0.00690021 0.00059289 0.00477735
N 3.96114193 10.87948268 13.32753739 0.00311121 -0.00021563 0.01004112
N 5.48669325 7.81833541 10.36222863 0.00164671 0.00039422 -0.00540404
N 2.33624080 7.35614306 13.18615888 0.00010774 0.00366481 0.00192440
N 0.69295963 9.83108268 15.05801566 -0.00359981 0.00273274 -0.00507566
N 3.80966436 10.71452618 18.06695801 -0.00006052 -0.00000492 0.00006673
N 5.53838527 8.30166324 15.22433327 0.00109037 0.00236744 0.00761478
N 2.34026243 7.16381725 18.04992044 0.00006981 0.00217909 0.00215542
N 0.49597013 9.99497278 19.98772343 -0.00352614 -0.00175907 0.00175440
N 3.74508187 10.71274450 22.40885512 -0.00036059 -0.00218250 0.00229584
N 5.61756034 7.79762350 19.90457410 0.00518328 -0.00326071 -0.00353035
N 2.06845697 7.21650513 22.76715204 0.00821353 0.00264402 -0.00173196
N 0.92763020 15.65381314 0.95244456 -0.00619762 -0.00047783 -0.00709143
N 4.83562816 16.60185118 3.86687352 0.00625054 -0.00495560 -0.00171351
N 6.09771020 13.62034755 1.05507248 0.00006643 0.00332990 -0.00614624
N 2.45099653 12.42489337 3.69495481 0.00745842 -0.00526428 0.00604918
N 1.03868115 15.59927057 5.56861334 0.00212592 -0.00496552 0.00035920
N 4.80089470 16.45854916 8.43539625 -0.00488189 0.00203322 -0.00126378
N 6.28125279 13.73973699 5.64649760 -0.00873762 -0.00390468 -0.00393894
N 2.61524236 12.96604346 8.51343662 0.00810852 -0.00616167 0.00276160
N 0.90694242 15.68187448 10.33488063 0.00084619 -0.00281494 -0.00028915
N 4.37897384 16.51969630 13.44424260 -0.00403755 0.00711146 0.00418337
N 6.24587673 13.60017545 10.30940137 -0.00033327 -0.00123466 -0.00461568
N 2.73547352 12.88332293 13.20813828 0.00532003 -0.00277848 0.00202662
N 0.93282303 15.71419787 15.22714564 0.00363632 0.00182563 0.00922974
N 4.49693019 16.51729244 18.13682396 0.00080104 -0.00240788 -0.00049316
N 6.03250807 13.61844499 15.14066582 0.00177653 0.00050114 0.00313631
N 2.68166386 12.72227541 17.96337688 -0.00237677 -0.00314669 -0.00621809
N 0.92651286 15.56593254 19.93275522 -0.00432936 0.00171315 -0.00104322
N 4.80891905 16.62401335 22.79875564 0.00131403 -0.00547269 -0.00199899
N 6.40505240 13.56287738 19.79631103 0.00304463 0.00214267 -0.00491870
N 2.90016706 12.92561175 22.79683781 0.00183054 -0.00864910 0.00070646
N 1.46272757 21.17187694 1.13632997 0.00049871 -0.00677966 -0.00222203
N 3.94104375 23.05065214 3.92218864 -0.00239187 -0.00514853 -0.00935471
N 5.36365544 20.10298140 1.16392807 0.00281773 0.00105523 -0.00506790
N 3.05059201 17.98318902 3.73425776 0.00673884 0.00127323 -0.00152499
N 1.66630625 21.08084135 5.71781730 -0.00145338 -0.00549054 -0.00742109
N 4.08244336 23.38094485 8.54073922 0.00194516 -0.00019904 0.00252905
N 5.62875474 20.18833293 6.07018374 -0.00216743 -0.00221619 -0.00534554
N 3.20249616 18.02437508 8.56569400 -0.00489444 0.00011730 -0.00256558
N 1.50826776 21.30980513 10.29041672 -0.00305168 -0.00258596 0.00024966
N 3.86537963 23.24145987 13.27235014 -0.00605622 0.00733445 0.00385903
N 5.45030503 20.16047732 10.52458471 -0.00034406 -0.00067866 -0.00149969
N 2.98045958 18.27936382 13.39363465 0.00248314 -0.00511708 -0.00014970
N 1.25814613 21.32033700 15.25925608 0.00187772 0.00474590 0.00035270
N 3.97218924 23.32011187 18.06134852 -0.00469283 -0.00321221 0.00164955
N 5.57823217 19.98427904 15.26519652 -0.00306201 -0.00227152 -0.00209099
N 2.81991578 18.06363479 18.23344627 -0.00086320 -0.00276217 -0.00426697
N 1.48934556 21.29573615 20.07562950 -0.00536709 -0.00436308 0.00173846
N 4.40191650 23.59820931 22.68037680 -0.00503165 -0.00555624 0.00656836
N 5.23444903 20.19021551 20.19281095 -0.00247510 0.00324161 -0.00340343
N 3.08649528 18.06275721 22.84313626 -0.00082208 0.00003396 0.00152878
N 0.71653926 27.90170835 1.09400223 0.00745570 -0.00074386 0.00475316
N 3.31671159 29.92938636 3.68597481 -0.00011407 0.00144287 0.00180859
N 4.76904038 26.81972446 1.25982986 -0.00263580 0.00489996 -0.00368201
N 2.11176799 24.54683955 3.95415951 -0.00189551 0.00102085 -0.00501026
N 0.73284113 27.67039994 5.66787975 -0.00088632 0.00493548 -0.00091676
N 3.44404205 29.81755543 8.35357860 -0.00510605 -0.00720537 -0.00576201
N 4.87807218 26.81467446 5.65567811 -0.00521597 0.00024018 -0.00227814
N 2.26825851 24.82499912 8.62680809 0.00075403 0.00871974 0.01075053
N 0.71901128 28.04118842 10.42431468 -0.00490008 -0.00312581 0.00414853
N 3.62210567 29.71476875 13.24650236 -0.00098175 0.00092877 -0.00146504
N 4.80511055 26.99019368 10.47832927 -0.00599745 -0.00147669 -0.00379072
N 2.08976133 24.70177508 13.11673026 -0.00207132 -0.00219937 0.00507041
N 0.64105997 27.72607081 15.10915975 0.00092332 0.00091601 0.00708162
N 3.06754075 29.75451338 17.97573664 0.00666174 -0.00177509 0.00548321
N 4.82862118 26.70083497 15.20656826 0.00028075 0.00128037 0.00047932
N 2.18626777 24.73683110 17.82196027 -0.00003054 -0.00577488 -0.00025851
N 0.71623761 27.79263096 20.21367413 0.00234566 -0.00258751 0.00403355
N 3.32399762 29.62511686 22.67742715 -0.00577789 0.00335674 -0.00261500
N 5.06111542 26.44556699 19.92207945 -0.00542993 -0.00043996 -0.00335012
N 2.46175419 24.84234748 22.96897670 0.00259115 -0.00556089 0.00457895
N 6.81544743 4.29860983 1.17062714 0.00024045 0.00121290 0.00175229
N 10.36184560 4.99677812 3.70624095 -0.00076200 -0.00071668 -0.00114272
N 11.80732610 1.82396556 0.88849785 0.00049135 -0.00032810 -0.00175540
N 8.63124433 1.24315617 3.74932480 -0.00210005 -0.00197941 -0.00233040
N 6.98878999 3.98281804 5.66474269 -0.00436547 -0.00143510 -0.00336203
N 10.45615023 4.86558458 8.59707654 0.00088453 0.00179768 0.00436883
N 12.04137596 1.67492514 5.63115919 -0.00319717 0.00321977 -0.00123779
N 8.60636574 1.20347673 8.66942678 0.00066007 0.00155774 -0.00399741
N 6.59581081 4.12305191 10.51604774 -0.00203668 -0.00446815 -0.00664502
N 10.00011564 4.95711057 13.40779386 0.00846605 -0.00019671 0.00960228
N 11.99726956 1.91944844 10.59095951 0.00540230 0.00195750 0.00418164
N 8.29353007 1.06450511 13.33992725 -0.00378250 -0.00744826 0.00302492
N 7.10589467 4.09101149 15.37075172 -0.00541592 0.00425176 -0.00239034
N 10.22220896 4.94678824 17.78909929 -0.00084205 -0.00060944 -0.00501573
N 11.98476730 2.06833898 15.14209334 -0.00168712 -0.00374528 0.00332398
N 8.31448966 1.10605062 18.22673524 -0.00254958 -0.00674100 0.00007211
N 6.79704527 3.97234731 20.03600802 0.00188222 -0.00323254 -0.00293257
N 10.04088563 4.59187745 22.69009515 0.00239293 -0.00304863 0.00374584
N 11.74521937 2.09243605 19.93351730 0.00077211 -0.00312875 0.00010137
N 8.56673639 1.11571160 22.94603854 -0.00540100 -0.00044766 -0.00440908
N 7.06386889 9.76589925 0.91186400 -0.00168457 0.00159465 -0.00494218
N 10.68431321 10.24026228 3.79074976 -0.00598434 0.00696082 0.00168904
N 12.14374078 7.79027934 1.18347258 -0.00244034 0.00322765 0.00087840
N 9.01144328 6.80073989 3.81170912 0.00004330 0.00003012 0.00204521
N 6.99490732 9.83815201 5.79402856 -0.00291472 -0.00510061 -0.00150872
N 10.73519395 10.51812912 8.53133739 0.00323278 -0.00531984 -0.00027857
N 12.21221216 7.40838083 5.83555124 -0.00229014 0.00354366 -0.00794553
N 9.10520237 6.71569883 8.78057631 -0.00122846 -0.00135484 0.00083203
N 6.87713819 9.65297904 10.63244009 0.00413109 0.00013321 0.00106829
N 10.84693277 10.85736479 13.17067244 -0.00146254 -0.00090201 0.00224250
N 12.42729808 7.55732269 10.52764928 0.00249370 -0.00001259 0.00015537
N 9.03098614 7.11389110 13.36359893 0.00174275 0.00011415 -0.00680815
N 7.27939059 9.78283377 15.20587779 0.00086307 -0.00011989 -0.00120070
N 10.90832362 10.64614968 17.78018717 0.00293965 -0.00030699 -0.00168573
N 12.72440833 7.50052804 15.20512042 0.00822602 -0.00039037 -0.00080152
N 8.92321949 6.92183672 18.09761235 0.00188970 0.00125279 -0.00164518
N 7.23079984 9.46738874 19.79014133 -0.00987007 -0.00434929 0.00145508
N 10.53543406 10.36329268 22.51354253 -0.00114267 0.00215919 -0.00607711
N 12.30321734 7.41153726 20.04567863 0.00249249 0.00439935 0.00003207
N 8.83758296 6.58956534 22.59256595 0.00753631 0.00223447 0.00364011
N 7.92057505 14.99244653 0.96766969 -0.00192806 0.00273244 0.00255507
N 10.48036240 17.27533254 3.54496092 -0.00193933 -0.00526961 -0.00049232
N 12.00894300 13.94752181 0.98947767 0.00065489 0.00032781 0.00480804
N 9.33830826 12.14688160 3.69215497 -0.00559175 -0.00545166 -0.00152914
N 7.98282984 15.39866377 5.58313072 -0.00258368 -0.00114653 -0.00188813
N 10.47115231 17.45147019 8.40742861 0.00153325 0.00350225 0.00160428
N 11.74420379 14.05201104 5.92170820 0.00022109 -0.00340008 -0.00537321
N 8.95764525 12.02662760 8.48587561 -0.00513121 0.00197402 0.00238678
N 7.76918305 15.25110469 10.31779715 -0.00022575 -0.00155418 0.00149825
N 10.45266254 17.40600774 13.20790060 0.00245414 -0.00352340 -0.00558865
N 11.80973851 14.08050959 10.54295233 0.00066860 -0.00180384 -0.00074714
N 9.01000849 12.18072846 13.15914253 0.00069464 0.00049148 -0.00191514
N 7.67069145 15.28716082 15.03804338 -0.00039602 -0.00062548 0.00288284
N 9.95490584 17.31272279 17.78584749 0.00096402 0.00121774 -0.01077466
N 11.54178469 14.32062416 15.13660552 -0.00075207 -0.00433031 -0.00140373
N 9.23633502 12.19988302 17.70633291 -0.00225206 -0.00307092 -0.00463026
N 7.84329387 15.32996598 19.98254446 0.00310167 0.00109238 -0.00560737
N 10.35649863 17.28173874 22.59101879 -0.00098821 -0.00248168 -0.00289686
N 11.64246355 14.24735255 19.79287605 0.00489611 -0.00609883 0.00066033
N 9.16106359 12.19539339 22.64427991 0.00112981 0.00237369 -0.00534252
N 6.78765424 21.96988732 1.50070568 0.00397278 0.00495781 -0.00055513
N 9.56920033 23.88167720 3.92437017 0.00264366 -0.00094403 -0.00515621
N 11.16684098 20.88032942 1.10567566 -0.00464053 -0.00161827 0.00435795
N 8.53133393 18.55415703 3.79842022 0.00385868 -0.00008778 0.00138891
N 7.14659684 21.93231810 5.74702822 -0.00902921 0.00543648 0.00278440