2000
Time=35000.00000001 pbc="T T T" Lattice="31.01317213 0.00000000 0.00000000 0.00000000 30.02876180 0.00000000 0.00000000 0.00000000 23.66817928" energy=-12043.96221733 virial="-23.67017730 -53.08370098 16.50482286 -53.08370098 -4.63423536 -4.98459150 16.50482286 -4.98459150 -46.17172311" stress="0.00099966 -0.00236919 0.00076903 -0.00236919 0.00194287 -0.00020276 0.00076903 -0.00020276 0.00080489" Properties=species:S:1:pos:R:3:vel:R:3
C 30.55981398 3.46457294 1.63683700 0.00108197 0.00436097 0.00055391
C 2.43316691 0.42336404 2.87091312 0.00097823 0.00493090 0.00372309
C 30.21880072 3.62096832 6.44354538 0.00419208 -0.00186213 0.00016630
C 2.59451046 0.32619703 7.65638710 -0.00750943 -0.00537255 -0.00326480
C 30.45261804 3.36780789 11.07528714 0.00266246 -0.00119104 0.00525370
C 2.40101493 0.37793777 12.42337746 -0.00109050 0.00023043 0.00377895
C 30.37499441 3.73203271 15.80291898 0.00169798 -0.00262107 0.00437258
C 2.44099076 0.35648692 17.04442776 0.00556361 -0.00621535 -0.00201697
C 30.54772038 3.47667083 20.65169636 0.00912127 0.00255540 -0.00184336
C 2.60860674 0.48385024 21.86509577 0.00278696 0.01040681 0.00042837
C 30.97317585 9.37885085 1.80875490 0.00273033 0.00613304 0.00499085
C 3.09921420 6.29604668 3.03854952 0.00156986 0.00061635 0.00191300
C 30.69687519 8.98228343 6.40109375 0.00513204 -0.00208715 0.00371996
C 2.93123843 6.13549830 7.80436573 0.00371562 0.00602555 -0.00802741
C 0.00867934 8.93616268 11.13703460 -0.00074581 -0.00177552 -0.00404202
C 3.04170714 6.10658033 12.50745581 0.00786310 -0.00123857 0.00235839
C 30.69465334 9.19921735 15.91365765 0.00360285 0.00336683 0.00736728
C 2.74741265 6.26206842 17.22297782 0.00299640 0.00019285 0.00470868
C 30.82217384 9.30611045 20.64884425 -0.00272590 0.00123417 0.00139544
C 2.88583519 6.25347790 21.97227077 -0.00150588 0.00035012 -0.00928131
C 0.28516569 14.89122024 1.80339260 0.00291891 0.00173477 -0.00519843
C 3.27039527 11.84225797 3.05943787 0.00430968 -0.00608980 -0.00171337
C 0.27038370 14.66176189 6.40805975 0.00039279 -0.00102108 0.00594435
C 3.40081336 11.79884009 7.70623160 -0.00048301 0.00314070 -0.00623624
C 0.32743220 14.81228934 11.17546431 0.00129425 -0.00230985 0.00588962
C 3.37044866 11.60995095 12.40584849 0.00066419 0.00218570 -0.00573123
C 0.22064392 14.56503775 15.97177583 0.00444014 0.00117052 -0.00728465
C 3.32258382 11.84773833 17.14979417 0.00020722 -0.00326494 -0.00473527
C 0.08885671 14.81978959 20.77818125 -0.00102739 -0.00390328 -0.00026349
C 3.00002856 11.86641133 21.81739839 -0.00016432 -0.00537387 -0.00090671
C 0.69833092 20.46025924 1.80371181 0.00086880 -0.00273264 -0.00341078
C 3.54063975 17.50361307 3.06968909 0.00043749 -0.00351608 0.00007615
C 0.62558970 20.44339885 6.52336880 0.00125325 0.00341420 -0.00133114
C 3.50300414 17.39105081 7.79290450 0.00375231 0.00199471 0.00054019
C 0.58253990 20.53374160 11.33199002 0.00551419 -0.00412631 0.00222976
C 3.61564457 17.54901855 12.60727176 0.00156655 -0.00159781 -0.00265753
C 0.72623828 20.62951965 16.03113549 -0.00871848 0.00327798 -0.00282310
C 3.62895766 17.53236895 17.20807432 0.00572070 0.00140119 0.00394583
C 0.59033984 20.37317832 20.67464423 -0.00092540 0.00710837 0.00034329
C 3.55730936 17.36163112 21.96673445 0.00040861 -0.00840264 0.00635765
C 30.90271998 26.81275052 1.86437562 -0.00991810 0.00501371 0.00183882
C 3.19637920 23.95825217 3.00277937 0.00210644 0.00395480 -0.00054716
C 0.02638695 26.87694446 6.56879151 0.00665411 -0.00205054 -0.00714523
C 3.11611658 23.96180105 7.75030875 0.00029620 -0.00486812 -0.00017817
C 30.83131510 26.79168148 11.24281998 0.00510343 -0.00480233 0.00604513
C 3.29682838 23.96716207 12.52302431 -0.00115876 0.00114015 0.00027780
C 30.97980790 26.91915762 16.00167356 0.00007242 0.00131810 0.00037511
C 3.03793720 24.10082494 17.31836353 -0.00110263 0.00293467 0.00159856
C 0.00072716 27.10765913 20.62759412 -0.00543395 0.00323297 -0.00180633
C 3.14686551 23.91892368 21.92451403 0.00007435 -0.00191259 0.00196134
C 5.91117230 3.13107601 1.82655959 -0.00026268 -0.00664725 0.00087982
C 9.12188329 0.25619999 3.12246978 0.00321663 -0.00186546 -0.00613420
C 5.74356961 2.98843552 6.49446574 0.00339802 0.00177187 0.00901753
C 8.96019727 0.05831548 7.75200459 0.00805711 -0.00424403 -0.00094566
C 5.95755166 2.74137016 11.22850983 -0.00257763 -0.00057352 -0.00106302
C 9.12914986 0.15931514 12.60134568 -0.00332444 -0.00029214 0.00217248
C 5.90141982 3.27671588 15.80006822 0.00303412 -0.00372998 -0.00135687
C 9.31135126 0.32900210 17.15213644 0.00185952 0.00255572 0.00406450
C 5.96870760 3.24158060 20.59860898 -0.00162434 -0.00056602 0.00006462
C 9.03137001 0.16275318 21.91456829 0.00019337 -0.00301935 -0.00246247
C 6.31824379 8.71313457 1.60483371 -0.00674658 -0.00089585 -0.00371470
C 9.43008752 5.94802786 3.08602646 -0.00264610 0.00135639 -0.00962812
C 6.18751356 8.80127839 6.47206319 -0.00128842 0.00126693 -0.00367020
C 9.60638097 5.73016335 7.79598473 -0.00309587 -0.00258022 0.00031260
C 6.46999200 8.66846412 11.23786667 0.00262874 0.00204982 0.00370272
C 9.49911622 5.69079817 12.49027158 -0.00198634 0.00292310 -0.00429470
C 6.54458063 8.84493232 15.97520034 -0.00229374 0.00228380 0.00098916
C 9.58911373 5.79027311 17.25610788 0.00060780 -0.00150797 -0.00253464
C 6.27194394 8.93666441 20.61811884 0.00415961 0.00919146 0.00101756
C 9.39842536 6.02274260 21.93541888 -0.00295112 0.00478333 -0.00231875
C 6.73948098 14.32697769 1.60019550 -0.00286410 0.00840474 -0.00123373
C 9.86706146 11.48915516 3.03801094 -0.00493826 0.00481668 -0.00081181
C 6.84046426 14.45098744 6.67097574 -0.00297320 0.00164022 -0.00305848
C 9.87360796 11.53644508 7.74828511 -0.00312454 -0.00689603 0.00100246
C 6.91318877 14.49077775 11.25849012 -0.00518928 0.00078502 0.00846847
C 10.04910378 11.38617617 12.41414504 0.00218897 -0.00366330 0.00559134
C 6.81844197 14.40522141 16.02165957 0.00077582 -0.00192040 -0.00276847
C 9.88506705 11.26866105 17.22401627 0.00218732 0.00102487 0.00544000
C 6.78644764 14.57616783 20.59727066 0.00535242 -0.00621110 -0.00156229
C 9.81317423 11.72650852 21.87329442 0.00093262 -0.00282679 0.00181090
C 6.13705766 21.01497082 1.72199396 0.00109970 -0.00483847 -0.00378599
C 9.12612463 17.95436161 3.13591856 0.00497728 -0.01042749 0.00209384
C 6.29362249 21.04605379 6.36368746 -0.00238778 -0.00302641 -0.00049368
C 9.24981371 17.94710170 7.79596669 -0.00448370 -0.00187466 -0.00790508
C 6.20165045 21.09793378 11.15159976 0.00057538 -0.00108954 -0.00134785
C 9.43513588 18.11423325 12.54757745 -0.00180590 -0.00010735 -0.00041846
C 6.36184247 21.01227673 15.97930186 -0.00174599 0.00213491 0.00211474
C 9.42128161 18.11466182 17.18245061 0.00415094 -0.00873060 -0.00180029
C 6.25544545 21.15059362 20.67744981 -0.00482854 -0.00707255 -0.00437213
C 9.17032222 17.99673356 22.00951299 -0.00029656 -0.00524308 0.00498736
C 5.39233362 27.41321687 1.84004358 0.00186297 -0.00220393 -0.00789347
C 8.96458172 24.61464776 2.98650458 -0.00068998 0.00300636 0.00276423
C 5.71649513 27.43624771 6.35195367 0.00325516 0.00010518 -0.00002348
C 8.74331292 24.65381065 7.71163967 0.00700249 -0.00360044 0.00549530
C 5.62893163 27.49185854 11.06894719 0.00640137 -0.00613842 0.00551726
C 9.00891776 24.78020822 12.50733201 -0.00075036 0.00374117 -0.00271078
C 5.47938910 27.64635772 15.70564928 0.00409122 0.00183240 0.00340808
C 8.85201144 24.40091579 17.15341214 -0.00516370 -0.00239712 -0.00020048
C 5.66175123 27.60251478 20.58608838 0.00392618 0.00189605 0.00028327
C 8.66690579 24.50391810 21.97134487 0.00445852 0.00796593 0.00070594
C 12.35919807 2.93202240 1.50037238 -0.00557872 -0.00125755 0.00428007
C 15.58005150 29.65530238 3.01606519 0.00390176 -0.00615386 0.00718829
C 12.42798914 2.91322960 6.35480311 -0.00213249 -0.00248819 0.00319984
C 15.60431118 29.84494989 7.78761441 -0.00007939 -0.00552719 -0.00358481
C 12.69258362 2.83304317 11.15059070 -0.00055244 -0.00567616 0.00216008
C 15.77024231 29.90460000 12.51531502 -0.00592833 0.00147838 0.00568194
C 12.69608537 2.94061767 15.76473835 0.00143878 -0.00212507 -0.00256326
C 16.04559891 0.06715104 17.27453314 0.00235527 -0.00599354 -0.00110352
C 12.68373341 2.85079141 20.45413725 0.00555091 -0.00244367 -0.00263087
C 15.50062059 29.86712837 21.79512129 -0.00083689 0.01225693 0.00234561
C 12.86053609 8.49400662 1.54322304 0.00083759 -0.00042438 0.00660719
C 16.08132922 5.66747337 2.78552208 0.00409833 -0.00506546 -0.00078835
C 12.90807912 8.40231012 6.22061806 0.00088234 0.00259261 -0.00297294
C 15.97354078 5.43439243 7.48156447 0.00044951 0.00548806 0.00123342
C 12.92831418 8.42629668 11.10208916 0.00463501 0.01026350 -0.00110529
C 16.18229696 5.50275845 12.33131181 0.00034072 -0.00632072 0.00010681
C 13.09224878 8.36829876 15.85917989 0.01083224 0.00515254 -0.00316596
C 16.10621301 5.44945857 16.96630611 0.00202733 -0.00561047 -0.00500626
C 13.06861871 8.43393907 20.52437491 0.00598326 0.00190838 -0.00200963
C 16.15187904 5.61286032 21.70761118 0.00304926 0.00257951 0.00103616
C 12.53323722 15.14844344 1.90439440 0.00102448 -0.00219865 0.00358216
C 15.19573100 12.21037391 3.04770297 -0.00664326 0.00998904 0.00093509
C 12.44073009 15.16806308 6.60889062 -0.00334863 -0.00542835 -0.00731365
C 15.38786422 11.89520630 7.75601260 -0.00494042 -0.00423005 0.00381520
C 12.63228199 14.75298924 11.34646772 -0.00122285 0.00027476 -0.00192993
C 15.51697549 11.91271326 12.64020187 -0.00343487 -0.00189557 -0.00140118
C 12.46863809 15.13757870 15.92329760 -0.00293405 -0.00168219 -0.00339802
C 15.48970658 11.87405117 17.44461340 0.00030466 -0.00235100 -0.00014031
C 12.44783551 15.15767981 20.64339372 -0.00126178 0.00193606 -0.00226796
C 15.44161358 11.80873631 22.15486015 0.00067942 0.00116844 -0.00120931
C 11.74323065 21.44044107 1.75964762 -0.00058770 0.00014081 -0.00120094
C 14.77398736 18.54172333 2.79469684 0.00136439 0.00000686 -0.00314315
C 12.09953292 21.55085497 6.38654212 0.00106102 0.00430979 0.00122340
C 14.94907205 18.63131108 7.77245657 -0.00172125 0.00225679 -0.00671977
C 11.97858792 21.73437435 11.28866757 0.00435297 -0.00270240 -0.00573633
C 14.79280380 18.88656683 12.46344256 -0.00239548 0.00199076 -0.00418966
C 12.08453020 21.80685756 16.09270752 0.00675427 0.00444780 -0.00181702
C 15.07788565 18.65142340 17.07927055 0.00359100 -0.00222295 -0.00388420
C 11.52172689 21.60191226 20.80787852 -0.00646958 0.00102435 0.00121073
C 15.11507693 18.60114197 21.76391039 0.00053920 0.00281404 0.00331887
C 12.10607377 27.34334021 1.79530118 0.00141293 0.00223295 0.00520397
C 15.27950369 24.37736655 3.20483743 0.00422745 0.00021487 -0.00485177
C 12.54394088 26.92627536 6.37825293 0.00291685 -0.00805353 0.00288584
C 15.26880729 24.32186254 7.79890002 -0.00539018 0.00096716 0.00373081
C 12.19096261 27.35612703 11.08353969 -0.00489369 0.00587369 -0.00014989
C 15.38030715 24.30404875 12.48150770 0.00278081 -0.00559839 0.00536102
C 12.36909432 27.21142641 15.88232784 0.00222278 -0.00196650 0.00379719
C 15.52777782 24.24078901 17.28969247 0.00047054 -0.00480640 -0.00203260
C 12.30545016 27.35949689 20.60604503 -0.00263599 -0.00038045 0.00011203
C 15.15024295 24.05417774 22.14244499 -0.00698867 0.00348234 0.00165869
C 19.06698707 2.54299498 1.69536815 0.00791983 -0.00276335 0.00371066
C 22.15943793 29.38738113 3.07261216 -0.00607605 -0.00471007 -0.00087745
C 19.37088846 2.68210053 6.33517976 -0.00158081 0.00246054 0.00344271
C 22.13177345 29.38569481 7.81660016 0.00384137 -0.00014715 0.00118472
C 19.44251218 2.36690406 10.93683421 0.00287478 -0.00379623 0.00323495
C 22.39597205 29.44521291 12.50945151 0.00001871 -0.00040383 0.00263449
C 19.49122941 2.18843189 15.81366908 -0.00192488 0.00269475 -0.00340758
C 22.53353845 29.57737938 17.32337218 0.00019838 -0.00264531 -0.00208547
C 19.23555050 2.49234405 20.47129700 0.00383211 0.00145476 0.00211917
C 22.50378347 29.69203155 21.97902574 0.00536506 0.00124363 0.00449427
C 18.63384947 8.78542132 1.63624032 0.00063659 0.00032824 0.00225946
C 21.84834538 6.07839138 2.95343597 0.00393608 0.00067886 0.00211557
C 18.58154117 9.18862089 6.50255366 0.00185382 0.00738216 -0.00160567
C 21.80548777 6.04828552 7.82498382 -0.00255612 0.00237005 0.00795136
C 18.63720633 8.97876361 11.13093591 0.00470344 -0.00366676 0.00569875
C 21.82717052 6.07220382 12.55625950 -0.00776456 0.00444346 0.00083154
C 18.57057085 8.96508648 16.01163657 -0.00021234 0.00322060 0.00126666
C 21.80296723 6.13960932 17.32056575 0.00054748 0.00418094 0.00374859
C 18.74196276 8.99818095 20.76788076 0.00619247 0.00284451 0.00001925
C 21.88465271 6.08383758 21.96605044 -0.00330803 -0.00371844 -0.00444945
C 18.05464663 15.67293446 1.66291287 -0.00837839 0.00519256 0.00151318
C 21.11522952 12.66785767 3.16411042 0.00715560 -0.00326384 0.00248768
C 17.98076103 15.62476835 6.30690938 0.00293649 0.00257064 0.00265769
C 21.02057826 12.59982051 7.67113617 0.00254818 -0.01063680 -0.00440816
C 17.79652771 15.81120167 10.96762970 -0.00329997 -0.00591726 0.00128700
C 21.10176294 12.99926556 12.42042163 -0.00097362 -0.00021813 0.00238827
C 18.12562184 15.74778293 15.80020251 0.00272087 -0.00188364 -0.00277597
C 20.80879238 12.52407973 17.08602966 -0.00494868 0.00128925 0.00535528
C 18.00973689 15.52841597 20.70990320 -0.00692036 -0.00677386 -0.00564816
C 20.93980614 12.35784546 21.95814774 0.00053929 -0.00206613 -0.00118061
C 18.66342506 21.24443773 1.81764812 0.00367829 0.00213994 0.00235916
C 21.36216967 18.22400071 3.20162528 -0.00307889 0.00174664 0.00452027
C 18.36985788 21.23666215 6.55280947 -0.00838594 -0.00130746 -0.00077924
C 21.42024958 18.14836727 7.69906591 0.00418725 -0.00271411 -0.00232392
C 18.07419674 21.25712946 11.18160930 0.00109316 0.00832082 0.00261622
C 21.47947319 18.32115275 12.60716038 -0.00001294 0.00103364 -0.00242752
C 18.45253467 21.14108567 15.93479292 0.00693657 0.00847206 -0.00661199
C 21.36895016 18.26722264 17.26704270 -0.00675575 -0.00632201 -0.00075131
C 18.38013738 21.22315685 20.70771992 -0.00078400 0.00050944 -0.00090661
C 21.47352852 18.03620174 22.03261889 -0.00092691 -0.00255178 0.00350073
C 18.62917243 26.90988610 1.75712197 0.00455135 -0.00005005 -0.00038750
C 21.90753694 23.71042305 3.23281480 0.00167379 0.00462647 0.00704147
C 18.88106827 26.97324016 6.32904876 0.00606221 -0.00187982 -0.01212362
C 21.86794556 23.66988674 7.92357464 -0.00140279 0.00168301 0.00032554
C 18.96584411 26.80693105 11.22161118 -0.00197381 -0.00178684 -0.00203925
C 22.00560647 24.13070318 12.65210596 0.00021532 0.00636296 -0.00578806
C 18.95970674 26.95831140 15.91146518 0.00426230 -0.00068352 -0.00156681
C 21.80544206 23.68462409 17.57709154 -0.00086257 0.00101018 0.00409334
C 18.82977231 26.91171979 20.65868641 0.00500143 0.00423065 -0.00482664
C 21.90219566 23.75519274 22.06122294 -0.00333258 0.00036487 0.00113334
C 24.89866570 3.01562083 1.44932766 0.00332159 -0.00481019 0.00105157
C 27.84202038 0.02456507 3.06256529 0.00022767 0.00085443 0.00325977
C 24.76691368 3.08847604 6.33900252 -0.00174873 -0.00393390 -0.00812042
C 27.73879481 29.87274048 7.61915840 -0.00700012 -0.00201515 -0.00403160
C 24.73717816 3.35257103 11.08492011 -0.00446057 -0.00330766 -0.00149260
C 27.70156241 29.94231092 12.35662973 0.00014667 -0.00071006 -0.00253605
C 24.96069554 3.09436017 16.01138192 0.00485301 0.00709366 0.00161142
C 28.05261942 0.02203041 17.19160854 0.00416146 0.00640087 0.01072559
C 25.07643593 3.00105301 20.55105944 -0.00202779 -0.00252720 0.00477421
C 28.00521276 29.86762850 21.99099367 -0.01107157 0.00521383 0.00229317
C 24.37493141 9.81137718 1.76366214 0.00022468 -0.00446784 -0.00625340
C 27.57082457 6.57044585 2.91782636 0.00124733 -0.00310089 -0.00250572
C 24.14855252 9.42844586 6.41879944 -0.00690174 0.00018186 0.00135295
C 27.10032691 6.61688963 7.55639944 -0.00362263 -0.00406735 0.00133354
C 24.38321152 9.78658454 11.14247565 -0.00118534 0.00520579 0.00152841
C 27.42612685 6.59362753 12.32545975 -0.00501922 0.00031444 0.00003353
C 24.14939914 9.82749496 15.84528405 -0.00220775 -0.00422145 -0.00071484
C 27.21100978 6.52384307 17.18994145 -0.00604226 -0.00470130 -0.00086008
C 24.30758319 9.63875452 20.74982772 -0.00129462 -0.00141524 -0.00843892
C 27.44911925 6.33499832 21.87974662 -0.00200112 -0.00453419 0.00144933
C 24.72233513 15.18745036 1.77661815 -0.00263064 0.00537450 0.00057221
C 27.87380990 12.13548450 3.07102222 0.00064024 0.00006728 -0.00255954
C 24.56008878 15.11870277 6.45688954 -0.00299921 -0.00030698 -0.00088480
C 27.69331602 12.17839236 7.71358633 0.00128419 -0.00361475 0.00201758
C 24.57074750 15.29590730 11.15634209 0.00325415 0.00049888 -0.00054454
C 27.68592482 12.39325577 12.40803218 -0.00047026 0.00178676 -0.00562189
C 24.55295280 15.12282408 15.95116118 0.00150187 -0.00109899 -0.00066543
C 27.64296218 12.19296415 17.10557945 -0.00940015 -0.00140102 0.00447711
C 24.70655371 15.25529690 20.79569090 -0.00477815 -0.00431195 -0.00003735
C 27.96345851 12.15913805 21.97722392 0.00000606 0.00411329 -0.00098711
C 24.80579214 20.67875213 1.78281719 0.00247633 -0.00345217 -0.00071769
C 28.01252102 17.99019773 3.12832808 0.00600795 -0.00388294 0.00147727
C 24.76275330 20.57497766 6.49689077 -0.00219023 0.00398065 -0.00809084
C 28.07055647 17.88899263 7.78697103 0.00211014 -0.00521037 -0.00196854
C 24.70004404 20.93773376 11.35880311 0.00083631 -0.00122362 -0.00777942
C 28.05868955 17.70951530 12.47443373 -0.00255024 -0.00021427 0.00340013
C 25.02076920 20.84320046 16.02670583 0.00246627 -0.00438176 0.00022202
C 28.30348341 17.84678301 17.29252255 0.00328280 -0.00031381 -0.00346212
C 24.67685698 20.87757099 20.80258601 -0.00408112 -0.00507915 0.00117185
C 28.03227659 17.93852901 22.07364731 -0.00470161 0.00165009 -0.00446824
C 25.26664450 26.13443056 1.69489441 -0.00187898 0.00002641 0.00141849
C 28.34548838 23.38512218 3.06872610 -0.00248306 -0.00110691 0.00434444
C 25.18580329 26.30891341 6.42666183 -0.00002761 0.00648828 0.00124117
C 28.13792986 23.26384316 7.63950587 -0.00406339 -0.00435454 -0.00145303
C 25.35355062 26.52239106 11.13148806 -0.00781543 0.00310058 -0.00268004
C 28.22186368 23.41474608 12.52328158 -0.00431540 0.00559372 -0.00529990
C 25.61238178 26.81738266 15.93814787 -0.00245267 0.00700138 0.00607539
C 28.28141310 23.34589229 17.07614111 0.00703667 -0.00300291 0.00057438
C 25.39773003 26.30113697 20.68471873 0.00319310 0.00138753 -0.00859444
C 28.25983515 23.23364115 22.08709677 -0.00455689 -0.00294880 0.00708915
N 0.56186542 4.07903762 0.97731157 -0.00181471 0.00164148 0.00724619
N 3.69605538 5.26851079 3.68707503 0.00153245 0.00116031 -0.00291139
N 5.11001159 2.31318322 1.17539570 -0.00313524 -0.00583258 0.00310357
N 1.49134081 1.09755573 3.62322037 0.00116196 -0.00550895 0.00066551
N 0.16694072 4.30763241 5.84694791 -0.00158644 -0.00136684 -0.00485590
N 3.09771241 5.09804985 8.61001765 -0.00169502 0.00423311 0.00476115
N 4.86658739 2.26624568 5.75527051 -0.00587456 -0.00357222 -0.00161005
N 1.91536157 1.17071341 8.42358837 0.00332974 0.00239282 0.00081570
N 0.20833907 4.30713955 10.50125021 0.00024518 0.00143968 -0.00469599
N 3.71056896 5.20274178 13.28463634 0.00118385 -0.00514826 -0.00252929
N 5.15157703 1.81051061 10.57370459 -0.00031377 -0.00004152 -0.00320112
N 1.70938077 1.25260353 13.25903795 0.00271888 -0.00321892 -0.00503837
N 0.17833276 4.49363309 15.02943062 0.00172855 -0.00066027 -0.00316440
N 3.53336490 5.39544418 17.94835042 -0.00141580 -0.00262883 -0.00102107
N 5.12034542 2.41978819 15.13496648 -0.00204825 0.00543047 -0.00656889
N 1.87219190 1.38423946 17.68774038 -0.00215213 -0.00552663 0.00149053
N 0.40224409 4.27288549 19.96632314 -0.00705040 0.00208277 0.00133139
N 3.47168484 5.18335788 22.61821573 -0.00083847 -0.00027395 0.00043006
N 5.30131289 2.36610294 19.80743876 -0.00585842 0.00222727 -0.00015460
N 1.80058120 1.31011480 22.61392470 0.00060706 0.00048085 -0.00121585
N 0.53996746 10.41498658 1.20550560 -0.00060659 0.00367769 0.00097471
N 3.79982919 10.78124868 3.79757747 -0.00132822 -0.00228079 -0.00470655
N 5.61448675 7.80466199 0.84295133 -0.00045563 -0.00212603 0.00013780
N 2.53111933 7.26612045 3.80942986 -0.00386672 0.00094940 -0.00008614
N 0.59535532 9.79003667 5.71679447 0.00132429 -0.00159547 0.00019178
N 3.95882742 10.78346142 8.45980591 -0.00225018 -0.00459628 -0.00656606
N 5.49351684 7.92947184 5.72972843 -0.00224125 0.00041203 0.00935417
N 2.47099125 7.27667737 8.33084022 -0.00062520 0.00059000 0.00252689
N 0.73041042 10.04044308 10.60430347 0.00336571 -0.00110567 -0.00223173
N 4.30788408 10.82123730 13.04691665 -0.00462300 -0.00372252 0.00265405
N 5.66278991 7.79527017 10.61327285 -0.00355903 -0.00088820 0.00152145
N 2.39714580 7.10021766 13.21233521 0.00162566 0.00512264 -0.00313345
N 0.47860267 9.99860352 15.05995311 0.00073075 -0.00616131 0.00291149
N 3.89476748 10.83637930 17.82670672 0.00119371 0.00491854 0.00692018
N 5.90951283 7.84049547 15.29906072 0.00275159 -0.00104534 -0.00486244
N 2.16140785 7.18521680 18.02943802 -0.00554441 -0.00037830 -0.00019348
N 0.58590807 10.26196423 20.04459339 0.00115011 0.00654331 -0.00548314
N 3.69597344 11.00989737 22.55394282 0.00283484 0.00205613 0.00415985
N 5.49405692 8.15030512 19.88350518 -0.00300096 -0.00381052 0.00544685
N 2.39136577 7.27293712 22.75618157 -0.00031757 -0.00738664 0.00159723
N 1.04312509 15.74024582 1.06877398 0.00545220 0.00300527 0.00026463
N 4.23124415 16.38959207 3.52671348 0.00022585 0.00334739 -0.00143083
N 5.78226219 13.61461054 0.93120748 -0.00501377 0.00018653 -0.00612826
N 2.50390225 12.71252630 3.78831387 -0.00170031 0.00782570 -0.00397837
N 0.90528788 15.66350184 5.74572615 0.00134067 0.00280647 -0.00111035
N 4.30273420 16.60421496 8.51898051 0.00175934 0.00215227 -0.00300523
N 5.98317117 13.82440817 5.83161579 0.00098610 0.00273304 -0.00136374
N 2.89137340 12.90065664 8.33619119 -0.00644674 -0.00152035 -0.00472236
N 1.04976500 15.61977714 10.40037329 -0.00125872 0.00218573 -0.00542969
N 4.41400043 16.66781557 13.26673519 0.00206402 -0.00247070 -0.00322044
N 6.44404756 13.41061096 10.56886271 0.00475695 0.00055830 0.00396016
N 2.68087110 12.52915693 13.15569808 -0.00461960 -0.00121242 0.00628449
N 0.95786964 15.53630042 15.27984418 0.00608358 0.00257120 0.00374826
N 4.56025764 16.86036034 17.98999417 -0.00418967 0.00186931 0.00227217
N 5.87133069 13.71014370 15.36226303 -0.00441272 0.00364399 -0.00551305
N 2.66443566 12.75594332 17.91213107 0.00138052 -0.00105921 0.00497476
N 0.97039604 15.58052807 20.06976239 0.00017046 0.00374262 0.00047909
N 4.32630948 16.53616885 22.75422743 -0.00602972 0.00574678 -0.00108498
N 6.04079268 13.70139673 19.88645759 -0.00128924 -0.00199622 -0.00237050
N 2.31225098 12.86884595 22.45458323 0.00148834 0.00070545 -0.00177632
N 1.49583605 21.26603623 1.04236368 0.00762955 0.00138797 0.00233249
N 4.23973499 23.40301458 3.70327343 0.00049323 0.00407580 -0.01109996
N 5.32060728 20.20937412 0.99114584 0.00170331 0.00678168 0.00145925
N 2.90800139 18.26159087 4.01793703 0.00494857 0.00393746 0.00146893
N 1.34614737 21.33777747 5.72833956 -0.00095038 0.00346580 -0.00392467
N 4.02749165 23.43332873 8.50710922 -0.00164979 0.00630311 -0.00105674
N 5.36361411 20.38761357 5.61175808 -0.00145019 0.00014926 0.00293326
N 2.75150209 18.27360213 8.50777854 -0.00123408 0.00332802 -0.00120995
N 1.32545288 21.32141300 10.54122367 0.01132539 0.00134644 0.00020238
N 4.35228597 23.45601713 13.16993322 0.00061046 -0.00122107 0.00432947
N 5.38603721 20.30241210 10.47905607 0.00019280 -0.00145110 -0.00617221
N 2.81857715 18.35775293 13.34491610 0.00164457 -0.00087660 0.00114275
N 1.56216912 21.45443330 15.42821191 -0.00038987 0.00233056 0.00349833
N 4.07270569 23.57212171 17.97656033 -0.00008317 0.00078985 -0.00667528
N 5.42323821 20.29905001 15.36136590 -0.00285854 0.00331269 -0.00293629
N 2.76273292 18.24278019 17.97967784 -0.00413484 0.00429229 -0.00235806
N 1.36455438 21.34528760 20.10595452 -0.00030948 0.00745325 0.00372021
N 4.14544267 23.41613206 22.73099872 -0.00381110 0.00146665 0.00113283
N 5.51074814 20.18658324 19.99118386 -0.00034108 -0.00171940 0.00837150
N 2.87007217 18.21961329 22.71721071 0.00140212 0.00261426 -0.00058364
N 0.78715600 27.53767040 1.14617834 0.00254448 -0.00143184 -0.00346456
N 3.30928460 29.65136745 3.54046397 -0.00770973 0.00650060 -0.00046110
N 4.66337010 26.58912699 1.05548620 0.00307963 0.00326127 0.00437371
N 2.05293019 24.13729595 3.66591156 0.00748208 0.00075610 0.00479451
N 0.86167449 27.69749205 5.96876319 0.00138225 0.00211986 0.00496968
N 3.25297537 29.38776296 8.26914071 0.00852040 0.00573607 0.00914897
N 4.74687432 26.65403571 5.80045429 0.00119160 -0.00354593 0.00095140
N 2.05243934 24.75902357 8.29173637 -0.00348902 -0.00731898 -0.00076250
N 0.65933693 27.54366905 10.54855698 -0.00376719 0.00060203 -0.00115444
N 3.23244900 29.50358154 13.06538158 -0.00232729 0.00318570 0.00713825
N 4.78711573 26.72377070 10.33996696 -0.00428560 -0.00100886 -0.00527357
N 2.31278743 24.47193745 13.34522072 -0.00059247 -0.00362626 -0.00341396
N 0.91558152 27.73604522 15.40944896 0.00036061 0.00045251 0.00329619
N 3.11391928 29.49452348 17.93476688 0.00014047 -0.00141044 -0.00268214
N 4.86043658 26.70505965 14.95031213 -0.00611997 -0.00502686 0.00672306
N 2.05056625 24.51629980 18.10209766 0.00396011 -0.00257885 -0.00355785
N 0.90851016 27.66375455 19.82670401 0.00075161 -0.00256525 0.00002284
N 3.42352998 29.72289103 22.60521798 0.00145185 -0.00670863 -0.00099555
N 5.03561570 26.63678767 19.82187236 -0.00296302 -0.00704017 0.00111026
N 2.08801582 24.55954198 22.51438812 -0.00174518 -0.00091479 0.00173793
N 6.59707883 4.00525545 1.03910380 0.00140687 0.00177887 -0.00542196
N 9.94613701 4.92221676 3.75543464 -0.00115932 -0.00385147 -0.00065897
N 11.91688542 1.81560648 0.85838453 0.00174819 -0.00585677 -0.00790104
N 8.37314101 1.14283896 3.79259588 0.00337500 0.00537944 -0.00726459
N 6.61438092 3.79086199 5.82824793 -0.00506922 -0.00198845 0.00121333
N 10.26845145 4.82351639 8.53567280 0.00633715 -0.00750286 -0.00480019
N 11.60199614 1.98774281 5.79079852 0.00173103 0.00514035 0.00071511
N 8.39489822 1.00928204 8.52561327 -0.00610393 -0.00302835 0.00119457
N 6.66922882 3.53556743 10.42195152 0.00329573 -0.00205543 0.00460211
N 10.11671264 4.74311460 13.21051201 0.00298681 0.00387753 0.00476886
N 11.80069935 2.04944011 10.47037998 -0.00071550 -0.00010227 0.00242794
N 8.40465501 1.09861895 13.34357462 0.00131203 0.00068086 -0.00150447
N 6.72782423 3.99149290 14.98361499 -0.00116549 -0.00372066 -0.00020577
N 9.90710066 4.68175016 18.03586688 0.00481091 0.00349121 -0.00495744
N 11.96362983 2.02701042 15.13287634 -0.00184057 0.00165719 -0.00286613
N 8.59882977 1.26186733 17.87428408 0.00121982 0.00267502 -0.00295044
N 6.69341015 4.19244416 19.95786909 -0.00089936 -0.00156844 0.00959208
N 10.15342547 5.13305712 22.69309209 0.00325746 -0.00084886 0.00916865
N 11.80506178 2.13066326 19.62357714 0.00125154 -0.00041367 0.00393475
N 8.42399110 1.09089657 22.66709697 0.00130226 0.00096670 -0.00438843
N 6.97324259 9.76926292 0.99065590 -0.00380603 0.00177085 0.00728313
N 10.64572534 10.53467803 3.62209877 -0.00108378 -0.00110080 -0.00152083
N 12.10516677 7.69871192 0.81760039 -0.00011998 -0.00333407 0.00240728
N 8.71092399 6.83962407 3.77363375 -0.00586366 -0.00092887 -0.00647913
N 6.96145719 9.67084055 5.70421310 0.00190216 -0.00242845 -0.00314493
N 10.78641007 10.80403131 8.44725496 -0.00732590 0.00707795 0.00602257
N 12.15895665 7.41555867 5.59536602 -0.00147351 0.00126272 0.00492967
N 8.91411838 6.61629723 8.51276715 0.00042236 -0.00068030 -0.00487513
N 7.07696481 9.58473745 10.41650030 -0.00027486 0.00690986 -0.00049029
N 10.75472355 10.49883701 13.04361091 -0.00595119 0.00376356 0.00589157
N 12.05770109 7.56075355 10.48768730 0.00377885 -0.00328027 -0.00211439
N 9.00333416 6.65395458 13.29361863 0.00234256 0.00500097 0.00106461
N 7.17084192 9.69410635 15.13762151 -0.00240335 0.00189414 -0.00124541
N 10.90354625 10.75829496 18.04921505 -0.00723271 -0.00899754 0.00031925
N 12.32967613 7.60765675 15.12133159 -0.00261656 -0.00152217 0.00136240
N 8.83412938 6.75248972 17.85579139 0.00177128 -0.00878094 -0.00010668
N 7.10279667 9.74120236 19.93133033 -0.00148335 -0.00034036 -0.00446435
N 10.69776426 10.84258493 22.43210911 0.00176125 -0.00271575 -0.00559669
N 12.13253284 7.88814890 19.71807053 -0.00006176 -0.00112462 0.00595732
N 8.59091028 6.90515862 22.57511177 -0.00107377 0.00133529 0.00150552
N 7.48294929 15.16720394 0.85795097 0.00150943 0.00155549 0.00124394
N 10.21404824 17.57255817 3.78135119 0.00104208 0.00391367 0.00779217
N 11.58058803 14.38738898 1.34178368 0.00007287 0.00027477 0.00117880
N 9.15408628 12.30500860 3.87490715 -0.00576011 -0.00203240 -0.00448704
N 7.73640469 15.33633921 6.04320837 0.00218527 -0.00843997 0.00365223
N 10.37115409 17.33791455 8.29110315 -0.00121404 -0.00013242 0.00413704
N 11.46309845 14.54672010 5.87651788 -0.00124208 0.00338707 0.00357599
N 9.26257351 12.43258454 8.57040004 0.00472019 0.00132622 0.00343348
N 7.70087736 15.35869304 10.55020436 0.00665526 -0.00833534 0.00016429
N 10.40050487 17.64149076 13.40484032 0.00054671 0.00251415 0.00234778
N 11.44123313 14.17886551 10.83999606 -0.00154984 0.00097708 -0.00319324
N 9.22299178 12.19323623 13.18020488 0.00220280 0.00046526 0.00131388
N 7.62259914 15.03374062 15.13383483 -0.00489904 0.00012688 -0.00111218
N 10.24246018 17.32190639 17.93173674 -0.00466791 -0.00982543 0.00131184
N 11.48501869 14.48683432 15.20859891 -0.00188520 -0.00221564 -0.00153512
N 8.94448185 12.04626221 17.86071618 0.00407374 -0.00252271 0.00828488
N 7.53054663 15.45843906 19.92211467 -0.00475404 0.00045104 -0.00362160
N 10.21842658 17.51110283 22.71139428 0.00052020 -0.00261350 0.00531224
N 11.51886389 14.49001813 19.93583868 0.00242043 -0.00200092 0.00387730
N 8.89516228 12.24682294 22.71042168 0.00171539 -0.00318638 -0.00153317
N 7.09553994 21.74823252 1.06958379 -0.00135296 -0.00165902 0.00751853
N 9.75276858 23.73320011 3.72223086 0.00070317 0.00795951 -0.00475284
N 10.79394212 20.84126171 0.95915031 0.00305957 0.00169266 0.00156588
N 8.33171624 18.75715801 3.82005717 -0.00115715 -0.00061681 -0.00441631
N 7.05550075 21.90433733 5.68811849 -0.00220768 -0.00243452 0.00196109