2000
Time=7000.00000000 pbc="T T T" Lattice="30.95674903 0.00000000 0.00000000 0.00000000 30.06794213 0.00000000 0.00000000 0.00000000 23.63910673" energy=-12041.54436541 virial="-22.79687708 -12.88052542 8.14031707 -12.88052542 -20.43245486 -17.40944119 8.14031707 -17.40944119 -5.92178330" stress="0.00086121 -0.00068122 0.00033821 -0.00068122 0.00104750 -0.00079091 0.00033821 -0.00079091 0.00298868" Properties=species:S:1:pos:R:3:vel:R:3
C 30.15502729 3.71480744 1.83807005 -0.00271612 -0.00048923 0.00471809
C 2.24591592 0.69527186 3.15371185 0.00105356 0.00046704 -0.00224333
C 30.22685913 3.57078756 6.50853361 0.00160099 0.00090082 0.00443737
C 2.53145878 0.60433241 7.81792671 0.00121884 -0.00339358 -0.00401351
C 30.20596624 3.64339229 11.16073948 0.00077550 0.00259481 0.00236231
C 2.40972849 0.67184728 12.46499719 -0.00522886 0.00520604 -0.00010853
C 30.37172769 3.65133770 15.87773422 -0.00009942 -0.00310355 0.00227879
C 2.35236297 0.58154027 17.32997297 0.00250070 -0.00389556 0.00214358
C 30.15831085 3.58109888 20.72397720 -0.00177000 -0.00350443 -0.00326080
C 2.52708729 0.82052193 22.05253741 -0.00100248 0.00277226 0.00198571
C 30.66784529 9.32319442 1.89783419 0.00232874 0.00160323 -0.00290944
C 2.96749156 6.38932907 3.14955000 0.00313814 0.00255862 -0.00190209
C 30.82095169 9.38321867 6.48398906 0.00350389 0.00697919 -0.00657165
C 2.92026950 6.13321183 7.90612145 -0.00340976 0.00047778 0.00171645
C 30.79216671 9.13834853 11.11226637 0.00145980 0.00138066 0.00305462
C 3.16610176 6.17538286 12.56529962 0.00014567 0.00234003 -0.00607630
C 30.94174025 9.14182912 15.86448449 -0.00011920 -0.00678093 -0.00106300
C 2.81241209 6.03933771 17.28955523 0.00771842 -0.00257852 0.00065482
C 30.84575379 9.07447711 20.67807645 0.00684686 -0.00216554 -0.00129438
C 2.75987631 6.11456664 22.04949323 0.00649129 0.00354585 -0.00446686
C 0.25337879 14.87065901 1.80692385 -0.00258534 -0.00086268 -0.00081508
C 3.38111927 11.96922669 3.02270670 -0.00073135 -0.00453669 -0.00139363
C 0.14452789 14.63940267 6.54857598 0.00034465 -0.00170811 -0.00076528
C 3.46521129 11.78046802 7.71491466 0.00801552 0.00390875 0.00064080
C 0.10535531 14.72264484 11.24260280 0.00153182 0.00196827 -0.00396732
C 3.37891806 11.87347905 12.52265433 0.00921157 -0.00144443 0.00074449
C 0.24973345 14.49153264 15.94317014 0.00173927 -0.00756730 0.00834101
C 3.19040262 11.59559984 17.27101316 0.00449264 0.00211330 -0.00114118
C 0.32429343 14.87383412 20.65899487 0.00127092 -0.00144498 0.00202692
C 3.20515838 11.84784126 21.91749686 -0.00162910 0.00265189 -0.00126236
C 0.64194274 20.17215019 1.78432706 0.00048289 0.00397251 -0.00006406
C 3.86959678 17.45911129 3.06597925 0.00583066 0.00132410 -0.00095412
C 0.56019439 20.29799335 6.35988382 -0.00211827 -0.00620101 0.00253452
C 3.69059467 17.28557741 7.70555744 -0.00184108 0.00295228 0.00160421
C 0.73814289 20.49932457 11.12781820 0.00275824 -0.00030525 -0.00191158
C 3.51685144 17.37946292 12.60582446 -0.00368876 0.00120192 0.00131088
C 0.70217708 20.52825646 15.86439054 -0.00180075 0.00158465 0.00169258
C 3.84273237 17.39256901 17.27176713 -0.00277102 -0.00394990 -0.00364957
C 0.89260334 20.27438241 20.54615594 -0.00585606 0.00290281 -0.00361205
C 3.86534146 17.21395791 21.90239332 0.00174876 0.00411315 0.00221263
C 30.79444681 27.01353586 1.81883971 0.00281543 0.00238601 0.00053083
C 3.04705202 24.16177787 3.02584942 0.00134593 0.00455067 0.00548976
C 0.07929232 27.27388149 6.46587281 0.00207103 0.00196098 0.00228176
C 3.30511199 24.06553524 7.72805931 -0.00172578 0.00094127 0.00003891
C 30.78993301 26.92182529 11.16589960 -0.00277180 -0.00040630 0.00538532
C 3.18515676 24.10287166 12.52576188 -0.00616805 0.00620511 -0.00585819
C 30.92291052 27.16105743 16.06233551 -0.00232691 0.00689878 0.00333019
C 3.27264557 24.10751174 17.20213242 0.00234537 -0.00245637 -0.00073103
C 0.07048773 27.11298833 20.65586848 0.00168420 0.00087213 -0.00114273
C 2.96057737 23.95333458 21.97984928 -0.00486942 0.00088661 -0.00331226
C 5.69597900 3.21226170 1.71733394 0.00496586 0.00265840 0.00701923
C 9.12085925 0.27062856 3.03227146 -0.00734936 -0.00187807 0.00338459
C 6.16576855 3.31162657 6.40323683 -0.00658981 -0.00415674 -0.00028814
C 8.84463112 0.25345680 7.77630625 -0.00189894 0.00069706 0.00660867
C 5.90944110 3.47018848 11.35772915 -0.00578962 -0.00234966 -0.00110266
C 9.21465644 0.31625733 12.52186942 0.00377101 -0.00305050 -0.00559960
C 6.00175054 3.47659377 16.04927289 -0.00198209 0.00209455 0.00002903
C 9.06863083 0.20696428 17.25767535 -0.00602143 0.00455836 0.00217481
C 6.20315722 3.16823294 20.77575942 -0.00443054 -0.00085549 0.00546059
C 9.11005423 0.31953595 22.05116607 0.00021302 -0.00063584 0.00066004
C 6.44384357 8.89221038 1.85466829 -0.00207043 -0.00523071 0.00365210
C 9.40206102 5.78263009 2.90005294 -0.00285295 0.00720342 -0.00043961
C 6.67389133 8.61195949 6.32537207 0.00819854 0.00098761 -0.00131012
C 9.61199933 5.94105363 7.78415568 -0.00372378 0.00511345 -0.00256489
C 6.46213414 8.76135482 11.06226695 0.00204086 -0.00366512 -0.00270659
C 9.66949785 5.89161693 12.63658721 -0.00028791 -0.00189377 -0.00096369
C 6.48884489 8.78974540 15.92299694 -0.00064921 -0.00283633 -0.00246018
C 9.53778881 5.78507739 17.26708925 0.00104983 0.00520616 0.00669636
C 6.41233180 8.72645621 20.51090105 0.00525499 0.00234989 0.00264746
C 9.62216929 5.81315637 21.82148421 0.00590252 0.00957298 0.00467836
C 6.85312728 14.31462622 1.67382730 -0.00725592 0.00171575 -0.00004382
C 9.90841601 11.37638642 2.95891224 -0.00254294 -0.00014554 -0.00267659
C 7.04628765 14.28977029 6.35525792 0.00507310 0.00355586 -0.00190960
C 10.06902745 11.38754939 7.74332962 -0.00358885 -0.00055153 0.00410140
C 6.83747710 14.40984154 11.19796481 -0.00000250 0.00495063 -0.00211555
C 10.10124710 11.13897599 12.35439481 -0.00425804 -0.00154588 0.00355316
C 6.91499312 14.34121733 15.95331401 0.00202224 -0.00671198 0.00376149
C 9.81180010 11.33317570 17.03216874 -0.00347985 0.00359852 0.00191308
C 7.17916783 14.42761935 20.65524869 -0.00255876 0.00363598 -0.00427522
C 10.05126730 11.41002497 21.78907355 -0.00037478 -0.00051594 0.00227024
C 5.96690766 21.04022214 1.72993639 -0.00259142 -0.00001388 -0.00283467
C 9.16553678 17.88427838 2.87558754 -0.00166439 0.00219177 -0.00469385
C 6.41269956 21.04055956 6.48853258 0.00111837 0.00605506 0.00305995
C 9.11287524 17.97936995 7.73361581 0.00232862 -0.00187770 0.00307055
C 6.38412801 21.08596688 11.09503332 0.00600827 0.00314038 -0.00295834
C 9.43185723 18.14651620 12.48733428 -0.00240160 0.00428099 0.00134696
C 6.15631956 21.05476297 15.88928100 0.00257576 0.00081618 0.00026926
C 9.57830270 17.91982095 17.25606622 -0.00474382 -0.00362155 0.00403618
C 6.39924510 21.09282072 20.56980121 0.00124222 -0.00487551 -0.00042772
C 9.37635998 18.18194777 21.94144504 -0.00103079 0.00021226 -0.00199475
C 5.51950821 27.88764749 1.72761148 0.00473521 -0.00334839 0.00105266
C 8.54289941 24.63566481 2.98183678 0.00255870 -0.00779811 0.00091168
C 5.34794863 27.84474000 6.48928500 -0.00423266 -0.00307665 -0.00713937
C 8.78121997 24.74041995 7.73055299 0.00075419 0.00160693 0.00235363
C 5.60188146 27.76863325 11.11100624 0.00240929 0.00053366 0.00126113
C 8.84453979 24.65624121 12.45223475 0.00668843 -0.00279741 -0.00773601
C 5.66925407 27.67958690 15.91048649 0.00218690 -0.00781451 -0.00590016
C 8.85322038 24.84323882 17.01903515 0.00223334 -0.00388318 0.00047736
C 5.55118734 27.77405371 20.59709241 -0.00933039 0.00147688 0.00021673
C 8.56309424 24.70415965 21.85816803 0.00117636 0.00269275 -0.00340417
C 12.53500014 2.88336941 1.83532535 -0.00400871 -0.00377402 0.00523561
C 15.71934079 29.64965547 3.00263623 0.00032078 0.00783829 0.00196099
C 12.73268879 2.84727219 6.45178407 0.00514795 -0.00537239 0.00269575
C 15.56962864 29.79149316 7.58391889 0.00148279 -0.00839653 -0.00381426
C 12.70809810 2.67890933 11.28146180 -0.00207150 0.00044611 -0.00144244
C 15.81514789 29.63963080 12.37977073 0.00137403 -0.00175066 -0.00168485
C 12.69324414 2.73545222 16.01817018 0.00796610 -0.00043489 0.00291167
C 15.98360625 29.69879602 17.22048373 -0.00022352 -0.00377991 -0.00827551
C 12.65801895 2.68417854 20.65797545 0.00305650 -0.00380871 -0.00766274
C 15.84058528 29.78863238 21.95991988 -0.00199275 -0.00281486 -0.00176274
C 13.12237637 8.45988383 1.78218761 -0.00664633 -0.00185267 -0.00039526
C 16.29620338 5.21315704 2.88234436 0.00213684 -0.00483183 0.00483546
C 13.14812665 8.38240175 6.41382976 -0.00176948 -0.00199007 0.00008679
C 16.00859357 5.47316322 7.64470277 -0.00008417 0.00220497 -0.00464032
C 13.11238727 8.31175447 11.12827030 0.00112409 -0.00047417 0.00512384
C 16.16414881 5.26312659 12.54885554 0.00114060 -0.00357506 -0.00124539
C 12.87242801 8.22417131 15.93135054 0.00366288 -0.00010996 -0.00061482
C 16.07324959 5.37359265 17.13648969 0.00253044 -0.00165089 -0.00269829
C 13.00076441 8.52865575 20.70719413 -0.00081799 -0.00041292 -0.00415026
C 16.27851974 5.36384821 21.80955577 0.00069953 -0.00085894 -0.00679636
C 12.36279507 15.09447565 1.76297763 0.00374505 -0.01021644 -0.00570694
C 15.39425251 12.12336026 3.04454046 -0.00520962 0.00077729 0.00264125
C 12.33558188 15.08639051 6.45577414 0.00262609 -0.00044536 0.00086586
C 15.48765005 12.04178001 7.76272330 0.00022912 -0.00124894 -0.00077367
C 12.37071996 15.05343373 11.19292313 -0.00340297 0.00541047 0.00161493
C 15.43932589 11.92105100 12.48593418 -0.00141673 -0.00584532 0.00208806
C 12.50411411 14.91423669 15.92204334 -0.00073141 0.00028593 -0.00378048
C 15.31031504 11.77139669 17.19587311 0.00082913 0.00078803 -0.00727959
C 12.30819966 14.99694014 20.64796015 0.00275744 -0.00926509 -0.00769471
C 15.55437979 12.08371176 21.94962844 -0.00344267 -0.00023033 0.00669467
C 11.64308651 21.68491015 1.64549747 0.00426317 -0.00173010 0.00139567
C 14.66001079 18.58704104 2.96039769 0.00063694 -0.00085579 0.00783813
C 11.76219430 21.45050100 6.37196486 -0.00231009 -0.00109902 -0.00101250
C 14.64796265 18.60608060 7.69129253 0.00398072 0.00086151 -0.00522313
C 11.80154968 21.73152318 11.11192498 -0.00121334 0.00182061 0.00188709
C 14.72923389 18.81533508 12.47882064 -0.00630889 -0.00056720 0.00018674
C 11.70450114 21.66972513 15.88276482 -0.00456021 -0.00081114 0.01075653
C 15.01986473 18.86241106 17.04120000 -0.00475378 0.00296778 -0.00171095
C 11.67477612 21.83844610 20.61817485 0.00084681 0.00127647 -0.00319021
C 14.77343862 18.62679922 21.71453530 0.00117083 0.00351728 -0.00310588
C 12.09426122 27.32400450 1.46856732 0.00159955 -0.00073960 -0.00129629
C 15.01785775 24.02488905 3.04378944 0.00212489 0.00353382 0.00577732
C 11.95070257 27.28162772 6.44654550 -0.00751139 -0.00224535 -0.00160701
C 15.17421339 24.30835981 7.85091775 -0.00618447 0.00178153 -0.00425957
C 12.06799253 27.46462365 11.19138372 -0.00305705 -0.00612454 0.00431377
C 15.25562332 24.24542971 12.50734883 -0.00094455 -0.00324024 0.00257320
C 12.34062016 27.32532814 15.83507080 0.00174600 0.00010737 -0.00010408
C 15.19456343 24.36450992 17.29508337 0.00105940 -0.00263887 0.00124361
C 12.05471992 27.41403007 20.43603356 -0.00109609 0.00471543 -0.00389732
C 15.11035491 24.17487444 22.04453291 0.00736423 -0.00102374 0.00290315
C 19.20102094 2.47091989 1.63477980 -0.00372978 -0.00186452 0.00314590
C 22.50448479 29.63165869 2.93926136 -0.00118955 0.00263562 0.00147615
C 19.17011118 2.45955194 6.35976895 0.00520029 0.00292632 0.00171902
C 22.38696810 29.55968464 7.64540264 0.00575483 0.00312489 -0.00053897
C 19.45129603 2.13764241 11.20864966 -0.00187526 0.00146118 0.00593917
C 22.40415708 29.38624306 12.65759165 0.00224740 0.00325303 0.00175829
C 19.26555703 2.21748567 15.87682500 -0.00553572 -0.00434784 -0.00664624
C 22.33813875 29.42710618 17.08808255 0.00120335 -0.00352570 -0.00028808
C 19.23691976 2.45284437 20.58588350 -0.00273428 0.00281343 0.00497534
C 22.33982504 29.38243575 21.88303512 0.00633155 -0.00464473 0.00261154
C 18.35357466 8.97631846 1.69290591 -0.00362722 -0.00452601 0.00284600
C 21.64420161 6.10271781 3.01321538 0.00009186 0.00061644 0.00109037
C 18.50789469 9.00721578 6.50395274 0.00119996 0.00280471 0.00149199
C 21.75109406 5.92571822 7.83242639 0.00054290 0.00438591 0.00075943
C 18.49877350 8.88194888 11.30541591 0.00039544 -0.00302215 0.00143362
C 21.67071941 5.97759494 12.48713180 0.00629067 -0.00025386 -0.00022736
C 18.19799470 8.84022150 15.99850359 0.00028693 0.00382458 -0.00089310
C 21.47205897 5.94769542 17.16267716 0.00149039 -0.00134201 0.00035138
C 18.56446035 9.09062026 20.48750400 -0.00608321 -0.00070793 -0.00400336
C 21.67428020 6.11169860 21.89460530 -0.00300764 0.00146792 0.00504968
C 17.68555752 15.98550962 1.74225800 0.00025626 -0.00498433 -0.00011199
C 20.90230161 12.94470039 2.99368211 -0.00092035 -0.00049918 0.00055193
C 17.81336331 15.74010520 6.36984361 -0.01400476 -0.00652892 -0.00043101
C 21.04709999 12.66591490 7.82764136 0.00026312 -0.00162529 -0.00276501
C 17.84360259 15.75395341 11.08914618 -0.00044133 -0.00282848 0.00150720
C 20.89791495 12.50827460 12.40100932 -0.00074970 -0.00330167 0.00238197
C 17.79788457 15.62232218 15.86374372 -0.00302232 0.00142864 0.00681780
C 20.89700228 12.58994084 17.25057140 -0.00345148 0.00355932 -0.00039698
C 17.76282071 15.63356993 20.50592986 -0.00211746 -0.00288189 -0.00192758
C 21.01831396 12.76782898 21.94998282 -0.00368191 0.00434618 -0.00049460
C 18.25926933 21.40737864 1.70575229 -0.00356011 0.00063569 -0.00250365
C 21.34366282 18.29546951 3.08036965 0.00383079 -0.00287052 -0.00357117
C 18.29525765 21.37571141 6.53773598 0.00698800 0.00590245 0.00147161
C 21.31067731 18.13425248 7.72716388 -0.00447339 0.00518031 0.00090478
C 18.37402773 21.44471663 11.06929403 0.00118572 -0.00447036 -0.00132593
C 21.42102476 18.09186389 12.43945666 -0.00244102 -0.00900394 -0.00163384
C 18.38720530 21.27199648 15.83981185 -0.00184000 0.00570296 0.00348804
C 21.49283649 18.09040157 17.35056579 -0.00184200 0.00382942 0.00254238
C 18.34707252 21.42487260 20.76238855 -0.00144777 -0.00274772 0.00264557
C 21.48809656 18.14881366 21.91210692 -0.00145122 0.00054174 -0.00253468
C 18.99375345 26.71732647 1.66021988 0.00033295 -0.00244986 0.00426444
C 21.99999377 23.97022440 3.01148256 0.00120370 0.00282957 0.00213098
C 18.83227781 26.69534289 6.43516069 -0.00087212 -0.00268774 -0.00372295
C 22.11274413 23.79814498 7.77027132 -0.00040951 0.00267341 -0.00069440
C 18.79709109 26.83569743 11.15424597 -0.00647146 -0.00183227 0.00037583
C 21.85822976 23.89344128 12.57828947 -0.00006319 0.00367876 -0.00440520
C 18.80767038 26.81007912 15.90095168 0.00359527 -0.00041721 0.00346034
C 21.82309627 23.74995569 17.27614833 0.00706277 0.00162296 0.00472502
C 18.89747356 26.73461954 20.76637091 -0.00013453 0.00334820 -0.00053595
C 21.88919526 23.77095334 21.96636944 0.00559184 0.00120693 0.01194906
C 24.77490477 3.13577160 1.60785662 0.00682086 -0.00750843 0.01194047
C 27.61830865 29.88999399 3.00155505 0.00212454 -0.00012072 0.00219068
C 24.82633346 3.11787837 6.40457682 -0.00348435 -0.00083553 0.00645168
C 27.84813140 0.20123467 7.82774232 -0.00046694 -0.00440069 0.00474370
C 24.75585186 3.02093187 11.05626385 0.00106393 -0.00083847 -0.00032463
C 27.70888619 29.91318099 12.48483130 -0.01070943 0.00366528 -0.00664986
C 24.65072895 3.01001762 15.78083462 -0.00593596 0.00227399 0.00752886
C 27.84030673 0.07391132 17.21329892 0.00264053 -0.00028799 0.00184885
C 24.72214727 3.05357735 20.64148924 -0.00274240 -0.00020583 0.00250581
C 27.68714986 0.18444394 21.98367850 -0.00009273 -0.00046194 -0.00231331
C 24.04475014 9.85621573 1.58562346 0.00799505 -0.00213984 0.00280625
C 27.01597838 6.47335459 2.78994424 0.00862884 -0.00451185 0.00230778
C 24.08854655 9.88418005 6.28164437 0.00419847 0.00369483 0.00019161
C 27.20986145 6.70762516 7.64488268 -0.00428058 -0.00073345 0.00981646
C 23.99707744 9.81514975 11.02255448 0.00165372 0.00348019 0.00131818
C 27.17214678 6.52576280 12.31467330 -0.00100124 -0.00178870 -0.00114945
C 24.15029688 9.73930852 15.85387945 -0.00021074 -0.00379705 -0.00089985
C 26.97306578 6.57121235 17.09907969 -0.00155524 0.00509683 -0.00174125
C 24.10613782 9.65043093 20.54184654 0.00741097 0.00118505 -0.00161103
C 27.36366040 6.74907728 21.81122645 0.00327193 -0.00370515 -0.00311115
C 24.66012584 15.38692063 1.59929445 0.00006360 -0.00277237 0.00244720
C 27.51950389 12.53364785 2.98057575 -0.00365000 0.00742549 -0.00450401
C 24.41759813 15.36940110 6.42890018 0.00083507 -0.00591890 0.00344362
C 27.50901459 12.00150826 7.65507858 0.00059403 0.00781427 0.00132171
C 24.53449567 15.53068251 11.16175329 0.00027299 0.00377861 0.00541287
C 27.50182762 12.20244783 12.39338277 -0.00364030 -0.00611050 -0.00457531
C 24.28579748 15.34811114 15.88788339 0.00456718 -0.00354411 -0.00145912
C 27.51262714 12.19428700 17.32000948 0.00114035 -0.00243323 0.01007692
C 24.77333515 15.32984475 20.62264002 0.00390956 -0.00313320 0.00443932
C 27.73995417 12.48872119 21.82809477 0.00647252 -0.00052727 0.00268719
C 24.97648505 20.70841295 1.72372304 0.00072200 0.00162002 0.00031955
C 27.84570153 17.87653160 2.89017421 0.00155730 -0.00198329 0.00500835
C 24.89450787 20.80175113 6.58277958 0.00594351 -0.00443923 0.00331799
C 27.88897567 17.56601867 7.75662888 -0.00311912 -0.00669333 0.00219551
C 24.78553859 21.05775852 11.21163754 0.00036223 0.00200015 0.00305705
C 28.20064552 17.82353137 12.35777132 0.00185412 -0.00211751 -0.00309182
C 24.73413126 20.75857358 15.87013749 0.00166267 -0.00307977 0.00190702
C 28.08685456 17.95277588 17.21402101 0.00041640 -0.00066567 -0.00623388
C 25.07076680 20.70837358 20.53451385 -0.00527431 0.00274129 -0.00577791
C 28.06587047 17.93344439 21.76302402 0.00352538 -0.00067322 -0.00444698
C 25.49070817 26.41904005 1.73201401 0.00285878 -0.00404807 0.00240535
C 28.48276729 23.45525090 2.86469866 -0.00406491 0.00011408 0.00187901
C 25.43764293 26.48010531 6.56673620 -0.00086343 0.00237331 0.00007604
C 28.54481213 23.36746669 7.61595571 0.00291929 -0.00999203 0.00150655
C 25.30205925 26.44608962 11.26079776 0.00940459 0.00329110 0.01073773
C 28.38951428 23.40602669 12.45501228 0.00189442 0.00253673 -0.00030522
C 25.45122229 26.31353477 16.01910869 0.00576814 0.00047067 0.00061205
C 28.64751764 23.39133685 17.16238106 -0.00151019 0.00313429 -0.00006652
C 25.62728794 26.29272033 20.64955236 0.00546978 -0.00586402 -0.00972074
C 28.36614931 23.48622241 21.86916411 -0.00005600 -0.00519440 0.00404626
N 0.05310693 4.57031299 1.25023522 -0.00012290 -0.00139241 0.00064786
N 3.46018837 5.38472516 3.88129468 -0.00443631 0.00044964 0.00557482
N 4.82676167 2.56268852 0.98749115 -0.00107367 -0.00077849 0.00019319
N 1.50997315 1.58740378 3.89964036 -0.00073570 -0.00311421 -0.00211828
N 30.91462044 4.50388384 5.78802095 -0.00228489 -0.00643759 -0.00026669
N 3.57138652 5.30583216 8.69082506 0.00038514 0.00078793 -0.00071386
N 5.45377276 2.41575430 5.69522152 0.00630749 -0.00019316 0.00321045
N 1.72479397 1.50498657 8.41544984 0.00312183 -0.00315757 -0.00521774
N 0.20310706 4.39572813 10.52383236 0.00336808 0.00564293 0.00264567
N 3.71269948 5.15710893 13.34817821 0.00766901 -0.00021920 0.00538998
N 5.10430694 2.83370638 10.44766072 0.00134872 0.00149752 0.00278493
N 1.54871405 1.42580010 13.10676587 0.00301574 0.00075978 -0.00087181
N 0.21001823 4.54624456 15.22968165 -0.00070237 -0.00205595 0.00907066
N 3.48124776 5.13165869 18.06595277 -0.00036238 -0.00120373 0.00067921
N 5.27043216 2.47497996 15.39458422 0.00062992 0.00275676 0.00605426
N 1.49889445 1.51710574 17.86885948 0.00064951 -0.00151200 0.00106586
N 30.89912683 4.39558147 19.92374410 -0.00225279 -0.00270451 -0.00083434
N 3.45627746 5.18351599 22.76444120 0.00077328 -0.00013279 -0.00148970
N 5.37584406 2.38355171 20.07645590 -0.00005554 0.00279277 0.00267998
N 1.63112806 1.49435773 22.84171367 -0.00343692 -0.00094566 0.00240674
N 0.47828027 10.22013828 1.28890625 0.00086653 -0.00186359 -0.00760212
N 3.88474713 10.84468270 3.72377428 0.00671280 0.00743768 -0.00644154
N 5.54173016 8.01829075 1.28740060 0.00226377 -0.00013645 0.00308723
N 2.12946967 7.19242757 3.86679989 -0.00132962 0.00219457 0.00589093
N 0.64833231 10.19700312 5.69814023 0.00455546 0.00069467 0.00056448
N 3.99658640 10.69975708 8.36529357 -0.00074979 -0.00094664 0.00082859
N 5.76025342 7.80490558 5.64001376 -0.00148166 -0.00115673 -0.00369437
N 2.47636963 7.34400425 8.46804571 0.00024767 0.00430819 0.00143081
N 0.54389455 9.94861261 10.32986762 -0.00357157 -0.00233945 0.00565634
N 4.00111656 10.90440651 13.27345954 -0.00618714 0.00282087 -0.00161688
N 5.64130619 7.97439106 10.36890228 0.00467508 0.00110035 0.00377781
N 2.51051327 7.15657316 13.19850299 -0.00332013 0.00653075 -0.00537577
N 0.82594179 9.88797191 15.10904016 0.00092973 -0.00495700 0.00087661
N 3.91392600 10.61742963 17.85436712 0.00203970 -0.00122308 -0.00582728
N 5.66681926 7.92687484 15.23947410 0.00230280 0.00056065 -0.00071141
N 2.17100645 7.03120126 17.97814264 0.00129651 0.00473207 -0.00340721
N 0.70108634 9.86355246 19.88444624 -0.00200694 0.00075677 -0.00482546
N 3.83588026 10.81989937 22.64803945 0.00125302 0.00201319 -0.00485432
N 5.62825001 7.87008372 19.89995015 0.00406490 -0.00125264 -0.00033914
N 2.16856812 7.13996166 22.80069491 0.00112601 -0.00510287 0.00207374
N 1.08335141 15.69384752 1.06755127 -0.00098624 -0.00156407 -0.00247858
N 4.69033895 16.71558399 3.81732245 -0.00359417 -0.00176362 -0.00044423
N 6.08416877 13.45566633 0.98539540 0.00183600 0.00430457 -0.00315032
N 2.79444696 12.93329977 3.74504066 0.00093393 0.00477208 0.00248145
N 0.87102075 15.66714451 5.95238319 0.00119467 0.00602176 0.00429666
N 4.55018506 16.60748736 8.51337887 0.00348125 -0.00348206 0.00182679
N 6.11401210 13.49917714 5.70282407 0.00161269 -0.00064859 0.00556484
N 2.98032031 12.82017167 8.44129768 0.00027537 -0.00525852 0.00313877
N 1.07957444 15.41350589 10.54725919 -0.00367822 -0.00303385 0.00061811
N 4.26784760 16.48978036 13.29294291 -0.00171632 0.00093045 0.00184843
N 6.24022047 13.38874163 10.54705273 0.00247584 -0.00041430 -0.00264474
N 2.71185359 12.74817283 13.31391944 -0.00301279 -0.00165190 -0.00101793
N 0.90294821 15.50174215 15.31214624 -0.00491372 -0.00019904 -0.00297486
N 4.66064980 16.46066415 17.83469416 0.00396203 -0.00481027 -0.00271215
N 6.06718856 13.60534008 15.22422910 -0.00278526 0.00351680 0.00114735
N 2.62003889 12.59230237 18.09122651 0.00073987 0.00322799 0.00744998
N 1.09865305 15.51504545 19.74850389 0.00125611 -0.00103417 0.00786374
N 4.80642211 16.41355993 22.58456631 -0.00442100 0.00226873 0.00017043
N 6.15820619 13.74069132 20.03349730 -0.00000628 0.00814017 0.00583023
N 2.70708353 12.77044714 22.71335546 0.00371422 0.00024452 0.00006151
N 1.40152977 21.01858317 1.06898762 -0.00350269 -0.00296694 -0.00148031
N 4.09328446 23.67925729 3.75258110 -0.00042737 -0.00249650 -0.00447215
N 5.38859869 20.18878761 0.82881472 -0.00005416 0.00328484 0.00037053
N 2.99561878 18.22320994 3.76015342 0.00150043 0.00072999 -0.00100892
N 1.29309757 21.23244048 5.71002754 0.00314172 0.00145496 0.00238275
N 4.21752827 23.25157679 8.35763216 0.00338714 0.00156960 -0.00620958
N 5.47965840 20.46537212 5.70254975 0.00007423 -0.00378512 -0.00152168
N 2.92464920 18.19507032 8.37834356 -0.00869064 0.00201840 -0.00087625
N 1.58589708 21.32449697 10.48919266 0.00128280 -0.00412511 0.00171130
N 4.34076616 23.69853641 13.08487347 0.00008500 0.00131687 -0.00684691
N 5.35619327 20.40153726 10.52283259 0.00564078 0.00103851 0.00024436
N 2.95923102 18.39416264 13.35486518 0.00446261 0.00520508 0.00095732
N 1.46441033 21.42618783 15.17607823 0.00635321 -0.00165579 -0.00101711
N 4.13706664 23.54390642 18.04375585 0.00329138 -0.00197125 0.00044372
N 5.29729082 20.15803014 15.33133183 -0.00215291 0.00687399 0.00152975
N 3.03211497 18.19897680 18.11218801 -0.00489797 -0.00064732 -0.00145107
N 1.55022628 21.24712044 19.82641804 0.00273936 -0.00440133 0.00079438
N 4.00236913 23.50161930 22.75597072 0.00318460 -0.00020840 0.00191024
N 5.47871314 20.29888350 19.89143444 -0.00559249 0.00210415 0.00340159
N 3.15915077 18.03729178 22.66063767 -0.00037315 0.00097191 0.00286201
N 0.68328028 27.81567225 1.11900052 -0.00297712 -0.00186535 0.00468957
N 3.17862120 30.01681770 3.78494735 0.00283307 -0.00351208 -0.00304511
N 4.79356965 27.00309035 1.01853980 0.00276332 0.00185030 -0.00153806
N 2.04968439 24.63103351 3.80392174 0.00198831 0.00290552 0.00066747
N 0.80987203 28.13113144 5.71537738 0.00274065 0.00043447 -0.00055811
N 3.25068458 29.85917861 8.58271129 0.00636408 0.00176177 -0.00025729
N 4.83878769 26.84283289 5.78676499 0.00285607 0.00338614 0.00439663
N 2.41512282 24.75558100 8.50083347 -0.00116051 -0.00054830 -0.00273630
N 0.80925692 27.59635828 10.55781054 -0.00237589 -0.00281009 -0.00769883
N 3.33487562 30.03031309 13.19227507 0.00163803 0.00024924 0.00050408
N 4.82772275 26.98942582 10.39352806 -0.00424009 -0.00240721 0.00025219
N 2.25622193 24.56647324 13.43183603 -0.00386312 0.00273298 0.00332630
N 0.84744589 27.84020289 15.22022922 0.00610198 -0.00241390 0.00051367
N 3.33935537 0.10104136 18.21583730 -0.00370711 0.00473846 0.00058298
N 4.93406274 26.76651649 15.23577494 -0.00408569 0.00270348 0.00492233
N 2.17897579 24.68674754 17.79844841 -0.00692585 0.00130939 0.00794646
N 0.66006460 28.12355923 19.97875377 -0.00265071 -0.00262282 0.00276492
N 3.22223328 29.89023068 22.72939960 0.00099832 0.00265681 -0.00553015
N 4.80716654 26.96720494 19.86584324 0.00213965 0.00381245 0.00253139
N 1.97659080 24.50768747 22.69288976 -0.00443186 0.00067531 -0.00391610
N 6.61267922 3.95201400 1.02931145 0.00082818 0.00033019 -0.00458777
N 10.05059645 4.83846720 3.63463061 -0.00274733 -0.00004896 0.00259844
N 11.75748475 2.00985487 1.08429788 0.00345046 -0.00066348 -0.00036962
N 8.75366962 1.35165493 3.84398360 0.00250376 -0.00416500 -0.00129809
N 6.96019010 4.18008269 5.74965082 -0.00235910 0.01164672 -0.00229405
N 10.26490155 4.97214273 8.43307136 -0.00817758 -0.00262318 -0.00047743
N 11.88888080 1.90622597 5.87483777 0.00329771 -0.00136225 0.00234042
N 8.43134143 1.33255945 8.50165010 0.00131751 -0.00772337 0.00224661
N 6.90051846 4.17042178 10.71339256 -0.00309370 -0.00251088 -0.00691372
N 10.32491409 4.90578251 13.26239749 -0.00171079 -0.00238614 0.00362666
N 11.81099377 1.98934626 10.51962160 0.01130218 0.00661744 -0.00050441
N 8.58001438 1.29703013 13.20613419 0.00362992 -0.00184949 0.00494769
N 6.89541958 4.20731002 15.29574443 0.00377637 0.00314648 -0.00628793
N 10.35678678 4.85994334 17.94366565 -0.00039127 -0.00008093 0.00355424
N 11.84421089 1.81097486 15.48082930 0.00027331 0.00334246 0.00088940
N 8.35779832 1.13661177 17.93480876 0.00190650 -0.00254266 -0.00136742
N 7.10974209 3.87324859 20.08863859 0.00274975 -0.00069877 -0.00173813
N 10.10055193 4.87677299 22.65368288 -0.00705023 -0.00005199 0.00465396
N 11.64065013 2.09772688 19.90746926 -0.00150095 0.00309699 -0.00115909
N 8.49259262 1.38384180 22.79942278 -0.00297265 0.00186596 -0.00316078
N 7.36797458 9.48775028 0.97792081 0.00029541 0.00024436 -0.00157222
N 10.85706185 10.62720575 3.51911671 -0.00052783 -0.00061127 0.00520283
N 12.37115227 7.56121100 1.07120450 -0.00126343 -0.00204997 -0.00722905
N 8.79868081 6.82516975 3.62602131 -0.00080676 -0.00438809 -0.00614393
N 7.33628568 9.60393898 5.71504330 0.00162239 -0.00369769 -0.00725873
N 10.78299685 10.50328076 8.46354725 -0.00127027 0.00173354 0.00645316
N 12.39261945 7.63946716 5.63319157 0.00254229 -0.00034046 -0.00099369
N 8.98461445 6.78799390 8.63906907 0.00432201 -0.00415693 -0.00902681
N 7.34836942 9.47381756 10.32869020 -0.00018507 0.00330925 -0.00291462
N 10.91967433 10.34475235 13.10754078 0.00363022 -0.00225578 0.00803250
N 12.25938765 7.57114088 10.34631533 0.00387792 -0.00763568 0.00599419
N 9.03266833 6.82869155 13.41831731 -0.00101439 0.00159469 -0.00556612
N 7.23159189 9.57528964 15.13949019 -0.00391412 -0.00307124 0.00378352
N 10.56358510 10.48744596 17.79838791 -0.00092272 0.00143569 -0.00108193
N 12.14334192 7.27686886 15.25051251 -0.00585724 0.00251563 0.00446747
N 8.90123745 6.71621161 17.98120188 -0.00496414 -0.00196224 -0.00164239
N 7.15797850 9.64924999 19.78942500 -0.00107553 -0.00188242 0.00117404
N 10.68191908 10.41718294 22.43410742 0.00164054 -0.00331646 0.00011112
N 12.43503513 7.59432599 19.92748578 0.00306244 0.00803116 0.00276767
N 8.86561464 6.74383758 22.45344310 -0.00159472 -0.00107980 0.00316727
N 7.73799935 15.09318469 1.00483755 -0.00215479 0.00149545 -0.00364991
N 10.29345089 17.36808557 3.49056112 -0.00255911 -0.00069606 0.00317309
N 11.70879509 14.10127154 1.02967444 0.00709976 0.00050885 -0.00143435
N 9.16900686 12.13766927 3.79548767 -0.00444485 0.00227809 0.00638013
N 7.79995430 15.11476532 5.65261487 0.00437726 0.00290995 0.00567172
N 10.24931082 17.45232905 8.26587955 -0.00352930 0.00511758 -0.00127089
N 11.50551685 14.27490087 5.71574711 -0.00230836 -0.00450804 -0.00323443
N 9.19914969 12.16885221 8.41228209 -0.00348376 0.00361864 -0.00423960
N 7.45535377 15.36754968 10.45856818 -0.00006811 0.00305837 0.00409105
N 10.46873024 17.59129881 13.17731841 0.00456836 -0.00482211 -0.00498041
N 11.46654737 14.24301256 10.59903892 0.00819786 0.00324394 0.00596355
N 9.20860661 11.90026777 13.02400327 -0.00220457 0.00292553 0.00440844
N 7.68442450 15.15254018 15.20496130 -0.00265463 0.00344873 0.00191878
N 10.62712245 17.57457578 18.04030158 -0.00412716 0.00226885 -0.00102932
N 11.70119963 14.09448182 15.19252222 -0.00352008 0.00467260 -0.00671846
N 9.08680337 12.22728390 17.75619475 -0.00018582 -0.00549076 0.00148066
N 7.89516913 15.16701205 19.75559711 -0.00049823 0.00536089 0.00144207
N 10.26259721 17.53230135 22.67824306 -0.00348083 0.00133202 -0.00218302
N 11.66017982 14.05597068 19.90243014 0.00129058 0.00296729 0.00448856
N 9.30537129 12.23264844 22.60170086 0.00669260 -0.00534753 -0.00534475
N 6.98914390 21.80337564 1.17771733 0.00235846 0.00288224 0.00314145
N 9.36945553 23.94434795 3.79272927 -0.00023695 -0.00281788 0.00485327
N 10.83039516 20.76254640 1.00247141 0.00060949 0.00169083 -0.00734037
N 8.24912587 18.56882728 3.64856365 -0.00056149 -0.00330659 0.00087746
N 7.11763153 22.02664441 5.87050521 0.00043901 -0.00247015 0.00200654