2000
Time=6000.00000000 pbc="T T T" Lattice="31.06029268 0.00000000 0.00000000 0.00000000 29.84611618 0.00000000 0.00000000 0.00000000 23.67891380" energy=-12038.68249822 virial="-25.77371317 -39.02941828 -9.32302144 -39.02941828 -33.52831306 28.50938968 -9.32302144 28.50938968 -64.78969822" stress="0.00076194 -0.00183506 -0.00042262 -0.00183506 0.00048954 0.00129861 -0.00042262 0.00129861 0.00020934" Properties=species:S:1:pos:R:3:vel:R:3
C 30.26400346 3.41518851 1.83745245 -0.00183842 0.00378342 0.00196195
C 2.58152826 0.83403782 3.02565475 0.00078731 -0.00247727 0.00229136
C 30.40678131 3.61856821 6.55827883 0.00166356 0.00008677 -0.00359023
C 2.40546195 0.57486305 7.73664654 0.00051751 0.00121966 0.00100434
C 30.33062773 3.50958183 11.28563622 0.00356631 -0.00431457 -0.00097244
C 2.52214117 0.51278051 12.49838968 0.00311440 -0.00500439 -0.00218271
C 30.51341999 3.63880214 15.93212472 0.00150893 -0.00260081 -0.00423293
C 2.21647319 0.52468673 17.22501235 0.00440244 0.00291736 -0.00249113
C 30.10390668 3.58088613 20.62243059 0.00362465 -0.00308023 -0.00213186
C 2.69530606 0.67810069 22.09380179 0.00496304 0.00019843 0.00512408
C 30.74107594 9.34242254 1.76913770 -0.00649287 0.00025237 0.00010050
C 2.79423181 6.06657926 3.08777116 -0.00112069 -0.00008558 -0.00488520
C 30.70299538 9.32786433 6.44477306 -0.00574875 0.00155279 0.00095922
C 2.77759009 6.40566813 7.70375651 0.00535220 -0.00719251 0.00335743
C 31.02331841 9.07980502 11.24178524 -0.00282431 -0.00150835 -0.00411255
C 2.87367724 6.28804824 12.51329764 0.00337350 -0.00258424 0.00548101
C 0.00449663 9.25799006 15.87960003 0.00283282 0.00108168 -0.00594247
C 2.82689684 6.17401531 17.39208922 0.00003675 0.00121445 0.00371791
C 31.03002375 9.20668649 20.69041913 0.00491262 -0.00568621 -0.00042662
C 2.76527005 6.24437635 22.06874264 0.00242619 0.00054291 -0.00654060
C 0.16478722 14.70894005 1.67512051 -0.00267339 0.00882881 0.00011861
C 3.24669820 11.61142481 3.19796519 -0.00255383 -0.00072015 -0.00094028
C 0.14909532 14.66620722 6.39111683 0.00527752 0.00152813 -0.00645064
C 3.57225416 11.86903758 7.76214727 -0.00208413 0.00334271 -0.00119947
C 0.32731502 14.54172999 11.15911809 0.00113979 0.00716447 0.00609075
C 3.38717172 11.81756665 12.46615913 0.00345675 0.00275498 0.00120520
C 0.40099302 14.67820984 15.94999367 0.00094207 -0.00030453 -0.00552477
C 3.59109627 11.93025597 17.23312971 -0.00028711 0.00241357 -0.00430973
C 0.30777013 14.85226905 20.51617780 -0.00002118 -0.00137076 0.00136333
C 3.31301720 11.75691216 21.93900257 0.00140589 0.00285117 -0.00104337
C 0.80099833 20.25968706 1.66101543 0.00337036 -0.00211157 -0.00219218
C 3.63411557 17.22801161 2.89700542 -0.00207762 0.00317152 -0.00132156
C 0.49905879 20.30567571 6.33981731 0.00027613 0.00289509 -0.00046003
C 3.66303340 17.37519629 7.79088805 -0.00470303 -0.00189422 0.00205701
C 0.74075250 20.04507248 11.23115399 -0.00305402 -0.00327899 -0.00316794
C 3.61732290 17.36615976 12.42398790 0.00304902 0.00578533 0.00318510
C 0.62779914 20.06128141 15.99263800 -0.00164052 0.00054859 -0.00542249
C 3.68437299 17.40119003 17.15555484 0.00631068 -0.00288171 -0.00463245
C 0.69303127 20.40309945 20.73412082 0.00050779 0.00838282 0.00303508
C 3.84784277 17.33295012 21.93793102 0.00091155 -0.00292241 -0.00044742
C 31.02921168 26.78847339 1.80231506 -0.00870586 -0.00218359 -0.00242588
C 3.14231107 24.01180599 3.06286923 0.00111320 0.00038007 -0.00036867
C 0.00716065 26.80492491 6.52408632 0.00109738 -0.00541040 -0.00278393
C 3.01399264 23.70870402 7.70001564 -0.00279030 0.00303581 0.00117063
C 30.78491015 26.75915349 11.25919505 0.00076798 -0.00095801 -0.00021537
C 3.17750196 24.10130998 12.53190919 -0.00258460 0.00068775 -0.00225685
C 30.79720172 26.87726123 15.93901750 0.00775194 -0.00069259 0.00553968
C 2.94119085 23.78948229 17.31944099 0.00304377 0.00004550 0.00739274
C 30.92924594 26.83408438 20.74649617 0.00402519 -0.00070371 0.00379432
C 3.23504637 24.22300186 22.05885021 0.00026520 0.00433346 0.00034572
C 6.07865656 3.08431618 1.69934633 -0.00261802 -0.00323334 -0.00076024
C 9.31163928 0.19635656 3.03497946 -0.00140019 -0.00148314 0.00031828
C 6.00878467 3.26017361 6.40681111 0.00381275 0.00243401 -0.00229078
C 8.88774280 0.20416899 7.74129940 -0.00463979 -0.00271586 -0.00645770
C 5.85835623 3.21870616 11.09099512 -0.00265510 -0.00359324 0.00439377
C 8.96255637 0.18642973 12.48138610 0.00276114 0.00167054 -0.00005949
C 5.87196751 3.08275757 16.02431849 0.00388484 0.00704411 -0.00128621
C 9.07766008 0.19445694 17.31138326 0.00166387 0.00251394 0.00024006
C 6.08414206 3.27111625 20.71619802 -0.00162084 0.00027562 0.00425848
C 9.03813338 0.06699186 22.07188858 0.00022453 0.00243806 0.00070010
C 6.44548158 8.65931617 1.76340378 -0.00019763 0.00197264 0.00195460
C 9.55515440 5.69880949 2.94530185 -0.00181980 0.00931133 -0.00322700
C 6.36051312 8.76838388 6.53759520 0.00055879 0.00061672 -0.00138279
C 9.53139434 5.68597915 7.69340041 0.00253906 -0.00501983 0.00199694
C 6.31768970 8.74993426 11.32806612 -0.00074513 0.00084658 0.00197038
C 9.38301727 5.64586533 12.50919185 0.00470448 0.00167028 0.00148145
C 6.64189733 8.84203953 15.96752445 0.00179560 0.00248648 0.00580612
C 9.66551252 5.79543537 17.28985388 0.00328940 -0.00314562 0.00338616
C 6.41048825 8.87268518 20.77167329 -0.00588279 0.00158747 0.00593136
C 9.60261356 5.56374518 21.95151275 -0.00037716 0.00001314 0.00310277
C 6.87605299 14.28262128 1.64700561 -0.00411451 0.00044170 -0.00638732
C 10.01089011 11.16746019 3.00005152 0.00079903 -0.00289664 -0.00159940
C 7.04471290 14.23109659 6.41825766 -0.00342658 -0.00130763 0.00219049
C 9.82530853 11.16669498 7.74675650 0.00053121 -0.00247279 -0.00203876
C 7.00791950 14.24738350 11.24161523 0.00122266 0.00169460 -0.00003113
C 9.97109109 11.33199198 12.44244927 -0.00009384 -0.00212348 0.00208763
C 6.92353219 14.32796072 15.83786826 0.00465424 -0.00340216 -0.00097536
C 10.01500571 11.24232672 17.10528434 0.00227154 0.00456943 0.00199874
C 6.98337278 14.43245234 20.54535793 0.00275143 0.00035298 -0.00037041
C 9.60803814 11.34226565 21.94275915 0.00424549 -0.00040932 -0.00101866
C 6.19142670 20.84237538 1.77025266 -0.00041327 0.00496537 0.00151996
C 9.38532709 17.91582469 2.93366995 0.00381866 -0.00239643 -0.00233642
C 6.09836470 20.78049629 6.42315398 -0.00724092 -0.00010776 -0.00110077
C 8.99015487 17.88739572 7.53875789 0.00493981 -0.00234168 -0.00620603
C 6.36928496 21.11161105 11.15513081 -0.00621174 -0.00053746 0.00099266
C 9.47048074 17.81680564 12.35191880 0.00374472 0.00763688 0.00583305
C 6.25180982 21.09844139 15.95343314 0.00193477 0.00142130 -0.00039690
C 9.31304784 17.99657030 17.22967818 0.00818667 -0.00173871 -0.00160746
C 6.33107557 20.95676350 20.58993100 0.00635922 0.00544408 -0.00158597
C 9.35181361 17.77070689 21.85054208 -0.00259312 0.00156496 0.00036408
C 5.58329052 27.43573942 1.92261516 0.00710074 0.00132257 -0.00340458
C 8.82679764 24.43144387 2.94323460 0.00669201 -0.00867672 -0.00906518
C 5.47556047 27.54087016 6.66207590 0.00639724 -0.00107247 0.00445079
C 8.66719917 24.57263469 7.80701757 0.00061947 -0.00343724 0.00131118
C 5.51901651 27.47296919 11.17652382 -0.00167362 -0.00091534 -0.00326820
C 8.71033688 24.69585683 12.62064323 0.00077714 -0.00483034 0.00025160
C 5.45944902 27.44301783 16.08270319 0.00610626 -0.00085879 0.00662115
C 8.76682396 24.48770760 17.21524724 0.00401735 -0.00637271 -0.00115977
C 5.45586618 27.74586463 20.69316340 0.00027227 0.00190291 0.00358467
C 8.85850853 24.48728724 21.87964082 -0.00115292 0.00491532 -0.00101053
C 12.73094520 3.01164611 1.78265462 0.00525684 0.00221855 0.00365104
C 15.77013601 29.78730540 2.89652493 0.00175836 -0.00324672 -0.00122220
C 12.61453883 2.67617627 6.48986527 0.00086065 0.00036088 -0.00198525
C 15.61693250 0.02967823 7.67090258 -0.00218764 0.00354145 0.00373200
C 12.65477114 2.60220975 11.15507904 0.00032260 0.00023155 0.00159842
C 15.68520325 29.48328100 12.34725171 -0.00381175 0.00393859 -0.00052118
C 12.63008037 2.70550730 15.87612565 0.00095133 0.00052062 0.00022058
C 15.84788097 29.60747452 17.26736857 -0.00340102 0.00339081 0.00415221
C 12.87955290 2.63826732 20.71055355 0.00333284 -0.00041947 -0.00273172
C 15.98900023 29.63265191 22.10442717 -0.00311913 -0.00177922 -0.00048046
C 13.13165845 8.28457873 1.80383369 -0.00443386 -0.00075919 -0.00282951
C 16.05434558 5.34642894 3.09569554 0.00173847 -0.00301956 0.00105343
C 13.09562476 8.35532789 6.49757473 0.00111461 0.00525270 -0.00603066
C 16.06951515 5.59315083 7.81730827 -0.00399040 0.00002292 -0.00233767
C 13.09517699 8.36257269 11.22909944 -0.00323895 0.00589928 -0.00238257
C 16.35506128 5.32121761 12.43445671 -0.01094329 0.00479811 -0.00206395
C 13.15762622 8.26188867 16.02492227 -0.00003933 -0.00163137 0.00553820
C 16.23064555 5.39480868 17.26899062 -0.00271916 0.00601909 -0.00263990
C 13.09006396 8.20222534 20.68733285 -0.00065724 0.00366750 -0.00106695
C 16.04452941 5.38121566 21.91242046 0.00491023 0.00483161 0.00320874
C 12.30554425 15.01681822 1.68975575 0.00488988 -0.00145373 0.00713055
C 15.59771014 11.97581221 2.92699650 -0.00004482 0.00530140 -0.00396548
C 12.21257329 14.87873513 6.49259568 -0.00208375 -0.00339794 0.00239531
C 15.51905819 11.93226134 7.74198673 0.00429209 0.00720057 -0.00105259
C 12.31978078 14.99314947 11.22875858 -0.00044741 -0.00035114 -0.00724483
C 15.63902033 12.09329799 12.46439551 -0.00296413 0.00540657 0.00432595
C 12.40633412 14.99704160 15.94994751 -0.00410074 0.00399875 -0.00164566
C 15.37330718 11.95801317 17.25233744 0.00218745 -0.00260516 -0.00473407
C 12.21437745 14.94035767 20.65871780 0.00769229 -0.00080414 0.00223686
C 15.34703411 11.95766078 21.95944306 -0.00172277 0.00793181 0.00163143
C 11.66866372 21.45495985 1.64558746 0.00033592 -0.00208528 0.00031750
C 14.67819073 18.49213449 2.91696558 0.00346517 0.00130998 -0.00616439
C 11.82061995 21.64718829 6.44274051 0.00229367 -0.00222291 0.00286334
C 14.86886339 18.34358766 7.72257343 -0.00364103 0.00284518 -0.00338928
C 11.73881703 21.56682428 11.11058598 -0.00147594 -0.00579073 0.00070431
C 14.87397911 18.39580691 12.50109981 0.00204551 -0.00048313 0.00923502
C 11.70948880 21.33405445 15.74609678 0.00439348 -0.00206498 -0.00659883
C 14.92846538 18.47172225 17.27367798 -0.00776692 0.00016004 0.00223897
C 11.68316152 21.54332545 20.73058637 0.00252221 0.00082772 0.00267214
C 14.92158148 18.72914233 21.75810550 -0.00403574 0.00527715 -0.00453123
C 12.42942985 27.13134819 1.86043954 -0.00132937 0.00155277 -0.01136507
C 15.40286152 24.22554304 2.99724380 0.00250192 -0.00118484 -0.00686924
C 11.94900298 27.06535410 6.54566472 0.00326513 0.00155724 -0.00310388
C 15.26621473 23.99690973 7.73517148 -0.00156914 -0.00043064 0.01053960
C 12.47575433 26.96236427 11.16743590 0.00127369 0.00604390 -0.00434033
C 15.32017032 23.99550832 12.54580311 0.00048522 0.00406618 -0.00566325
C 12.39335032 27.17634720 16.00460249 -0.00626748 0.00074890 -0.00587429
C 15.32780658 24.05882251 17.24011667 -0.00013390 0.00295251 0.00159782
C 12.32206498 27.13049961 20.66710150 0.00086700 -0.00119693 0.00286338
C 15.29801288 24.18609472 22.01932880 0.00548656 -0.00451127 -0.00156182
C 19.38724301 2.41217531 1.63361156 0.00343234 0.00506931 0.00009257
C 22.53643026 29.25934339 2.90365461 0.00310147 -0.00057860 0.00482421
C 19.46496089 2.31043996 6.33585520 -0.00421340 -0.00622338 -0.00220147
C 22.42972141 29.22335582 7.70763844 -0.00719146 0.00235133 0.00437287
C 19.37047859 2.31852983 11.10437476 0.00124913 -0.00301331 0.00272156
C 22.51300473 29.11539310 12.54868815 -0.00443027 -0.00208140 0.00260668
C 19.30409276 2.34001891 15.92897829 0.00239812 -0.00034423 -0.00145002
C 22.48090338 29.08881597 17.32148026 -0.00346552 0.00763422 -0.00517149
C 19.35260868 2.32447755 20.57397386 -0.00156074 0.00160555 0.00087471
C 22.32066993 29.18540071 21.87018389 -0.00621329 0.00035123 0.00673299
C 18.75065325 9.05182626 1.66961645 -0.00020498 -0.00043841 0.00557698
C 21.86681903 6.00225919 3.05962909 -0.00435719 -0.00318239 0.00375118
C 18.63472729 8.97772924 6.25298363 -0.00361149 -0.00610685 0.00233373
C 21.88669797 5.92690247 7.70858879 0.00026079 -0.00626743 -0.00567457
C 18.70727946 8.88956946 11.12730959 0.00005254 -0.00136365 0.00286726
C 22.06795234 6.02104743 12.38175055 -0.00524366 0.00045551 -0.00342622
C 18.73191274 8.92669657 15.78960893 -0.00016798 -0.00575624 -0.00854468
C 21.72912745 5.97064762 17.13786952 -0.00073013 -0.00226265 -0.00122859
C 18.65502610 9.04501172 20.52494865 -0.00190558 0.00659189 -0.00431448
C 21.74230763 5.94882051 21.85637160 -0.00115006 -0.00121995 -0.00037583
C 17.74816157 15.60082421 1.67303032 0.00548473 -0.00162181 0.00326464
C 21.01783189 12.74003444 2.84271376 0.00027295 -0.00355637 0.00493255
C 17.81288446 15.54703564 6.39523652 0.00868441 0.00383438 -0.00709086
C 21.14518959 12.61424097 7.62505116 0.00355402 0.00514263 0.00321211
C 17.98542061 15.34742739 10.90440226 0.00353741 -0.00451846 -0.00122001
C 21.10464748 12.39447013 12.39153829 -0.00347293 -0.00270325 -0.00614811
C 17.99246179 15.45830508 15.71306421 -0.00424229 0.00056337 0.00057345
C 21.09226416 12.45966603 17.14985850 0.00035843 -0.00038586 0.00290820
C 17.90166951 15.47447813 20.56551881 0.00152144 -0.00315684 0.00138195
C 21.00864915 12.62219807 21.83858855 0.00414970 -0.00624178 -0.00149108
C 18.30076657 21.23892840 1.63675276 -0.00731480 -0.00624659 0.00369993
C 21.38235162 18.38802164 3.00201375 -0.00063248 -0.00077859 0.00361472
C 18.20197746 21.18696021 6.40185514 -0.00299897 -0.00477971 -0.00215669
C 21.32226660 17.95419041 7.61902935 -0.00330273 -0.00573699 0.00324398
C 18.60098914 20.95537954 10.99190368 0.00551991 -0.00065956 -0.00149005
C 21.44833044 17.99604870 12.53471524 -0.00652828 -0.00111365 0.00549657
C 18.54287468 21.00352417 15.83313034 -0.00107585 -0.00570709 -0.00257196
C 21.35684835 17.97522751 17.19100788 -0.00302090 -0.00039714 0.00248307
C 18.39180562 21.28953652 20.56916863 0.00198645 -0.00202892 0.00235511
C 21.53846099 18.17445243 21.85147267 -0.00158648 0.00577367 0.00082650
C 19.01982617 26.60795125 1.82272369 -0.00180372 0.00222058 -0.00263478
C 21.91964113 23.62201374 3.09270539 -0.00354724 0.00217681 -0.00826447
C 18.95127270 26.60526869 6.45177022 0.00176759 -0.00235494 0.00123807
C 22.22886911 23.81031455 7.83791504 -0.00062248 -0.00180021 -0.00000351
C 18.85114422 26.63026877 10.98474202 0.00454539 0.00113089 0.00341479
C 21.83996423 23.63673881 12.59223400 -0.00521998 -0.00305966 0.00192008
C 18.72658625 26.50327224 15.89093057 0.00045075 0.00243677 -0.00044831
C 21.89279014 23.78692956 17.26653033 -0.00066034 0.00058065 -0.00183713
C 18.86148212 26.71575591 20.70821399 -0.00361120 -0.00426509 0.00093072
C 22.15462043 23.57998264 22.08850506 0.00231564 -0.00124564 -0.00262415
C 25.05737183 3.11043055 1.76786541 0.00708524 -0.00416093 -0.00568611
C 27.93631059 0.07281619 3.06207787 0.00328732 0.00812440 -0.00035804
C 25.00980720 2.88624703 6.52758335 0.00973233 0.00544001 -0.00523646
C 27.92905014 29.63320757 7.84031338 -0.00325909 0.00295714 0.00182237
C 25.04789046 2.96982500 11.30733961 0.00267938 0.00050424 -0.00145717
C 27.97996329 29.75195478 12.51877509 0.00659934 -0.00499558 -0.00253757
C 25.04084424 2.92282681 15.94589760 0.00120991 0.00191113 -0.00490110
C 27.87671773 29.62856791 17.20155702 -0.00573390 0.00304768 0.00391153
C 24.72344104 3.10793378 20.55737071 -0.00071452 0.00490224 0.00077617
C 27.69765273 29.73971205 22.01661959 -0.00179240 0.00609924 0.00069894
C 24.03540058 9.66606090 1.69889918 0.00688002 -0.00206830 0.00095354
C 27.34431183 6.91169413 2.96447567 0.00546594 0.00003774 -0.00597412
C 24.13392857 9.54393312 6.47455548 -0.00265129 -0.00524609 0.00111738
C 27.36282819 6.49647728 7.75262825 -0.00050214 -0.00553264 0.00443783
C 24.28335068 9.57630869 11.17020747 0.00036514 -0.00433936 -0.00382522
C 27.31658385 6.52860150 12.52899381 0.00078011 0.00479281 0.00608774
C 24.24224628 9.54662865 15.97638540 0.00304601 -0.00647159 -0.00249188
C 27.43520935 6.69775523 17.17701235 0.00708072 -0.00099608 -0.00251140
C 24.27572327 9.81036519 20.71995333 -0.00169606 -0.00511955 -0.00591823
C 27.25214134 6.87179626 21.89162148 -0.00394098 0.00190431 0.00077859
C 24.65605936 15.34506153 1.80211342 0.00230743 -0.00501217 -0.00054543
C 27.70305571 12.30727857 3.04141778 -0.00194837 0.00713718 0.00078547
C 24.45457525 15.08505380 6.58497836 0.00457267 -0.00106683 -0.00262488
C 27.86801720 12.22517188 7.70198726 0.00429487 0.00069381 -0.00655495
C 24.55242488 15.19074638 11.30613046 -0.00011745 0.00017392 -0.00441092
C 27.45832490 12.10352955 12.49223697 -0.00214785 0.00176396 -0.00256421
C 24.53478741 15.00285665 16.12171343 0.00200102 -0.00714165 -0.00238267
C 27.74056559 12.34321064 17.26869879 -0.00348201 -0.00152150 0.00574697
C 24.61246067 15.18440354 20.68078894 0.00132356 0.01080165 -0.00514358
C 27.78053544 12.07988648 22.09132836 -0.00324519 0.00193277 -0.00248749
C 25.09339887 20.57752994 1.78022422 -0.00521204 -0.00061997 -0.00028343
C 28.19971784 17.92731081 2.99059695 -0.00234148 0.00495589 -0.00462115
C 25.09453087 20.60365105 6.47556445 -0.00485563 0.00344526 0.01224374
C 27.98161053 17.58743879 7.73442928 -0.00040455 -0.00120379 -0.00259602
C 24.95848227 20.64121978 11.24811968 -0.00063710 -0.00350712 0.00070913
C 28.28119801 17.69798354 12.49492308 -0.00433187 -0.00314622 0.00459199
C 24.95316955 20.64996911 16.00193451 0.00601806 0.00029348 -0.00017120
C 28.27678213 17.70078399 17.31847997 -0.00393575 0.00994831 0.00280812
C 24.95656701 20.60757602 20.71139041 -0.00241262 0.00470964 -0.00275693
C 28.03272068 17.89845011 22.08429110 0.00389131 0.00068480 -0.00165828
C 25.54444496 26.06785924 1.80548375 -0.00081872 -0.00235784 0.00399694
C 28.47453945 23.33715742 3.12974925 -0.00137713 0.00106081 -0.00687255
C 25.36947478 26.12068011 6.63901168 -0.00441711 0.00312200 0.00042532
C 28.53014270 23.22361512 7.74964694 -0.00422286 -0.00241213 0.00092679
C 25.50984515 26.21081198 11.29620406 -0.00494839 -0.00670056 0.00187266
C 28.56483422 22.99552147 12.48826841 -0.00324252 0.00066812 0.00143196
C 25.49368920 25.99297512 15.91713866 0.00071695 -0.00460333 -0.00323572
C 28.63109747 23.10349728 17.29293148 -0.00010674 0.00223436 -0.00204849
C 25.41814045 25.98206734 20.79485747 -0.00416847 0.00430525 -0.00520198
C 28.66472274 23.11565419 22.02826221 -0.00150065 -0.00562839 -0.00104548
N 30.87891827 4.48578476 1.23838654 0.00071323 0.00155203 -0.00022042
N 3.39492354 5.05850560 3.82343758 0.00264514 -0.00432193 -0.00139102
N 5.18608473 2.31763911 0.92594277 -0.00086793 0.00146223 -0.00036373
N 1.57668882 1.39539808 3.78880679 -0.00151697 -0.00092045 -0.00259174
N 0.08184697 4.40766055 5.71302683 0.00280471 -0.00182100 -0.00185048
N 3.44582144 5.34348371 8.32495225 0.00143813 -0.00129191 -0.00030597
N 5.25205863 2.31952706 5.67064908 0.00255544 0.00651106 -0.00279530
N 1.77420892 1.45731945 8.54889747 0.00167515 -0.00018240 -0.00291922
N 0.08390464 4.31475243 10.61317469 0.00200856 -0.00355613 0.00029861
N 3.48159429 5.31851046 13.23359275 -0.00664375 -0.00218474 -0.00443369
N 4.95531068 2.44232991 10.38844897 -0.00335021 -0.00120600 0.00169495
N 1.66399439 1.21865750 13.26728997 -0.00173801 -0.00335004 -0.00406665
N 0.16188157 4.55792679 15.33014742 -0.00436090 -0.00390967 -0.00640069
N 3.45322788 5.10600082 18.01758104 0.00248236 -0.00286924 0.00313584
N 5.04485299 2.32370684 15.25380531 -0.00061098 0.00117396 0.00078261
N 1.52743412 1.42396821 17.90725162 0.00191481 -0.00051762 0.00214380
N 31.03334233 4.27101974 19.93904494 -0.00070462 0.00158216 -0.00328261
N 3.37362002 5.21933103 22.68577780 0.00043546 0.00290256 0.00253435
N 5.15537697 2.51936637 19.97502112 0.00307455 -0.00105019 -0.00281077
N 1.68723014 1.27933808 22.80004258 -0.00308792 -0.00171252 -0.00065645
N 0.65698850 10.10214763 1.16519692 0.00155822 -0.00106631 0.00111576
N 3.89194784 10.66159629 3.93169560 0.00020804 0.00256847 0.00739200
N 5.53968394 7.91488548 1.14106905 0.00095901 -0.00485920 0.00210497
N 2.08053538 6.99659762 3.73535999 -0.00350453 0.00024150 -0.00132961
N 0.44446058 10.11307086 5.68829124 0.00605091 -0.00003312 -0.00064114
N 4.17698009 10.91777956 8.48881727 -0.00011720 -0.00531575 -0.00127234
N 5.69978337 7.82453792 5.86902831 -0.00033894 -0.00535956 0.00589136
N 2.01979390 7.14717439 8.55280450 -0.00227826 -0.00216603 -0.00506449
N 0.87611713 9.93717670 10.60192263 -0.00321409 -0.00666437 0.00611483
N 4.10593267 10.85821307 13.16832866 -0.00277530 -0.00357700 0.00006981
N 5.34484106 7.93906949 10.70768696 -0.00000910 -0.00159291 0.00012878
N 2.30771270 7.26847945 13.28012980 0.00164287 0.00649804 -0.00043056
N 0.45662492 10.24079458 15.07336094 -0.00298303 -0.00052991 0.00543977
N 4.11339538 10.96386933 18.06969477 -0.00273385 -0.00055924 -0.00175771
N 5.76042866 8.01826156 15.34803221 -0.00477686 -0.00039948 0.00694011
N 2.24528953 7.14617523 18.18583742 -0.00755656 0.00345384 0.00089543
N 0.77153002 10.01265552 19.92379023 0.00351837 0.00318601 -0.00323750
N 3.86770176 10.79792685 22.74513939 -0.00210778 0.00081206 -0.00293182
N 5.66723482 7.97122456 20.00227311 0.00459976 0.00306464 -0.00526443
N 2.25631634 7.21585692 22.88728972 0.00126359 0.00441869 0.00307511
N 0.82699067 15.55668846 0.83422113 -0.00048438 -0.00548326 -0.00757284
N 4.51755925 16.45835447 3.60476441 -0.00172741 0.00097183 0.00201619
N 6.16047058 13.36248471 0.98037666 -0.00016576 0.00010344 0.00073118
N 2.78796385 12.63679336 3.87518350 0.00270029 -0.00289552 0.00343180
N 0.92328297 15.49419155 5.65057636 -0.00055925 0.00041469 -0.00201836
N 4.52315828 16.50973620 8.42257668 0.00095382 -0.00074865 0.00006685
N 6.18947165 13.46272733 5.73462864 0.00402320 0.00320440 -0.00272356
N 2.92133461 12.80391465 8.55421514 -0.00014663 -0.00338875 0.00130644
N 1.09743193 15.34939807 10.38800655 -0.00153242 0.00281774 -0.00326983
N 4.44860666 16.51997331 13.13191887 0.00119151 0.00145593 -0.00190555
N 6.12001456 13.49146751 10.54193415 0.00473503 0.00065513 0.00744831
N 2.87076576 12.79635667 13.21959028 -0.00059838 0.00069423 -0.00526267
N 1.31008726 15.40956817 15.22044402 -0.00441951 0.00380919 0.00405456
N 4.55750418 16.53474312 17.72896017 -0.00274168 -0.00093529 -0.00190083
N 6.11686791 13.51708747 15.15541016 -0.00351971 -0.00491723 -0.00218867
N 2.74633111 12.77296678 17.83712872 0.00424417 0.00344269 -0.00202776
N 0.98806796 15.68315285 19.74379871 -0.00473166 -0.00170080 -0.00039394
N 4.64978145 16.61611615 22.71208392 0.00560374 -0.00308666 0.00070014
N 6.23604063 13.47919962 19.91642364 -0.00130264 0.00150246 0.00322196
N 2.63209970 12.71594248 22.59148129 0.00093963 0.00388382 -0.00007289
N 1.52052394 21.25979563 1.04687107 -0.00074644 0.00395498 -0.00334991
N 4.19039057 23.52728048 3.80147928 0.00724328 -0.00124251 -0.00384164
N 5.37675158 20.06346444 1.00785846 0.00107610 0.00347062 -0.00299920
N 2.73039746 17.87268213 3.67161482 0.00443613 -0.00608824 0.00040902
N 1.36634932 21.12225765 5.66236345 0.00224425 0.00269136 -0.00228539
N 4.04771531 23.12802785 8.40349779 -0.00437388 0.00232543 -0.00058622
N 5.27610248 20.00119834 5.68144133 -0.00294362 0.00005836 -0.00014065
N 2.92995066 18.20103479 8.54112053 0.00105277 0.00031336 0.00254461
N 1.53377377 20.79171467 10.46280904 0.00268997 0.00398371 -0.00125575
N 4.09853327 23.51590410 13.31734271 0.00386125 0.00509827 -0.00444496
N 5.37593924 20.51641892 10.40414596 -0.00288251 0.00232256 -0.00740329
N 2.88060194 18.22033705 13.20981896 -0.00068991 0.00498408 -0.00188021
N 1.41572812 20.81814544 15.21673011 0.00472947 0.00034747 -0.00531848
N 3.92903129 23.34073156 18.17371557 0.01122386 -0.00272974 -0.00269922
N 5.66543372 20.14518041 15.20918074 0.00582753 0.00529666 0.00146255
N 3.07125670 18.19659125 18.02492905 0.00050368 0.00025132 0.00391590
N 1.40870385 21.23511702 19.93064717 0.00055705 -0.00011193 -0.00251923
N 4.30630861 23.64377862 22.57116449 -0.00549137 0.00328549 -0.00751331
N 5.44542654 20.25812543 19.85569579 0.00075712 0.00773689 0.00242708
N 2.92531564 18.11564361 22.63251155 -0.00008137 0.00445949 0.00762298
N 0.75801700 27.61226827 1.07085903 -0.00355467 -0.00095458 -0.00261239
N 3.39860779 0.01264664 3.73428732 -0.00153290 -0.00423731 -0.00083292
N 4.75304722 26.65470128 1.11257682 -0.00330799 0.00493274 0.00240225
N 2.17806760 24.55832888 3.79455937 -0.00193408 0.00199288 0.00023077
N 0.73330820 27.67230282 5.78699582 0.00131782 0.00009002 0.00735539
N 3.15802932 29.50721805 8.38365802 -0.00309483 -0.00219581 0.00367015
N 4.64171329 26.66400293 5.95980957 -0.00113901 -0.00210356 0.00298793
N 2.06118135 24.33566266 8.38308336 0.00298718 0.00058741 -0.01101156
N 0.59970885 27.63501587 10.58554469 0.00010173 0.00853138 0.00693069
N 3.37063781 29.60482216 13.25856743 0.00476874 -0.00190663 -0.00477186
N 4.73468864 26.72111915 10.40139233 0.00194782 0.00215364 0.00459777
N 2.00508575 24.56503074 13.15970979 0.00587752 -0.00463233 0.00446042
N 0.44250217 27.76364240 15.18055374 -0.00195619 -0.00184698 -0.00306524
N 2.95594711 29.49681616 17.94285240 -0.00091416 0.00212912 0.00425828
N 4.62422043 26.70118276 15.30059326 -0.00347552 0.00096032 0.00046486
N 1.89508107 24.42241417 17.99862817 0.00331113 0.00285236 -0.00067713
N 0.62112567 27.56174653 19.89278872 -0.00697917 -0.00276345 -0.00203086
N 3.45064731 29.66170858 22.79822141 0.00068280 -0.00493654 -0.00262491
N 4.55206505 26.95203729 19.98078304 -0.00195495 -0.00281116 0.00456394
N 2.24983691 24.69331679 22.95701344 0.00201793 -0.00138800 0.00148922
N 6.87037957 3.84368371 0.86211131 0.00312265 -0.00310371 -0.00302862
N 10.10216473 4.74426286 3.74526128 -0.00393138 -0.00537759 -0.00180048
N 12.06085379 2.12876601 1.03918986 -0.00872571 -0.00119134 0.00223322
N 8.36618478 0.92943988 3.67682214 -0.00344663 0.00046070 -0.00098126
N 6.91513570 3.98359953 5.71412913 -0.00151825 -0.00100694 -0.00335845
N 10.11225165 4.76900682 8.60999300 -0.00340727 0.00163002 -0.00499920
N 11.72906859 1.84869819 5.89917526 0.00154339 0.00331042 -0.00018974
N 8.66427346 1.20610368 8.60445456 0.00213507 -0.00003235 -0.00245335
N 6.59812007 4.06848040 10.36601976 0.00616925 0.00363751 -0.00346347
N 9.98729540 4.66992970 13.22078087 -0.00209372 0.00349723 -0.00197285
N 11.88927179 1.87337392 10.31437221 -0.00260795 0.00055478 0.00231646
N 8.26948316 1.12229945 13.16367360 0.00072005 -0.00366395 -0.00946201
N 6.59638830 3.93277654 15.25421931 0.00557884 0.00574782 0.00056238
N 10.18491497 4.77796915 17.94260418 0.00233187 -0.00155829 -0.00121561
N 11.80420739 1.81736520 15.25417576 0.00173401 -0.00085189 -0.00008151
N 8.57580837 1.26295249 17.95868193 0.00417808 0.00000831 -0.00439363
N 6.81187945 4.13552583 19.94003202 0.00355465 0.00073821 0.00966845
N 10.07091590 4.67728050 22.82531427 -0.00223931 -0.00381053 0.00286089
N 11.91569597 1.92544456 20.05717571 -0.00434680 0.00523405 -0.00217505
N 8.57313215 1.21954010 22.60534659 0.00236593 -0.00289763 -0.00326849
N 7.24167808 9.41577166 1.00470045 0.00309340 -0.00545015 0.00304588
N 10.90566107 10.41833473 3.74603822 0.00135601 0.00690557 0.00215250
N 12.28531508 7.60592423 0.94966335 0.00625811 0.00046226 0.00390443
N 8.81074686 6.64552624 3.59073079 0.00471818 -0.00182979 0.00623897
N 7.07595166 9.62879527 5.77139633 -0.00072328 0.00090860 -0.00126245
N 10.78052102 10.53265781 8.50949058 0.00563038 -0.00013605 -0.00126959
N 12.17004683 7.49845072 5.87435753 0.00460260 0.00033164 0.00197978
N 8.92648345 6.76115892 8.23386019 0.00332281 0.00557741 -0.00530058
N 7.09928510 9.37079779 10.47030549 0.00359050 0.00079587 -0.00478097
N 10.82102114 10.50772344 13.18434424 -0.00105030 -0.00054486 0.00169898
N 12.38141101 7.45590488 10.46989425 -0.00250127 0.00193685 0.00284230
N 8.90826583 6.69260453 13.15503553 0.00313063 -0.00212348 0.00026819
N 7.35276459 9.59321325 15.10944653 -0.00334272 0.00402707 -0.00342871
N 10.90299045 10.60161534 17.92541093 -0.00372080 0.00149359 0.00552006
N 12.33645128 7.52053662 15.24596722 -0.00176276 -0.00252176 -0.00460951
N 8.97500906 6.77083229 17.93793272 0.00204232 0.00145233 0.00047450
N 7.13652463 9.72355517 20.04716369 -0.00317324 0.00678743 -0.00528606
N 10.41486423 10.43556440 22.57818980 -0.00032037 0.00217021 0.00219658
N 12.34465839 7.32594989 19.95862982 -0.00162107 -0.00450191 -0.00258793
N 8.73318092 6.47066123 22.46478710 -0.00244827 0.00737280 -0.00239659
N 7.68064595 15.01538239 0.84859912 0.00163069 -0.00119920 0.00058800
N 10.31330668 17.24833526 3.63093621 0.00040626 0.00574464 0.00266993
N 11.33568415 14.36638069 1.02235762 -0.00080052 0.00012118 -0.00910028
N 9.09314635 11.91713379 3.65196190 -0.00515484 0.00356456 -0.00569909
N 7.64003052 15.24471885 5.69160274 0.00053864 -0.00406371 -0.00557021
N 10.02733897 17.38018025 8.27396764 0.00172588 -0.00343374 0.00455684
N 11.50230637 13.96449777 5.77867028 0.00175882 -0.00071119 0.00040815
N 8.96685224 11.89510650 8.45554319 -0.00339668 0.00356541 0.00120403
N 7.73499159 15.09503506 10.50855750 0.00007637 -0.00001056 0.00139763
N 10.48295941 17.35004116 13.07856720 0.00158444 -0.00484299 0.00047616
N 11.56337522 14.25059168 10.42743584 0.00165222 0.00026829 -0.00172664
N 9.19253378 12.14831431 13.14065978 0.00355533 -0.00059887 -0.00233787
N 7.72502230 15.11807131 15.09579305 0.00186158 -0.00346831 -0.00017971
N 10.29315990 17.33052592 17.89062734 0.00329309 -0.00134173 -0.00579188
N 11.61936173 14.09942647 15.37912264 0.00154073 -0.00678843 0.00022423
N 9.18414774 12.11542835 17.71969356 -0.00138544 -0.00187823 0.00106726
N 7.75283042 15.11647711 19.69569029 0.00461188 0.00301814 -0.00079871
N 10.30573543 17.23442624 22.71299441 -0.00186888 -0.00268762 -0.00012337
N 11.52610724 14.12899767 19.90343540 -0.00247592 -0.00222986 -0.00061786
N 8.93680852 12.17711551 22.83555149 -0.00012641 -0.00339986 -0.00154476
N 6.97734105 21.71228747 1.05787634 -0.00301015 -0.00220955 0.00204796
N 9.76356484 23.58644836 3.57182771 0.00349010 0.00114418 -0.00166773
N 10.87148632 20.63602048 0.94459123 0.00174632 -0.00033661 0.00195440
N 8.31201326 18.48601983 3.60945200 0.00264352 -0.00682973 0.00213925