2000
Time=11000.00000000 pbc="T T T" Lattice="30.90933732 0.00000000 0.00000000 0.00000000 30.06812018 0.00000000 0.00000000 0.00000000 23.69333801" energy=-12041.04852843 virial="-24.38384777 3.03847939 11.08669470 3.03847939 -18.95308702 26.00153474 11.08669470 26.00153474 21.42166984" stress="0.00090166 0.00013215 0.00048184 0.00013215 0.00113891 0.00113397 0.00048184 0.00113397 0.00405923" Properties=species:S:1:pos:R:3:vel:R:3
C 30.48399558 3.60480672 1.75849338 -0.00494468 0.00161352 0.00055152
C 2.59740124 0.45031796 2.98076306 -0.00323569 0.00057564 0.00070948
C 30.16694711 3.60765006 6.36468153 -0.00038363 -0.00279203 0.00049859
C 2.37468848 0.51574740 7.68844050 -0.00084477 -0.00294940 0.00279523
C 30.21869356 3.65693726 11.11938987 0.00230346 0.00106357 -0.00359927
C 2.38223130 0.48374537 12.54753477 0.00605276 0.00492705 0.00479613
C 30.28277413 3.64286826 16.01474187 -0.00011726 -0.00421755 -0.00081249
C 2.36188947 0.54553628 17.13041177 0.00074174 -0.00206638 -0.00250896
C 30.52739573 3.69783576 20.73596754 0.00335805 -0.00562799 0.00519747
C 2.45004753 0.44651728 21.90862206 0.00154757 -0.00458424 -0.00116204
C 30.54343909 9.31061009 1.85145973 0.00806143 0.00132361 -0.00519538
C 2.81783858 6.15737797 2.99799020 -0.00117213 0.00228056 -0.00375999
C 30.89601935 9.08802895 6.63592149 -0.00572120 -0.00344898 -0.00549434
C 2.98879826 5.88925976 7.71173221 -0.00431171 -0.00708426 -0.00540786
C 30.71218643 9.32671713 11.28536689 0.00735553 -0.00608232 -0.00538006
C 2.98301734 6.34477307 12.66734300 -0.00619976 -0.00793210 0.00138563
C 30.54397694 9.41655998 16.05280759 0.00297523 -0.00282245 -0.00071427
C 2.85225016 6.05892016 17.31922936 -0.00550132 -0.00179775 0.00463968
C 0.03577543 9.20289323 20.78170055 0.00756180 -0.00736409 -0.00134990
C 3.09845435 6.37663672 22.07346797 -0.00250082 0.00315369 0.00042325
C 0.11868036 14.61469248 2.00008265 -0.00064707 -0.00096994 -0.00475328
C 3.19148309 11.82510846 3.06763302 -0.00472271 -0.00281447 -0.00064404
C 0.37592411 14.75048040 6.59388774 0.00498625 -0.00187895 -0.00447864
C 3.27970566 11.78761133 7.90749461 0.00543598 0.00376930 -0.00829770
C 0.28640188 14.86355081 11.20172262 0.00161479 0.00265721 0.00286720
C 3.13816043 11.87602474 12.54168361 0.00162020 -0.00555646 -0.00215785
C 0.35185125 14.95362108 16.07107661 0.00229649 -0.00036688 0.00157853
C 3.37431600 12.04761234 17.32076577 0.00503905 -0.00197700 0.00343012
C 0.28553909 14.89098918 20.74849578 0.00062481 -0.00177926 -0.00157195
C 3.10665709 11.87741270 22.03595150 0.00119742 0.00002301 0.00562424
C 0.43116940 20.43366855 1.71914436 -0.00253309 -0.00349318 0.00238897
C 3.51240859 17.55985345 3.08643598 -0.00063687 0.00084020 0.00350478
C 0.67885716 20.49289138 6.50894552 0.00241957 0.00817646 -0.00111946
C 3.80715994 17.48063238 7.65931939 -0.00351859 -0.00262879 -0.00284288
C 0.64336583 20.47320768 11.20799028 0.00202148 0.01159998 -0.00121631
C 3.71752587 17.56649088 12.47857429 -0.00289786 -0.00019439 -0.00426789
C 0.67400380 20.48142113 16.07835300 0.00143623 -0.00603741 -0.00153992
C 3.66558604 17.47957887 17.30072085 -0.00295195 -0.00364670 0.00515340
C 0.64092711 20.58607448 20.65039843 -0.00610938 0.00211063 0.00049014
C 3.39531497 17.46139490 22.15931851 0.00053725 -0.00037960 0.00385502
C 30.86740626 27.18889734 1.75147153 0.00326483 -0.00727751 -0.00265071
C 2.96731311 24.20539448 3.01618916 0.00180638 -0.00390960 0.00187808
C 30.70382742 27.07172020 6.48221658 0.00143651 -0.00486836 0.00023234
C 2.93443665 23.91877107 7.89161985 0.00297997 -0.00456299 -0.00500889
C 30.61630882 26.98546915 11.08173305 -0.00285967 0.00395213 0.00119165
C 2.90525711 24.07346577 12.59417414 0.00049922 -0.00918693 -0.00367465
C 30.84816014 27.03372089 15.80358007 -0.00119048 0.00041443 -0.00052444
C 3.12891827 24.04842211 17.36846086 0.00431504 0.00879417 0.00243706
C 0.00436189 27.10119072 20.67978490 -0.00286685 0.00437553 -0.00396527
C 3.15259124 23.98004953 22.17769374 -0.00517867 -0.00203123 -0.00421387
C 5.81391527 3.17047412 1.55071950 0.00473625 -0.00535643 0.00371762
C 8.81777153 0.05130817 3.01791694 -0.00058294 -0.00041230 -0.00038092
C 6.13151391 3.25357354 6.31765189 0.00015166 0.00118391 0.00168479
C 9.02647948 0.30756390 7.75409199 0.00121304 0.00241525 0.00407800
C 5.89432204 3.22978318 11.15691281 0.00497759 -0.00608544 0.00070681
C 8.89024034 0.29737436 12.53399140 0.00102382 0.00446319 0.00842532
C 5.81868528 3.06237409 15.92749137 0.00137905 -0.00017190 -0.00565410
C 8.86888954 0.20603617 17.36932782 -0.00052975 -0.00428844 -0.00291425
C 5.87785894 2.95046631 20.54479327 0.00540365 0.00609358 0.00173167
C 8.88040663 29.96296173 21.94704624 -0.00118826 -0.00237990 0.00063721
C 6.45804577 8.70521410 1.70658312 0.00256115 0.00539852 -0.00005742
C 9.45903076 5.69435229 2.96647965 0.00085527 -0.00492050 0.00466065
C 6.38405880 8.68542586 6.39328245 0.00037356 0.00175157 0.00134337
C 9.50772450 5.96930935 7.69342313 -0.00026241 0.00196892 -0.00403164
C 6.58682655 9.09956761 11.15390092 0.00220787 0.00404186 0.00415878
C 9.45907704 5.80814155 12.45907843 -0.00005918 0.00218904 -0.00397362
C 6.54150930 8.90445596 15.98846334 -0.00462277 -0.00184911 0.00246393
C 9.54557441 5.91020058 17.26509281 -0.00128954 0.00478963 -0.00447504
C 6.48157704 8.50628568 20.79175679 0.00207245 0.00511909 0.00028253
C 9.53716076 5.65814703 22.11852786 0.00348386 -0.00129740 -0.00124064
C 6.79332551 14.31120710 1.74515469 0.00630002 0.00478614 0.00280021
C 9.84348016 11.51199305 2.99734085 -0.00321697 -0.00322698 0.00195912
C 7.04777303 14.43389808 6.53520968 0.00116780 0.00476006 -0.00338442
C 10.04890790 11.33932323 7.59250683 0.00261475 0.00203520 -0.00044299
C 6.84888651 14.69172569 11.23260190 0.00095398 -0.00293504 0.00039863
C 10.05634137 11.53116693 12.36837643 -0.00353473 0.00117322 -0.00109085
C 6.92838719 14.22419477 15.71743326 0.00298544 0.00111360 -0.00645675
C 9.92482576 11.35447061 17.25538487 0.00033216 0.00748418 0.00472735
C 6.82935287 14.45383426 20.64683021 0.00707172 0.00140995 -0.00168229
C 9.76629633 11.32919569 21.90740170 -0.00322932 -0.00428452 0.00137477
C 6.09172356 21.10443594 1.75472921 0.00810998 0.00158220 -0.00421133
C 9.56124092 17.98625720 2.98361167 0.00309054 0.00154655 -0.00001936
C 6.22977420 21.04575045 6.52460446 -0.00135748 0.00024490 0.00389100
C 9.24334363 17.95363988 7.70525963 0.00601997 -0.00601818 -0.00135658
C 6.29798468 21.15488177 11.24160610 -0.00275074 -0.00188727 0.00261992
C 9.40610816 17.95115816 12.52970882 -0.00178227 -0.00058658 0.00337380
C 6.40640227 21.05737170 15.87330672 0.00145923 0.00351634 -0.00077733
C 9.30237845 18.05982550 17.27830458 0.00001910 -0.00209968 0.00091168
C 6.20400738 21.14125423 20.63764702 0.00178285 0.00015589 -0.00319526
C 9.19929375 17.90403823 22.14190290 -0.00200875 -0.00521064 0.00418072
C 5.49616578 27.57203609 1.73271365 0.00014417 -0.00058976 -0.00434671
C 8.50239699 24.57470632 3.01102130 0.00242640 0.00033723 -0.00152055
C 5.42884051 27.61611417 6.44955760 0.00411357 -0.00586812 0.00233249
C 8.64197581 24.76036135 7.73079082 0.00241572 -0.00524058 -0.00032098
C 5.45211491 27.56885416 11.21531899 -0.00105105 -0.00617851 0.00073668
C 8.89653107 24.80590478 12.62118493 0.00219583 -0.00086005 0.00202305
C 5.67348006 27.51225329 15.88564293 0.00134370 0.00224920 0.00329605
C 8.71527139 24.62878449 17.26239668 -0.00024368 -0.00180759 0.00059834
C 5.35734618 27.63031104 20.65255490 0.00352904 -0.00028136 -0.00479187
C 8.71637254 24.66203308 21.96570648 -0.00504143 0.00417818 -0.00084244
C 12.55678467 2.70601338 1.65545234 -0.00662230 -0.00197910 0.00390634
C 15.71266004 30.02527338 2.97870722 -0.00053558 0.00312022 0.00086071
C 12.58657283 2.78777307 6.38672996 -0.00776219 0.00404982 0.00324726
C 15.68496730 29.70225452 7.74547634 -0.00009521 0.00017854 -0.00946256
C 12.77217813 2.98822281 11.16637320 -0.00558133 0.00783152 0.00148784
C 15.62996431 29.89238080 12.57481623 -0.00217336 0.00010657 0.00300921
C 12.50097357 3.00956188 15.97214608 0.00857214 -0.00195359 -0.00046979
C 15.60903383 29.86174773 17.21420097 0.00244965 -0.00056455 -0.00601280
C 12.48743296 2.75344225 20.60155227 0.00021142 -0.00335288 0.00412592
C 15.66143333 29.88596319 22.04269662 0.00440793 0.00215797 -0.00504084
C 12.78486937 8.47754552 1.67788188 -0.00064518 -0.00267982 -0.00341756
C 16.10274075 5.38679023 3.00049009 -0.00240181 -0.00781219 -0.00122273
C 12.87221997 8.18256956 6.38875257 -0.00047898 -0.00148126 0.00266489
C 16.18362274 5.37940296 7.73213865 0.00085683 -0.00486886 -0.00121614
C 13.06503452 8.18006634 11.11667360 -0.00056427 -0.00375747 -0.00094953
C 16.05228879 5.46424357 12.42783506 0.00703183 -0.00541768 0.00348977
C 13.11415417 8.49326198 15.78697628 0.00168252 0.00553455 0.00176316
C 16.17795125 5.49270129 17.19466276 -0.00245056 -0.00040340 0.00263536
C 12.88180263 8.36560473 20.66869287 0.00122650 0.00067626 -0.00954488
C 16.13448063 5.40784267 22.03911179 0.00095770 0.00157762 -0.00050724
C 12.36072703 14.79900269 1.68014727 -0.00195576 -0.00633415 0.00364877
C 15.35224939 11.77510122 3.14828823 -0.00261365 -0.00135853 -0.00216866
C 12.58715382 14.99975464 6.58575151 -0.00192584 0.00001798 0.00170489
C 15.26235258 11.83103478 7.92054809 -0.00292175 0.00447233 -0.00148046
C 12.51799726 15.06707083 11.31060795 0.00381991 -0.00069354 0.00026301
C 15.63182581 12.17255537 12.45133764 -0.00095324 0.00342852 -0.00541119
C 12.22085032 14.93293805 16.03693796 -0.00474734 0.00781477 -0.00417476
C 15.47354170 11.87028901 17.25219159 -0.00491530 -0.00549025 0.00594614
C 12.30803242 14.78488322 20.80786188 -0.00354630 -0.00007434 0.00019494
C 15.35823317 11.91960370 21.96789356 0.00330046 -0.00233729 0.00276841
C 11.65794977 21.67510613 1.74242592 0.00277566 -0.00418325 0.00131147
C 14.72873627 18.31506400 3.07621878 -0.00040794 0.00384423 0.00498905
C 11.80687504 21.71786318 6.37950937 -0.00210004 -0.00404736 -0.00109805
C 14.95683932 18.46834444 7.68750396 0.00348832 0.00195956 0.00094500
C 11.77072044 21.76778599 11.28215330 -0.00675628 0.00387434 0.00088707
C 14.62181178 18.48898862 12.36868549 -0.00361210 0.01198084 0.00671685
C 11.64071541 21.57637609 15.99395207 0.00133277 0.00025847 -0.00588869
C 14.83810728 18.55215079 17.12816114 -0.01051734 -0.00135025 -0.00077941
C 11.76895442 21.52080737 20.54718881 -0.00244321 0.00391619 0.00755235
C 14.95770418 18.61387127 21.92063861 -0.00253814 0.00529524 -0.00997844
C 11.97946979 27.22076681 1.66228119 -0.00045419 -0.00055839 0.00270098
C 15.19373316 24.56630129 2.83352590 -0.00104207 0.00036448 -0.00654539
C 11.99285619 27.18147299 6.45596704 0.00839714 0.00087705 0.00158379
C 15.21186922 24.33512853 7.69531907 -0.00031295 0.00143355 -0.00275732
C 12.06550658 27.43446120 11.21627394 0.00395505 0.00320650 -0.00145691
C 15.30340392 24.27613395 12.43007002 -0.00276620 -0.00018441 -0.00271342
C 12.21985773 27.27389877 15.95627634 0.00010728 -0.00083134 -0.00224688
C 15.35829245 24.26146850 17.26628810 -0.00110538 -0.00701606 0.00719851
C 12.23103180 27.16733038 20.71198187 -0.00547640 0.00512818 -0.00394065
C 15.12802866 24.05800681 21.85075074 -0.00416259 0.00487048 -0.00380081
C 19.34894319 2.37261790 1.77338875 -0.00847997 0.00916558 0.00768832
C 22.27445629 29.38864927 3.05034330 -0.00350591 -0.00714800 0.00055923
C 19.21201868 2.53640664 6.47618358 0.00381328 -0.01411208 -0.00101858
C 22.31848481 29.49454159 7.76595067 0.00240204 -0.00027651 0.00938712
C 19.09605864 2.40477466 11.15609096 -0.00549430 -0.00119747 0.00226946
C 22.45109748 29.42845952 12.48127633 -0.00312428 -0.00484345 0.00665777
C 19.14112887 2.41536972 15.91745396 0.00047616 0.00828356 -0.00016291
C 22.24330060 29.52351932 17.25075119 0.00143290 -0.00308527 -0.00369089
C 19.25117808 2.45748518 20.69623698 0.00048872 -0.00034784 -0.00224472
C 22.30890683 29.67795825 21.94166693 0.00152278 0.00324549 0.00411460
C 18.63381619 9.05872553 1.78263907 0.00455995 0.00099548 -0.00690657
C 21.65454132 5.98549409 3.05355008 0.00210269 0.00691763 -0.00461736
C 18.80365592 9.16135066 6.49031466 0.00059243 0.00217484 0.00553359
C 21.62387524 5.89875296 7.82094246 -0.00186209 0.00073016 -0.00513211
C 18.62446241 9.20048399 11.22276855 0.00883975 -0.00009969 -0.00146845
C 21.71026290 6.05317915 12.48837403 0.00359018 0.00072134 0.00230599
C 18.46196226 9.05583552 16.00566593 -0.00118897 0.00507505 -0.00152770
C 21.42689942 5.96018011 17.23773198 -0.00471590 0.00394101 0.00265646
C 18.24372183 9.26994197 20.74597620 0.00621016 -0.00788474 0.00213956
C 21.51105875 5.97989620 21.89452453 0.00131323 -0.00324451 0.00502500
C 17.89395285 15.52947887 1.63266514 0.00213694 -0.00010849 -0.00416458
C 20.99761407 12.68677561 2.76905274 0.00295277 0.00196020 -0.00145389
C 18.14997428 15.54872971 6.42727593 -0.00333965 0.00457926 -0.00453720
C 21.34624682 12.50243627 7.55370732 0.00635865 0.00336636 0.00150168
C 17.99640251 15.59235091 11.06459756 0.00511321 0.00194024 -0.00169549
C 21.02135524 12.53472433 12.44203203 0.00193021 -0.00247591 -0.00010623
C 18.03940049 15.50257415 15.83653924 -0.00369677 0.00139986 0.00075908
C 21.03701804 12.45351253 17.11165763 -0.00084565 0.00061664 0.00390527
C 17.85183315 15.63751205 20.53146200 -0.00807061 0.00694862 -0.00035618
C 21.02788886 12.71672336 21.84655512 0.00296630 0.00019159 -0.00130376
C 18.23032918 21.33854588 1.61975567 -0.00565917 0.00070862 -0.00818819
C 21.40377209 18.38698002 2.86562267 0.00577606 -0.00629193 0.00283613
C 18.23067370 21.31446647 6.44967583 -0.00109872 -0.00249040 -0.00070285
C 21.50113082 18.35900048 7.54836627 -0.00417279 -0.00145661 0.00137778
C 18.32399524 21.10032900 11.14937107 -0.00297678 0.00142872 0.00163758
C 21.12473541 18.24286896 12.45710553 -0.00212366 0.00438162 -0.00256726
C 18.38806227 21.10926834 15.92791615 -0.00344582 -0.00129593 -0.00450469
C 21.39487406 18.17127578 17.26652842 0.00578098 0.00399528 0.00062966
C 18.25650953 21.33999970 20.64322499 0.00192559 -0.00557209 -0.00166108
C 21.28777250 18.26146179 21.91336009 -0.00179512 -0.00085632 -0.00943227
C 18.76015271 26.83117603 1.69714891 0.00007142 -0.00392876 0.00237187
C 21.87326256 24.01852293 3.05152153 0.00369868 -0.00550666 -0.00663291
C 18.75527661 26.91055142 6.44295455 0.00458448 -0.00294662 0.00569814
C 21.58624746 24.00657915 7.72910809 -0.00042277 -0.00717043 -0.00460581
C 18.74875770 26.70263990 11.16984084 0.00726929 -0.00107958 -0.00781624
C 21.91523326 23.92690995 12.48617474 -0.00301147 0.00212674 0.00266196
C 18.80931211 26.72337534 15.94113879 -0.00866569 -0.00229609 -0.00232175
C 21.92647631 23.96111842 17.18083860 -0.00021213 -0.00588233 -0.00546714
C 18.88554633 26.88615750 20.61146060 -0.00205174 0.00061489 -0.00658121
C 21.57559059 23.98955643 22.10326066 0.00087394 -0.00878417 -0.00317726
C 24.90900669 2.94599476 1.77864874 0.00109886 0.00680575 0.00385273
C 27.82048996 0.09075933 2.87363782 0.00140773 -0.00235843 0.00493632
C 24.75993449 2.78354384 6.39084278 -0.00424966 0.00387878 0.00375962
C 27.84397641 29.93283826 7.69931902 -0.00658523 -0.00488580 0.00278870
C 24.84395468 2.89251817 11.16379305 -0.00749901 0.00677952 0.00031932
C 28.05150064 29.98569983 12.60569664 -0.00030754 -0.00164807 -0.00256085
C 24.76252298 3.09052816 16.07256443 0.00201698 0.00311145 -0.00038404
C 27.91811368 0.18786129 17.25441047 0.00049942 0.00709119 0.00172710
C 24.72236176 2.99874336 20.64783126 -0.00073009 0.00720938 -0.00316518
C 27.89501541 0.41169646 21.96309895 0.00280510 -0.00135593 -0.00310178
C 24.25642483 9.50683373 1.62826720 0.00155195 -0.00416910 -0.00472303
C 27.19868572 6.67772251 2.95054065 -0.00037566 -0.00098883 -0.00754493
C 24.00708482 9.51289328 6.25936288 0.00194657 -0.00180745 0.00458959
C 27.07897950 6.47920810 7.64984201 0.00035174 0.00220780 -0.01023211
C 24.13823118 9.48670397 11.20901775 0.00429535 0.00231204 0.00365284
C 27.16439916 6.57514106 12.41851918 0.00555952 0.00111393 -0.00474233
C 24.11756249 9.60740642 15.84915133 -0.00344804 -0.00051513 -0.00339228
C 27.14491143 6.86210927 17.25701466 -0.00103901 -0.00233399 0.00624831
C 24.32451175 9.70085951 20.76324649 0.00585936 0.00288841 0.00336997
C 27.27358699 6.33714445 21.97600134 -0.00393885 0.00132501 0.00363577
C 24.72705169 15.33576317 1.68252218 0.00265307 0.00150453 -0.00231752
C 27.70364988 12.23888543 3.17688043 -0.00683974 0.00003643 -0.00717632
C 24.40973007 15.32745069 6.26679186 -0.00142246 -0.00208289 0.00289762
C 27.40625282 12.18752927 7.82572116 0.00361311 -0.00213753 -0.00156492
C 24.45412487 15.40050616 11.06378600 -0.00814107 0.00313701 -0.00127240
C 27.61944299 12.41429255 12.73959615 -0.00509617 0.00099802 -0.00491985
C 24.54781344 15.16932641 15.98696684 0.00632705 -0.00714225 -0.00052244
C 27.72645103 12.36292134 17.31080667 -0.00375210 0.00115769 -0.00161450
C 24.49515202 15.46986634 20.67477019 0.00233404 -0.00370141 -0.00264790
C 27.64468343 12.08501295 22.00271655 -0.00154234 -0.00244571 -0.00672990
C 24.89701003 20.91059142 1.63187224 -0.00228883 0.00219088 0.00548975
C 28.01716655 18.01082975 3.25463583 -0.00097055 0.00043016 -0.00266013
C 24.92098808 20.78007326 6.33211942 0.00324869 -0.00302496 -0.00313482
C 28.17506064 17.70643946 7.93913996 -0.00354553 0.00037062 -0.00711690
C 24.85435846 20.99991768 11.04613380 -0.00210045 -0.00054037 0.00254026
C 28.18086039 17.92870589 12.75480473 0.00178285 0.00393497 0.00028655
C 24.90187823 20.80425416 15.96128398 -0.00378404 -0.00463696 0.00636781
C 28.05845987 18.01257190 17.40936400 -0.00667546 0.00797446 0.00154829
C 24.86091126 21.02045465 20.82706325 -0.00153565 0.00027245 0.00217425
C 28.24413266 17.98999765 22.00142789 0.00160053 0.00279373 -0.00485011
C 25.37202706 26.70663913 1.64150130 -0.00354951 0.00521907 -0.00492313
C 28.29315935 23.34070344 2.90453382 -0.00017923 -0.00441761 -0.00288920
C 25.28538398 26.34048313 6.36301978 0.00576291 -0.00114050 0.00420297
C 28.24445005 23.52914004 7.67287992 -0.00200535 0.00823950 0.00483318
C 25.44647781 26.49469668 11.11721950 0.00513790 0.00171424 -0.00208932
C 28.17992118 23.54496515 12.45154212 -0.00533900 0.00153585 -0.00292680
C 25.36075705 26.44090120 15.85988693 -0.00114698 -0.00132590 -0.00237723
C 28.41820951 23.49622332 17.37758648 -0.00116346 0.00328994 0.00616943
C 25.33086464 26.67213278 20.64605933 0.00042683 0.00090080 0.00573304
C 28.56021362 23.79856037 22.03290221 0.00432605 0.00478047 -0.00744890
N 0.29822199 4.34364297 0.93832108 -0.00131912 0.00445894 -0.00588480
N 3.51434990 5.20169771 3.56510540 0.00285550 -0.00278248 0.00636524
N 4.98966682 2.38569238 0.84556229 -0.00126789 -0.00187559 0.00022368
N 1.78853784 1.30541230 3.69213066 0.00405356 -0.00077838 -0.00036538
N 0.14427877 4.36903088 5.72512148 -0.00117409 0.00237377 -0.00169667
N 3.68919805 5.02244814 8.48794370 -0.00266681 0.00515129 0.00202093
N 5.46566908 2.29262650 5.62184337 0.00317138 -0.00084860 -0.00091899
N 1.58620690 1.39872960 8.35372349 0.00357870 0.00215566 0.00842349
N 0.07923186 4.43404289 10.20216716 -0.00742092 -0.00019561 -0.00153687
N 3.62739234 5.32824412 13.33789078 -0.00323340 -0.00097412 -0.00077905
N 5.38206709 2.19388446 10.37292722 -0.00721961 0.00304019 -0.00529442
N 1.71863087 1.35468187 13.38764911 0.00206937 -0.00025748 -0.00411011
N 0.21823754 4.41089613 15.18025838 -0.00897814 -0.00479640 -0.00494271
N 3.44511606 5.11421603 18.11227034 -0.00232499 -0.00647980 -0.00276981
N 4.79832109 2.39247745 15.29371888 -0.00101556 -0.00390957 0.00165328
N 1.55366976 1.40347351 17.78446035 0.00120642 -0.00469297 -0.00442311
N 0.27544621 4.61461691 19.97239567 -0.00573519 -0.00270970 0.00009878
N 3.53382020 5.22121768 22.73593321 0.00067067 0.00298012 0.00346753
N 5.01415147 2.23105325 19.74425556 0.00305721 0.00027387 0.00277314
N 1.71232141 1.39269831 22.55194512 0.00106296 -0.00153647 -0.00237321
N 0.50167287 10.12268240 1.20243602 -0.00636742 -0.00189855 0.00229562
N 3.80416803 10.81589138 3.68405360 0.00332296 0.00266295 -0.00242362
N 5.68488871 7.77750767 1.06871036 -0.00383002 -0.00172430 0.00341639
N 2.14508861 7.04349901 3.77848852 0.00364019 0.00260363 -0.00417210
N 0.76975469 9.97961172 6.03260523 0.00659144 -0.00397711 -0.00057567
N 3.83485745 10.71010106 8.54843647 -0.00095653 -0.00275064 -0.00275205
N 5.62007715 7.80127870 5.67251096 0.00305217 -0.00310064 0.00047297
N 2.22386846 6.68757100 8.50042478 -0.00375915 -0.00414884 0.00231616
N 0.53903068 10.15623856 10.50365035 -0.00450731 0.00117454 -0.00196879
N 3.76327071 10.96372986 13.33665735 -0.00078808 0.00261502 0.00021179
N 5.83555387 8.09800463 10.59102405 0.00284781 -0.00335845 -0.00499267
N 2.29854196 7.23975827 13.41864040 0.00222283 0.00142488 -0.00217337
N 0.34390324 10.24593364 15.30438663 -0.00040785 0.00027599 0.00001829
N 3.91939136 10.95207269 17.99174976 -0.00196503 0.00086961 0.00314511
N 5.76852008 7.96741845 15.34985448 -0.00512603 -0.00165360 -0.00136555
N 2.22073081 7.07512445 17.97661222 0.00113817 0.00678138 0.00275974
N 0.94966283 9.98180695 20.07114712 -0.00035134 0.00721814 0.00561831
N 3.74238725 10.94107512 22.74207360 0.00055976 0.00246984 0.00340645
N 5.69130073 7.79324070 19.89941237 0.00169678 0.00043948 -0.00255164
N 2.49946197 7.38016034 22.74785053 0.00842909 -0.00377552 -0.00074560
N 0.86215276 15.57407191 1.34402136 -0.00327252 0.00696085 0.00452653
N 4.31069094 16.82387792 3.86442389 -0.00024192 -0.00211296 -0.00192993
N 6.00559520 13.41632086 1.08375864 -0.00271803 -0.00159512 -0.00005432
N 2.61298808 12.81946507 3.81020948 -0.00386842 0.00736282 0.00236795
N 1.00951644 15.72721233 5.90971526 -0.00207360 0.00227214 0.00084179
N 4.71179625 16.72831196 8.33599180 0.00412569 0.00063525 -0.00028218
N 6.14592047 13.67177118 5.81725731 -0.00037817 0.00267244 -0.00191472
N 2.68745566 12.71890470 8.68191108 0.00533675 0.00546158 -0.00335035
N 1.12471372 15.66795995 10.52710392 0.00249429 0.00076532 0.00177806
N 4.30567720 16.70422069 13.31618539 0.00204186 0.00177561 -0.00077269
N 5.98575695 13.94014120 10.55952304 -0.00651839 -0.00222184 0.00237844
N 2.61101819 12.91872081 13.22099317 -0.00209591 -0.00202229 -0.00407496
N 0.99980371 15.86215010 15.32426234 0.00207867 0.00197960 -0.00103461
N 4.55859692 16.73214860 18.03071816 -0.00353293 0.00490496 -0.00198652
N 6.17019111 13.43995755 14.92388387 -0.00301979 -0.00087197 0.00143621
N 2.65398399 12.93738823 18.08748361 -0.00097929 0.00031831 -0.00950810
N 1.21986553 15.69748581 20.06505997 -0.00723388 0.00238216 0.00555918
N 4.04346742 16.53114241 22.87346827 0.00255454 0.00245441 -0.00672788
N 6.07352271 13.51867448 20.00271877 -0.00134603 -0.00664175 0.00380267
N 2.44208413 12.78637626 22.79626592 0.00121664 0.00519412 0.00056653
N 1.40555098 21.17649837 1.19992478 -0.00123882 0.00075530 -0.00095013
N 3.92089601 23.68541272 3.88552112 -0.00056483 0.00227265 -0.00372146
N 5.30811662 20.21572074 1.06528334 0.00067927 -0.00188184 -0.00255723
N 2.77541348 18.46496756 3.84026304 0.00316996 0.00449786 0.00913656
N 1.36629878 21.43233807 5.81317270 0.00039836 0.00449207 -0.00659455
N 4.00791412 23.56580046 8.64117185 -0.00308289 -0.00345170 -0.00153425
N 5.28271904 20.42669608 5.79567193 -0.00720025 -0.00819223 0.00941706
N 3.13991815 18.42111538 8.33858819 -0.00365307 0.00428478 0.00709348
N 1.40690666 21.30710692 10.45477858 -0.00044654 0.00218741 -0.00299518
N 3.86369802 23.35694770 13.24686810 0.00103780 0.00042835 -0.01086845
N 5.50913325 20.33727625 10.55062635 0.00267220 -0.00028535 0.00149305
N 2.91027879 18.44462703 13.13844385 -0.00178106 0.00080786 0.00376361
N 1.39534465 21.41912956 15.34882970 -0.00041444 0.00034241 0.00208379
N 4.16234505 23.69406657 18.12125888 -0.00046931 0.00875211 -0.00035308
N 5.54263590 20.24627343 15.24408636 -0.00023722 0.00035289 -0.00028321
N 3.02251251 18.44454882 18.00951648 -0.00052795 0.00248715 0.00185082
N 1.54102656 21.37033362 19.99902979 0.00133211 0.00116761 0.00406862
N 4.04505218 23.24643731 22.92583699 0.00036188 -0.00325042 -0.00976553
N 5.46927894 20.36964085 19.78982563 0.00188401 -0.00746959 0.00243882
N 2.77295250 18.40430441 22.87233103 0.00059545 0.00583458 -0.00451978
N 0.67212904 28.12385001 1.10924959 0.00240939 0.00546453 -0.00521574
N 3.35167909 29.65491838 3.63514851 -0.00097888 -0.00227371 0.00041831
N 4.70067723 26.73818270 1.05388284 -0.00241356 -0.00233076 0.00488392
N 1.90871783 24.64998210 3.75382701 0.00339751 0.00004678 0.00021112
N 0.45363792 27.94664593 5.74369256 0.00345427 -0.00144263 -0.00622289
N 3.14827741 29.76070975 8.47355738 0.00268526 0.00372801 -0.00177993
N 4.72213668 26.72151455 5.68972606 -0.00340778 -0.00181976 -0.00489583
N 1.85056137 24.38125379 8.58584391 0.00253498 0.00485850 -0.00177500
N 0.55696594 27.87082311 10.42840248 -0.00847196 -0.00453745 -0.00362822
N 3.35122400 29.84868054 13.14347062 0.00823145 -0.00447841 0.00217534
N 4.85076339 26.68837444 10.40252069 -0.00173752 0.00118267 0.00139898
N 1.96651781 24.68842620 13.40048261 0.00340233 -0.00614669 0.00178308
N 0.79379698 27.92599816 15.31948316 0.00116982 0.00202304 0.00314977
N 2.99542668 29.63204460 17.84438684 -0.00076153 0.00248457 0.00079407
N 4.91064910 26.58651227 15.27764632 -0.00709010 0.00595954 -0.00053273
N 2.02370430 24.63337898 17.92541613 -0.00332813 0.00403873 -0.00469688
N 0.73089570 27.94225064 19.92656841 -0.00245060 -0.00034753 -0.00195768
N 3.33753228 29.86562266 22.74478083 0.00201989 0.00246768 -0.00077840
N 4.47445126 26.91783691 19.96671283 -0.00098511 0.00426671 0.00128532
N 2.18063688 24.60644979 22.92601299 -0.00238953 0.00195505 -0.00256443
N 6.80539464 3.82247201 0.85082774 -0.00980667 -0.00409895 -0.01085059
N 10.12190967 4.80505601 3.68932277 -0.00111901 0.00694117 0.00447777
N 11.69025547 1.84861833 0.95322486 0.00326595 0.00069270 0.00002260
N 8.15750089 1.08869673 3.60879586 -0.00008941 -0.00061901 0.00506073
N 6.83473574 4.10805476 5.60437349 0.00259115 0.00157460 0.00255982
N 10.25731754 4.91971492 8.16133166 -0.00131081 -0.00482275 -0.00119794
N 11.73894764 2.08477006 5.67064148 -0.00037160 0.00139645 -0.00201056
N 8.41486635 1.26322248 8.51581130 0.00294867 -0.00206000 0.00439438
N 6.59277527 4.07359653 10.49276124 0.00206874 0.00150773 0.00136439
N 10.02387224 4.84956708 13.26579523 0.00009492 -0.00074566 -0.00334725
N 11.79154151 2.34166168 10.54073541 -0.00056658 0.00742485 0.00172665
N 8.25460695 1.27047288 13.21026114 -0.00100812 0.00044575 -0.00217801
N 6.62218391 3.86558235 15.14713514 0.00289327 -0.00011328 0.00068929
N 10.07533324 4.89804266 18.00189098 0.00361388 0.00004221 0.00125726
N 11.81400992 2.13312436 15.24935408 0.00548902 -0.00058648 -0.00476523
N 8.42159274 1.18912532 18.21719019 0.00017362 0.00467307 -0.00253724
N 6.73091152 3.79174360 19.84064206 -0.00889233 -0.00008087 0.00129427
N 10.06778869 4.70268047 22.85993729 0.00137968 0.00838203 -0.00543486
N 11.61732472 1.92185249 20.02823360 -0.00120928 -0.00264046 0.00563398
N 8.14369849 0.86240780 22.54360322 0.00291638 0.00358000 0.00275307
N 7.06520127 9.62377003 0.94825533 0.00095205 0.00010295 0.00815438
N 10.67630243 10.63408881 3.67235936 0.00308875 -0.00230016 0.00282823
N 11.98090608 7.59792400 0.99841535 0.00776600 0.00495268 -0.00047257
N 8.79347417 6.67988774 3.56757315 0.00376367 -0.00143627 0.00126509
N 7.17536081 9.52586938 5.66341972 -0.00530191 -0.00188356 -0.00049709
N 10.70764271 10.44466434 8.31991918 0.00071610 -0.00591243 -0.00818097
N 12.16867210 7.36361326 5.55599627 0.00110740 0.00050594 0.00001299
N 8.78745755 6.69077818 8.57992591 0.00333373 -0.00198684 0.00284502
N 7.12553286 10.02948264 10.36737426 0.00178731 -0.00039148 -0.00311969
N 10.87236687 10.81080372 13.14869846 -0.00042468 0.00282161 0.00210356
N 12.28692859 7.36285737 10.38436733 0.00031926 0.00021682 -0.00725704
N 8.93117494 6.88656595 13.13124090 0.00407429 -0.00638258 0.00212109
N 7.23775332 9.74127303 15.17719653 0.00120042 -0.00280699 -0.00225247
N 10.78353000 10.46355966 17.82041251 0.00058778 -0.00380332 0.00603133
N 12.46525758 7.55956817 15.08088975 0.00002410 0.00093511 -0.00409597
N 8.66806089 6.67088191 17.93499444 0.00101685 -0.00415531 -0.00147744
N 7.25662288 9.54351573 20.24001955 -0.00401946 0.00377235 -0.00047818
N 10.49715686 10.48329236 22.70829963 0.00165951 -0.00004730 -0.00184671
N 12.04686640 7.50342466 20.06406652 0.00476106 -0.00445260 0.00003895
N 8.81135989 6.63306543 22.73746817 -0.00007415 -0.00459970 -0.00577072
N 7.47758791 15.13595930 0.88382546 -0.00585267 -0.00639910 -0.00205756
N 10.40215518 17.33470677 3.76767516 -0.00811500 -0.00106349 -0.00409739
N 11.44986127 14.06056733 0.95864065 0.00624137 -0.00224058 0.00145662
N 9.10364312 12.29745481 3.84241493 0.00337028 -0.00144488 -0.00254925
N 7.85831555 15.21433883 5.74651793 -0.00021767 0.00789254 0.00115441
N 10.41351648 17.77199455 8.41276843 0.00231079 0.00266781 0.00107360
N 11.87828313 14.07637298 5.86107574 -0.00331117 0.00033638 -0.00456687
N 9.23732995 12.18459840 8.33106857 -0.00428462 -0.00442325 0.00331654
N 7.64138562 15.59854049 10.52335059 0.00354899 -0.00017822 0.00827969
N 10.35758258 17.40762995 13.33279309 -0.00069231 0.00392711 -0.00580077
N 11.40747187 14.46508626 10.73818286 -0.00415816 -0.00071635 -0.00378094
N 9.13617595 12.25572454 13.05807027 0.00611209 0.00193088 0.00411773
N 7.71158223 15.16333088 15.15387849 0.00351317 -0.00704157 -0.00344199
N 10.18586313 17.43763741 18.06618415 -0.00141590 0.00305685 0.00301170
N 11.61668135 14.05971289 15.20654975 -0.00308068 -0.00303480 -0.00209318
N 9.11877260 12.07016207 18.03532275 -0.00214748 -0.00018447 0.00288085
N 7.56099736 15.27481915 19.87641185 -0.00322659 -0.00487184 -0.00126011
N 10.12554516 17.34533991 22.82510068 0.00212802 -0.00370266 -0.00795823
N 11.50064419 14.04838231 19.95884281 -0.00352034 0.00021407 -0.00475432
N 9.14226836 12.32571268 22.63951265 0.00219215 0.00365535 0.00018351
N 7.07669584 21.74755963 1.03706055 0.00090237 0.00153455 0.00033018
N 9.47860545 23.87503198 3.59105368 -0.00226976 0.00059177 0.00244229
N 10.95498767 20.79575197 0.98614434 -0.00065215 0.00111122 0.00241221
N 8.38941802 18.40400571 3.53998183 0.00050804 -0.00184018 -0.00047084
N 7.07260631 21.85579410 5.88490564 -0.00145423 0.00035794 -0.00086051