2000
Time=2000.00000000 pbc="T T T" Lattice="31.16452890 0.00000000 0.00000000 0.00000000 29.58433346 0.00000000 0.00000000 0.00000000 23.79494943" energy=-12009.34124172 virial="-12.19232946 -6.35213030 14.70506791 -6.35213030 10.00876071 9.39513762 14.70506791 9.39513762 -60.32676439" stress="0.00193590 -0.00031255 0.00052609 -0.00031255 0.00303115 0.00051818 0.00052609 0.00051818 0.00146416" Properties=species:S:1:pos:R:3:vel:R:3
C 30.54874285 3.24616034 1.84941072 0.00161973 0.00023743 0.00448356
C 2.73918906 0.31566250 3.14882690 -0.00692716 0.00431171 -0.00491049
C 30.91232415 3.23562061 6.49247000 -0.00482146 0.00310257 -0.00608660
C 2.82421202 0.47850046 7.90483421 -0.00247798 -0.00577418 0.00294078
C 30.65874690 3.31237997 11.27901745 0.00133128 0.00307995 -0.00665986
C 2.75749521 0.17854471 12.53611906 -0.00217614 0.00259549 -0.00344701
C 30.76973201 3.43036805 15.80654473 0.00030160 0.00378570 0.00034877
C 2.75181415 0.51421795 17.28733091 0.00240182 -0.00371830 0.00037269
C 30.61310855 3.19842096 20.78073484 0.00377755 -0.00221329 -0.00378298
C 2.73294349 0.44458262 22.00869770 -0.00471147 0.00239590 -0.00325946
C 30.93962915 9.01042817 1.74825166 0.00208860 0.00211335 0.00008082
C 2.96309520 5.89172853 3.18498739 -0.00845032 0.00565941 -0.00179771
C 31.03215893 8.88062850 6.63293046 0.00275083 -0.00054977 -0.00023604
C 2.98151947 6.15837479 7.83183515 -0.00475132 -0.00040022 -0.01738369
C 30.99910501 9.21342584 11.35175310 0.00254116 -0.00025008 0.00342658
C 3.12522717 6.11852268 12.58441696 0.00683759 0.00318820 -0.00332127
C 30.89124908 9.13608735 16.04602341 0.00832467 -0.00297533 0.00407579
C 2.80616401 6.04626381 17.33489255 -0.00162275 -0.00088090 0.00080653
C 30.93823293 8.98568256 20.76504200 -0.00670828 -0.00282089 -0.00379553
C 2.75305957 6.11871716 22.17478311 -0.00469834 -0.00417297 -0.00234072
C 0.05625467 14.67398111 1.69578817 0.00599611 -0.00339934 -0.00563043
C 3.06863184 11.48154712 2.91146793 -0.00316298 -0.00101586 0.00301822
C 0.05677777 14.42596108 6.30683048 0.00432185 0.00427701 0.00000103
C 3.33400536 11.69352810 7.76421053 -0.00189360 -0.00364357 -0.00957575
C 0.24140484 14.80737300 11.00493474 0.00911101 -0.00420792 -0.00142372
C 3.62339372 11.97541780 12.69738997 0.00305857 0.00301034 -0.00397470
C 0.17232058 14.72246226 15.92581443 0.00621588 0.00699517 0.00178572
C 3.01230746 11.68074242 17.32387118 -0.00316838 -0.00588157 0.00203683
C 0.21030008 14.44758506 20.84325209 0.00306371 0.00637568 0.00286589
C 3.28122563 11.59421620 22.19468366 0.00230215 -0.00154652 -0.00014600
C 0.35241737 20.38880757 1.72253145 -0.00012519 -0.00926847 -0.00449196
C 3.26100636 17.35662699 3.13727671 -0.00651395 0.00180669 -0.00563496
C 0.40566157 20.33051307 6.59961824 0.00519635 -0.00001663 0.00217101
C 3.55287593 17.20222159 7.73048910 0.00440810 0.00365887 -0.00567559
C 0.51586587 20.14503938 11.31949806 0.00706909 -0.00289038 0.00069288
C 3.65375385 17.35141876 12.48617811 -0.00191523 -0.00745527 -0.00083803
C 0.70225868 20.24363570 16.20603469 -0.00011569 0.00608583 0.00155884
C 3.59762267 17.38799139 17.25533191 -0.00025192 -0.00227912 -0.00276524
C 0.53388328 20.25163659 20.81761621 -0.00222016 0.00163318 -0.00090674
C 3.46197320 17.46390949 21.95542857 0.00782661 0.00044982 0.00229160
C 30.97666370 26.45053380 1.65340513 -0.00175958 -0.00515629 -0.00453753
C 3.28204302 23.65046115 2.94090911 0.00118704 -0.00743447 -0.00251020
C 31.11321125 26.49868292 6.38542968 0.00236298 -0.00581022 -0.00477587
C 3.06647340 23.41595012 7.71368414 0.00242621 -0.00571839 -0.00168756
C 30.96746368 26.56992625 11.19122349 -0.00213913 -0.00173367 -0.00250010
C 2.93080713 23.78543933 12.55020900 -0.00386056 0.00519642 -0.00250011
C 31.14564584 26.87603935 15.93862421 0.00731005 0.00297203 0.00456944
C 3.02770526 23.92490474 17.20332592 -0.00121800 0.00255509 -0.00102190
C 31.04307615 26.94444040 20.70335639 -0.00014787 -0.00213801 -0.00555048
C 3.04744248 23.81393657 21.99163189 -0.00178302 0.00527517 0.00058044
C 5.97596976 3.36272271 1.71741870 -0.00196376 -0.00073111 0.00647346
C 9.30813470 0.14889956 2.96208310 -0.00848813 -0.00696021 0.00878031
C 6.11803918 3.19343449 6.61615241 0.00087949 -0.00414973 -0.00757604
C 9.10432501 0.22391826 7.69530669 0.00649761 -0.00076574 -0.00085834
C 6.10807694 3.11839009 11.38965976 0.01126109 -0.00125609 -0.00898606
C 9.28410373 0.12006295 12.43082949 0.00100712 -0.00589645 0.00668477
C 6.15656756 3.27288150 16.01978911 -0.00053808 0.00451275 0.00507208
C 9.14149334 0.06100138 17.31108200 0.00446850 -0.00223892 0.01161741
C 6.09350258 3.08782632 20.81297571 -0.00217779 0.00671015 -0.00182676
C 9.10670332 0.32929250 22.00632236 -0.00604621 -0.00218835 0.00247974
C 6.44726046 8.71068685 1.64220007 0.00647071 0.00006154 -0.00008896
C 9.40948434 5.73499795 2.85447976 -0.00514126 0.00827893 0.00543617
C 6.37876252 8.70915934 6.55120588 -0.00267038 -0.00237319 -0.00355575
C 9.19255676 5.80484729 7.81150985 0.00129735 -0.00247578 -0.00366546
C 6.34460476 8.84742067 11.32542535 -0.00631143 0.00081628 0.00414507
C 9.45078890 5.68714209 12.74672666 -0.00039076 0.00052559 -0.00346351
C 6.38253595 8.83106292 16.06202581 0.00512501 0.00251952 -0.00439515
C 9.65953974 6.12770321 17.24849104 0.00190978 -0.01143386 -0.00353188
C 6.37652483 8.79042876 20.76436733 0.00448900 0.00246697 -0.00284625
C 9.48092061 5.80226313 21.97904221 0.00540097 -0.00113817 -0.00610192
C 6.71496450 14.36247869 1.84475466 0.00670104 -0.00704157 -0.00420195
C 9.67313531 11.26086328 2.98569768 -0.00086821 -0.00012104 0.00000903
C 6.62118154 14.20678918 6.33479738 -0.00406263 0.00147296 -0.00482341
C 9.75343761 11.43730786 7.80323804 0.00015681 0.00071035 0.00070474
C 6.77977655 14.22899700 11.13508486 -0.00632344 -0.00266702 -0.00230279
C 9.87492994 11.29711473 12.46055696 -0.00246923 -0.00599060 0.00384934
C 6.78250130 14.25072160 16.01966760 0.00205009 0.00246394 -0.00472245
C 9.68150531 11.57545029 17.32501130 -0.00004682 0.00169215 0.00239943
C 6.45253084 14.52008891 20.84374169 0.00135173 0.00145196 -0.00150069
C 9.67707871 11.57613997 21.99588591 0.00486977 -0.00480298 -0.00669709
C 6.08718653 20.80062407 1.69198986 0.00225888 -0.00284767 0.00617412
C 8.93599678 17.66234204 3.09338452 0.00215095 0.00383356 -0.00154143
C 6.14889713 20.84874939 6.33653703 -0.00400212 -0.00126462 -0.00544683
C 9.44748558 17.76925134 7.90120743 -0.00425921 0.00452111 0.00830375
C 6.35420739 20.36232271 11.22214050 0.00708044 -0.00489338 -0.00105222
C 9.29331443 17.76019758 12.64244224 -0.00995968 0.00556270 -0.00155510
C 6.05799472 20.97117933 16.01122606 0.00297800 -0.00004347 0.01189332
C 9.50078434 17.90154650 17.20978114 -0.00147533 -0.00125692 -0.00207654
C 6.35092252 20.78031992 20.74154018 -0.00295996 0.00051132 -0.00312078
C 9.16799117 17.75433441 22.05867115 0.00021250 0.00773978 0.00112687
C 5.66138918 27.19221717 1.71250792 -0.00472904 0.00234281 0.00030741
C 8.60380004 24.15519635 2.86392709 -0.01026825 0.00295567 -0.00147042
C 5.68570898 27.16477004 6.49440155 -0.00292750 -0.00393305 -0.00122580
C 8.80574123 24.15558261 7.65165723 0.00539518 0.00530939 0.00749755
C 5.80432729 26.98693663 11.28237219 0.00578521 0.00416030 -0.00504744
C 8.77552073 24.03137213 12.49510715 -0.00346161 -0.00245678 -0.00520578
C 5.73940900 27.16922760 15.88677465 -0.00106237 -0.00397916 0.00251326
C 8.96422361 24.25028034 17.16466524 -0.00116004 -0.00342700 -0.00391899
C 5.67563556 27.16123848 20.69662241 0.00309068 0.00137467 0.00529990
C 8.84623644 24.24369300 22.09714091 -0.00432166 0.00117208 0.00231930
C 12.44291008 2.84095970 1.69992641 0.00057405 0.00228964 0.00483641
C 15.79269059 29.31988195 3.04567638 0.00491190 0.00779201 0.00404858
C 12.45903783 2.76680429 6.38699596 0.00020093 0.00194692 -0.00418559
C 15.67192607 29.32993492 7.78494883 -0.00210424 -0.00219276 0.00145100
C 12.56305427 2.94300983 11.04794949 0.00070796 -0.00141380 0.00289892
C 15.84190160 29.36916490 12.48282612 0.00950056 0.00285807 0.00596683
C 12.50670048 2.94534970 15.97724962 -0.00656928 -0.00848253 -0.00125926
C 15.94246224 29.41379989 17.28105154 -0.00420116 -0.00582296 0.00588433
C 12.67028450 2.85086332 20.67917998 0.00496653 -0.00281410 -0.00055146
C 15.59285435 29.49432311 22.04748849 0.00130806 0.00362048 0.00701890
C 12.93236774 8.46467848 1.87235098 0.00416103 -0.00101869 -0.00543540
C 16.22023253 5.46146824 2.90794936 0.00726875 -0.00366180 0.00420207
C 12.69281195 8.20470740 6.59784914 -0.00012104 0.00063009 0.00220525
C 16.14881764 5.38881085 7.71002768 0.00362569 0.00172934 -0.00281547
C 13.06597926 8.50837931 11.21609293 -0.00137494 0.00395212 0.00182585
C 16.08826646 5.37474238 12.53830646 0.00580417 0.00157241 0.00125548
C 13.15241757 8.86123131 15.91591172 -0.00206835 -0.00003925 -0.00980454
C 15.96933186 5.38515495 17.24127603 0.00633813 -0.00359401 0.01344333
C 12.78025716 8.59695644 20.91723863 0.00808570 -0.01054243 0.00095724
C 15.87827598 5.68885054 22.03296600 -0.00582528 -0.00046502 0.00731959
C 12.57014543 14.70498333 1.78488757 0.00059585 0.00092853 0.00223704
C 15.43677772 11.76306653 3.13055708 0.00014266 0.00280171 -0.00328882
C 12.36545355 14.74109517 6.53870240 -0.00117093 0.00016669 0.00442573
C 15.63433510 11.74834633 7.88781371 0.00157091 0.00481905 -0.00355452
C 12.45641721 14.77439793 11.35004041 0.00625020 -0.00434875 -0.00193093
C 15.94927308 12.05548555 12.58250341 0.00260415 -0.00233649 0.00229669
C 12.74580313 14.82030112 15.95972864 -0.00315084 -0.00007292 0.00055830
C 15.73727367 11.85705985 17.31168634 0.00362551 0.00265075 0.00015920
C 12.49797026 14.94798599 20.87846739 -0.00054111 -0.01222054 0.00037823
C 15.68342868 11.81508668 22.06878637 0.00677105 -0.00944689 -0.00510787
C 11.85273661 21.08018341 1.74953009 0.00057990 0.00512192 -0.01177116
C 15.20113368 18.21332413 2.92265941 -0.00388453 -0.00205776 0.01016282
C 11.63137821 20.98610563 6.41632600 0.00219614 0.00197806 0.00053568
C 15.14434953 18.23675715 7.64340965 -0.00291195 0.00028107 -0.00110960
C 11.94008637 21.20594584 11.22651910 -0.00329668 -0.00334119 0.00449215
C 15.01029406 18.20466240 12.31541307 -0.01068724 0.00903894 0.00106608
C 12.06449792 21.19168897 15.86712022 -0.00502939 0.00614053 0.00288322
C 15.24830330 18.33950900 17.12875248 -0.00118969 0.00011977 -0.00141081
C 11.83964745 21.23100102 20.69641335 -0.00106987 0.00380047 0.00792144
C 15.17996103 18.18258141 22.09132991 -0.00036132 -0.01045198 -0.00126130
C 12.28166620 26.89370395 1.72273054 0.00009777 0.00206937 0.00271708
C 15.48219724 23.66824577 2.99658093 -0.00177035 -0.00077785 0.00603227
C 12.41021069 26.59140567 6.46105094 0.00380142 0.00271806 -0.00347741
C 15.42813767 23.70084965 7.68266727 -0.00431567 0.00027865 -0.00054015
C 12.23417338 26.96615302 11.22855700 -0.00390615 0.00049748 -0.00275194
C 15.52248148 23.89857356 12.64047811 0.00214356 0.00456331 0.00385182
C 12.42010237 26.83686439 16.04559219 -0.00037109 0.00071105 0.00683517
C 15.26096293 23.78051855 17.29983535 -0.00127176 0.00232401 -0.00161282
C 12.28463773 26.85855584 20.80473559 0.00252749 -0.00603194 0.00143190
C 15.34944805 23.57601309 22.02638192 -0.00463342 0.00133922 -0.00409673
C 19.12958151 2.28974023 1.59690195 -0.00237666 -0.00000431 0.00415623
C 22.52986263 28.81430920 3.04826851 0.00108194 0.00552530 0.00512413
C 19.27484107 2.15336023 6.50551377 0.00302025 0.00522601 0.00679654
C 22.38010454 29.09672136 7.66934665 -0.00160316 0.00477222 -0.00338541
C 19.20787629 2.24216783 11.32518003 -0.00040345 -0.00012931 0.00524629
C 22.19631207 29.09583229 12.61163866 0.00199788 0.00409818 0.00667703
C 19.27760744 2.51756081 15.96109200 0.00025367 -0.00043792 -0.00068092
C 22.17260909 29.16682207 17.30386530 0.00568213 -0.00332710 -0.00070521
C 19.08350451 2.43373482 20.77991650 0.00413601 -0.00728630 -0.00581924
C 22.32882851 29.01630343 22.12246753 0.00498326 0.00244546 -0.00141179
C 18.67062950 8.86482034 1.79592494 -0.00166542 0.00324789 -0.00216887
C 21.82331549 5.66769986 3.16102757 0.00065662 -0.00714847 0.00150815
C 18.79377313 8.90094337 6.46213491 0.00171443 -0.00912507 -0.00116317
C 21.93302994 5.90115583 7.73840831 0.00270078 -0.00149391 -0.00427143
C 18.82493006 8.82286456 11.16032534 -0.00164635 0.00810355 0.00137977
C 21.82764336 5.97516548 12.57058817 0.00284622 0.00408000 0.00241788
C 18.68471908 8.98060479 15.90326066 -0.00789077 0.00399893 -0.00592710
C 22.01312905 5.85993772 17.40838033 0.00213789 0.00992966 -0.00238787
C 18.80284263 8.52746031 20.74411025 0.00854245 0.00262008 0.00000485
C 21.75813010 5.93507936 22.21764414 -0.00141593 -0.00652795 -0.00272467
C 18.15952756 15.30899446 1.64308921 -0.00386095 -0.00241922 -0.00567526
C 21.20413713 12.31619095 3.08938430 -0.00248529 0.00111148 0.00559616
C 18.22254493 15.39843141 6.41517483 -0.00196555 0.00151071 0.00073293
C 21.27740987 12.37663595 7.93608444 0.00641215 0.00408767 -0.00527829
C 18.35970417 15.27703257 11.19693480 -0.00200055 0.00235172 -0.00572502
C 21.66591442 12.40900153 12.75440069 -0.00031023 0.00317361 0.00087266
C 18.22122329 15.31902674 15.91348242 0.00073117 -0.00354642 0.00511651
C 21.37457032 12.06605715 17.36262074 0.00138721 -0.00101003 0.00149552
C 18.18770399 15.33894700 20.79534603 -0.00588311 0.00336504 0.00608374
C 21.37048856 12.15970141 22.14953702 0.00128957 0.00550775 -0.00142204
C 18.52971703 20.82383263 1.76775507 -0.00519994 0.00896327 0.00658015
C 21.71394659 17.95361371 3.02123770 -0.00275185 0.00647529 -0.00353515
C 18.60537555 20.95701737 6.56679851 -0.00353279 0.00991904 -0.00520619
C 21.63082708 17.98481537 7.69530548 0.00038527 0.00363358 -0.00118555
C 18.46867188 20.89300516 11.32412271 -0.00116806 0.00481113 0.00188403
C 21.65810647 17.94005760 12.57419033 -0.00020750 0.00194591 -0.00310404
C 18.59169886 20.96610827 16.08050880 0.00202720 -0.00713516 0.00625973
C 21.82340055 17.86075275 17.15271479 -0.00185815 0.00092388 0.00626180
C 18.62988771 20.92427331 20.80578901 -0.00206369 -0.00041121 -0.00448561
C 21.69346100 17.81437561 21.93714383 0.00058778 -0.00736429 0.00352744
C 18.82086550 26.34853285 1.87681696 0.00683232 0.00454419 0.00111046
C 21.90715836 23.55643062 3.20156509 0.00617954 0.00426460 -0.00467730
C 18.86349133 26.46211786 6.72285360 -0.00352017 0.00028998 0.00212275
C 22.17045816 23.57245031 7.81549119 -0.00043179 -0.00170019 -0.00703092
C 18.92549814 26.16681819 11.35810149 0.00216753 -0.00102480 0.00004651
C 22.11313168 23.33565037 12.55019912 -0.00063644 -0.00528166 0.00451974
C 18.84821231 26.51321782 16.13981896 0.00196360 0.00558013 0.00046253
C 22.11112758 23.62902899 17.21896707 0.00037679 0.00735844 0.00295396
C 18.85346951 26.37981049 20.62558787 -0.00027140 -0.00178926 0.00177815
C 21.88344071 23.54795753 22.12450540 -0.00453104 -0.00252433 0.00496495
C 25.11939754 2.89197536 1.75816520 -0.00068529 0.00350071 0.00567515
C 27.95302577 29.30792161 3.09884036 0.00428787 -0.00109423 0.00311907
C 25.06338412 2.73893180 6.48840729 -0.01289396 0.00330377 -0.00230588
C 28.31673708 29.47153051 7.83834155 -0.00303150 0.00159046 0.00430839
C 24.95162713 2.94806726 11.22111897 0.00395140 0.00164561 -0.00295470
C 27.99908796 29.54726716 12.50949312 0.00133282 -0.00548552 0.00236576
C 24.82557601 2.93767744 16.02402536 0.00138855 0.00837702 0.00336716
C 27.72582560 0.05417367 17.16515314 -0.00031255 0.00652940 -0.00543656
C 25.10199094 3.05657916 20.70523700 -0.00291014 0.00172172 0.00008097
C 27.90196937 0.01393985 22.06782343 -0.00167992 -0.00317122 0.00623814
C 24.52394082 9.14369169 1.72769009 0.00054464 0.00418546 -0.00105191
C 27.67975954 6.39468019 3.01065600 -0.00084855 0.00112498 0.00578172
C 24.46570113 9.39493562 6.46697993 0.00764904 -0.00389263 0.00290606
C 27.69206717 6.24685981 7.63251869 0.00308240 -0.00198617 -0.00127374
C 24.53847549 9.36699320 11.26851454 0.00324482 -0.00335290 -0.00003005
C 27.54416039 6.08694582 12.50264360 -0.00167307 -0.00339841 0.00384069
C 24.60092329 9.37888838 16.04483267 -0.00424732 -0.00091933 0.00261387
C 27.76503089 6.44305415 17.30799400 -0.00828369 0.00214394 -0.00125164
C 24.49587511 9.36252336 20.81087180 -0.00045547 -0.00625552 -0.00329360
C 27.46509936 6.43250797 22.03698016 0.00210616 0.00105492 0.00124321
C 24.76305192 14.84881492 1.73634125 0.00430321 -0.00316723 0.00064463
C 27.83028079 12.19262505 3.06612415 -0.00327601 -0.00124893 -0.00370597
C 24.86809479 15.29499618 6.63628203 -0.00162253 -0.00183775 0.00302427
C 27.86734738 12.00115939 7.77563984 -0.00565589 -0.00000846 -0.00406428
C 24.91375492 14.86913529 11.18621598 0.00333018 -0.00048452 -0.00250693
C 27.72055020 12.08234979 12.48959926 -0.00058125 0.00582725 -0.00387375
C 24.86027050 15.03973859 16.08701395 -0.00623646 0.00619253 -0.00440055
C 28.02832038 12.10013578 17.34999597 0.00352824 -0.00373806 -0.00402367
C 24.63062333 14.93283289 20.78695462 0.00554541 0.00317980 -0.00354827
C 27.94245075 11.89141941 22.11128089 0.00080022 0.00616802 0.00803720
C 24.92303811 20.59486029 1.80068414 -0.00095181 0.00246484 -0.00126260
C 28.37709576 17.48724943 2.96933530 0.01069296 0.00140218 0.00237926
C 25.08444418 20.52766677 6.48452295 -0.00313489 -0.00265475 0.00618293
C 28.04338538 17.72118283 7.69326210 -0.00140148 -0.00222867 -0.00151592
C 25.06072172 20.48985418 11.37258580 -0.00939079 -0.00089639 -0.00053401
C 28.19253960 17.65413548 12.52365010 -0.00017630 -0.00209927 0.00086625
C 25.16342419 20.48229327 16.07273524 0.00467547 -0.00771401 -0.00473475
C 28.28886579 17.56781598 17.34846154 0.00047186 -0.00596791 0.00379774
C 25.26406260 20.42744923 20.69962258 0.00140636 0.00015266 -0.00622705
C 28.04081897 17.69179583 22.11998786 0.00490680 0.00360934 0.00029231
C 25.31604383 26.03995256 1.78707152 0.00625812 -0.00428853 0.00214447
C 28.43407882 23.29638662 3.00086005 0.00586026 -0.00819191 0.00535294
C 25.52635790 26.00197690 6.69598467 0.00227494 -0.00227916 -0.00702774
C 28.37134573 23.16436567 7.80354787 -0.00145438 -0.00517699 -0.00596483
C 25.42715707 26.05682734 11.30100876 0.01271254 -0.00075509 -0.01032922
C 28.58410676 23.23794801 12.60239966 -0.00588293 -0.00131586 0.00019733
C 25.53090084 26.17322727 16.05946493 -0.00166651 0.00335378 -0.00549953
C 28.54412970 23.04407186 17.25359408 0.00160773 -0.00237715 -0.00081486
C 25.31520901 26.01524205 20.87244358 -0.00161250 0.00301912 -0.00150051
C 28.48758406 23.11675555 21.96842913 0.00012297 0.00641897 0.00248393
N 0.21792939 4.03657138 1.05201567 0.00489929 0.00074302 0.00583942
N 3.72115616 5.06180980 3.98669981 0.00621733 0.00420794 0.00563523
N 5.19811317 2.35153551 1.13993012 0.00061847 0.00143166 0.00452628
N 2.23843914 1.34738498 3.82631797 -0.00581314 0.00333914 -0.00232831
N 0.25553677 4.22459603 5.72297628 -0.00129418 0.00556102 0.00312937
N 3.72243809 5.25242670 8.48036272 -0.00170539 -0.00451233 0.00106504
N 5.36654165 2.31772298 5.83238963 -0.00025854 0.00378477 0.00500451
N 1.87852378 1.25416151 8.53388036 -0.00139706 0.00226090 0.00387218
N 0.29320897 4.11426144 10.57450812 0.00496656 0.00354979 -0.00020468
N 3.94437771 5.30144611 13.35458468 -0.00529847 0.00697813 0.00600394
N 5.25098118 2.22779479 10.73878651 -0.00335718 -0.00273059 0.00442315
N 2.03006589 1.24128603 13.04265279 -0.00387918 0.00768449 0.00378931
N 0.20781776 4.33687571 15.03470924 -0.00054152 -0.00008330 0.00626272
N 3.46999068 5.05434460 17.97515691 -0.01105854 0.00451932 -0.00156918
N 5.32977905 2.35775646 15.36923316 -0.00228320 0.00120373 -0.00045270
N 2.32768064 1.50845842 18.13716247 -0.00100538 0.00061233 0.00107922
N 0.13332939 4.16599622 20.20998909 -0.00339747 0.00078074 -0.00147097
N 3.41562803 5.15881444 22.89297686 0.00141105 -0.00411745 -0.00149301
N 5.58467547 2.16867942 20.00125818 -0.00165558 -0.00696963 0.00662517
N 1.89647926 1.10633427 22.83752822 0.00035505 -0.00286323 -0.00133798
N 0.48154920 10.01336218 1.08109917 0.00225671 -0.00086608 0.01134075
N 3.76058411 10.54735515 3.63772084 0.00042811 -0.00777155 0.00634197
N 5.64237896 7.86599866 0.91749185 0.00127335 -0.00340635 0.00055517
N 2.29553505 6.87955944 3.84243812 -0.00546288 -0.00234497 -0.00510178
N 0.68281926 9.78539811 6.00752865 0.00507303 -0.00459326 -0.00485911
N 4.04002366 10.75866737 8.44718197 -0.00127420 0.00284036 0.00578298
N 5.87359174 7.79272224 5.73919230 -0.00411094 -0.00234290 -0.00060352
N 2.39039579 7.06652422 8.67525929 -0.00083918 0.00273275 0.00575423
N 0.59322916 10.13331996 10.65239663 0.00514830 0.00132748 0.00169303
N 4.11768769 10.80787262 13.29108685 -0.00025272 -0.00703812 0.00775708
N 5.66071477 7.94209141 10.58683928 0.00577302 0.00130645 -0.01022655
N 2.51512581 7.12279589 13.19954480 -0.00577462 0.00041457 -0.01113629
N 0.56066666 9.88320252 15.29539637 -0.00314169 0.00528013 -0.00462539
N 3.91611203 10.89688316 17.93774657 -0.00039254 -0.00544240 0.00089583
N 5.73783518 7.86835347 15.32319479 -0.00014392 0.00702427 0.00549938
N 2.31467547 7.05364448 18.21286996 0.00131282 0.00465644 -0.00019880
N 0.63903452 9.71063384 20.00449120 0.00210182 -0.00417813 0.00194960
N 3.92170879 10.64279011 22.90349360 -0.00065463 -0.00248394 0.00494999
N 5.66319260 7.95058152 19.94922684 -0.00575576 -0.00287066 -0.00008314
N 2.20738946 7.15974723 22.83673537 0.00604256 0.00475309 -0.00496079
N 0.70759998 15.57663344 0.91791145 -0.00154668 -0.00771949 -0.00028795
N 4.10619700 16.57961933 3.81604029 0.00471392 0.00211511 -0.00299866
N 5.99279163 13.56099125 1.09532795 -0.00002453 0.00181875 0.00484908
N 2.62463299 12.47691528 3.67504148 0.00253169 -0.00009440 0.00929141
N 0.75584761 15.43997168 5.66772618 0.00293139 -0.00353466 -0.00012669
N 4.27286550 16.31253925 8.41239257 0.00444443 -0.00076013 -0.00104600
N 5.72339902 13.50170102 5.59140317 -0.00297505 -0.00363301 0.00156669
N 2.43328676 12.52822488 8.37773663 0.00431762 -0.00377864 0.00221398
N 1.15431889 15.45342353 10.18815503 -0.00133386 -0.00331000 -0.00327378
N 4.49727775 16.51614516 13.15079217 0.00285440 0.00525099 0.00319869
N 5.94744041 13.45488399 10.40196571 0.00843535 -0.00153508 0.00073909
N 2.89734807 12.75387371 13.51655961 -0.00361927 -0.00399629 -0.00166176
N 0.93811700 15.51125131 15.13168398 -0.00025464 -0.00061679 0.00107807
N 4.41711466 16.55363123 17.91454486 -0.00493427 -0.00380348 0.00531976
N 5.97748908 13.49433739 15.17718366 0.01053942 -0.00715868 -0.00624431
N 2.25556633 12.44529433 18.13888907 0.00506648 0.00342420 0.00241918
N 0.90207073 15.44232201 20.22720006 -0.00488595 0.00131736 -0.00802993
N 4.12743993 16.51942980 22.69535165 -0.00294321 -0.00363196 0.00606272
N 5.76148935 13.74830484 20.02827811 0.00105335 -0.00252625 -0.00100473
N 2.71198622 12.57929728 22.94855481 -0.00984966 0.00727261 -0.00704535
N 1.24924359 21.13446741 0.97228630 0.00138389 0.00884770 0.00604847
N 4.28660254 23.21837706 3.67865165 -0.00646603 0.00147628 -0.00207262
N 5.17809183 19.97893373 1.06178818 0.00132671 -0.00635147 -0.00008193
N 2.37534627 18.03402508 3.90628785 0.00361107 0.00337213 -0.00080987
N 1.36201546 20.94543897 5.75116240 0.00564192 0.00669140 -0.00121401
N 3.95498001 22.73252342 8.38122673 0.00055742 -0.00499313 0.00150889
N 5.33784359 19.99929662 5.58795265 -0.00359657 0.00049516 -0.00209564
N 3.04219978 18.21180003 8.40464622 -0.00153697 -0.00231028 0.00206766
N 1.31163488 21.02180796 10.53536355 0.00522285 0.00219964 0.00009526
N 3.95535352 23.17862152 13.23507150 0.00517862 0.00889388 0.00226087
N 5.44690968 19.61971277 10.54025114 -0.00460136 0.00599882 -0.00190360
N 2.80465316 18.14010728 13.24043626 -0.00203920 0.00078611 -0.00684626
N 1.20270344 21.32857113 15.51054559 0.00235776 0.00372433 -0.00131314
N 3.91849918 23.23902416 17.99260730 -0.00670342 0.00298941 -0.00478840
N 5.24866612 20.16972035 15.30050287 -0.00597068 0.00067829 -0.00066633
N 2.75933904 18.16147310 18.04698188 -0.00068677 -0.00270754 -0.00402992
N 1.32597358 21.05466495 20.02939781 -0.00356218 -0.00000508 -0.00338552
N 4.09133771 23.18277410 22.62515231 0.00028702 -0.00370765 0.00194563
N 5.52710680 19.95237299 20.04295392 0.00346592 -0.00261250 -0.00391412
N 2.61584143 18.18396759 22.72799967 0.00171361 -0.00256887 -0.00625251
N 0.50484669 27.51070091 1.18234889 -0.00056359 0.00533411 -0.00107102
N 3.61424977 29.19603248 3.92850908 -0.00038327 -0.00418926 0.00131698
N 4.98289275 26.34919299 0.83209793 -0.00134751 0.00234090 -0.00018551
N 2.42813518 24.41853412 3.79557369 -0.00941650 -0.00650432 0.00426044
N 0.80247005 27.36023530 5.65019192 0.00129039 0.00277191 -0.00113507
N 3.55681116 29.20941448 8.61673051 -0.00169908 -0.00059420 0.00460762
N 4.89229800 26.38626471 5.72387697 -0.00183148 -0.00034801 0.00003967
N 1.99860322 23.95187143 8.44653308 0.00141682 -0.00410748 -0.00307199
N 0.74976139 27.17234978 10.44674912 -0.00185116 -0.00016016 0.00624603
N 3.55344772 29.11928014 13.41769664 -0.00019381 0.00428141 -0.00222240
N 4.94842191 26.30356385 10.44153945 -0.00283239 0.00022686 0.00005740
N 2.04334905 24.44690842 13.34839520 0.00493113 -0.00030120 0.00896551
N 0.51102398 27.89578782 15.20710092 -0.00281501 0.00124866 -0.00078834
N 3.55485038 29.13713818 17.85995073 0.00328147 0.00310043 0.00363379
N 4.75014881 26.46638470 15.23172062 -0.00174020 -0.00477165 -0.00035357
N 2.08275045 24.71638427 17.87181676 0.00226577 -0.00623742 -0.00161707
N 0.79966848 27.72631808 20.05187431 -0.00525048 0.00154969 0.00796794
N 3.56684931 29.12143534 22.60650371 -0.00169362 0.00039577 0.00465396
N 4.98679416 26.20594252 19.99248451 0.00695283 -0.00057526 0.00331788
N 2.10707243 24.48093997 22.69439466 0.00734118 -0.00121941 -0.00292878
N 6.59111139 4.23916557 0.97633670 -0.00307847 0.00081777 -0.00289439
N 10.11779407 4.78953413 3.65107560 0.00466644 -0.00148000 0.00054628
N 11.94981473 1.87962203 0.80061628 0.00281438 -0.00012802 0.00356602
N 8.67221900 1.18839486 3.59334838 -0.00375579 0.00226972 -0.00584315
N 6.98395471 3.93774719 5.82473968 -0.00804948 -0.00149626 -0.00762258
N 10.00268711 4.91274669 8.44897431 -0.00653619 -0.00296075 0.00091605
N 11.87162861 1.74350592 5.68303659 0.00315034 -0.00672922 -0.00765360
N 8.43057021 1.15822706 8.47656042 0.00092782 -0.00144554 0.00270121
N 6.88434012 3.87222966 10.60916989 0.00122947 -0.00253777 -0.00122966
N 10.09652140 4.70208666 13.48557251 0.00144236 0.00026563 -0.00023724
N 12.02547975 1.92935300 10.33716573 -0.00104075 -0.00162089 -0.00141999
N 8.60306077 1.16587125 13.06909737 -0.00046883 0.00263688 -0.00205000
N 6.85183530 4.05994560 15.19825859 0.00003827 -0.00207662 -0.00744837
N 10.14957678 5.09926510 18.01113604 -0.00364989 -0.00002523 0.01007609
N 11.81631202 2.10569090 15.20640348 -0.00034295 -0.00357987 -0.00223186
N 8.72597518 1.11351245 18.08793856 -0.00155288 -0.00064656 -0.00019838
N 6.85113788 4.13818894 20.33023957 -0.00540633 -0.00400265 -0.00074970
N 10.18768840 4.99329180 22.78980125 -0.00334357 0.00294687 -0.00003531
N 12.03680844 1.92441790 19.91046117 -0.00659549 0.00382173 -0.00557140
N 8.38834263 1.26500075 22.64671325 -0.00217676 -0.00229872 0.00052314
N 7.09265576 9.67620952 0.91456574 0.00151671 -0.00391491 0.00391608
N 10.33605877 10.31726503 3.66223815 0.00123148 0.00186779 0.00374739
N 12.13354162 7.67223727 1.16592064 0.00093347 -0.00492561 -0.00296333
N 8.84819476 6.78927194 3.57099271 0.00283044 -0.00309925 0.00314236
N 7.14343671 9.62698052 5.92224209 0.00085196 -0.00221977 0.00591898
N 10.53379703 10.56734626 8.51881140 -0.00094504 0.00473810 0.00495733
N 12.01907358 7.32591093 5.80925787 -0.00128964 0.00017806 -0.00089879
N 8.54189843 6.66241792 8.60816013 0.00153240 -0.00058848 -0.00200771
N 6.87965491 9.87554039 10.64823328 0.00247096 -0.00455032 0.00152310
N 10.76337069 10.67444788 13.37441596 -0.00261478 -0.00069064 0.00274267
N 12.17907716 7.62512973 10.58442392 -0.00241793 0.00640782 -0.00061168
N 9.09379954 6.81693746 13.41394777 -0.00369406 0.00546515 -0.00051153
N 7.16947543 9.64501743 15.27705422 0.00907168 0.00176716 0.00382685
N 10.57925204 10.72239185 17.86036870 -0.00199756 0.00197144 0.00076923
N 12.23010403 8.07805177 15.27992003 0.00247020 -0.00458042 -0.00762480
N 8.80572765 6.91330264 17.90439442 -0.00504421 -0.00273634 0.00131022
N 7.20944624 9.66756253 20.17979855 0.00034982 -0.00482927 -0.00105547
N 10.36804052 10.65304673 22.66320496 -0.00073396 -0.00234929 -0.00169149
N 12.09002799 7.76009296 20.11271755 -0.00273576 0.00245995 0.00310132
N 8.68249245 6.72235060 22.55816309 0.01108628 0.00165180 0.00517521
N 7.34366512 15.39258628 1.13798203 -0.00020930 0.00460434 -0.00036282
N 9.98740274 17.09394962 3.68778151 0.00179571 -0.00281586 0.00494869
N 11.73203021 13.89373172 1.09450957 -0.00457155 0.00019843 -0.00192589
N 8.89544579 12.12689124 3.75057865 -0.00000251 0.00153607 -0.00132435
N 7.62038715 14.79043307 5.69732616 0.00349543 0.00509287 0.00129487
N 10.40199850 17.13198061 8.63664579 -0.00639095 0.00467853 -0.00337401
N 11.62379863 13.94111339 5.76122433 -0.00370085 -0.00168175 0.00538691
N 8.94271339 12.25567984 8.54704064 -0.00429415 0.00122927 0.00256882
N 7.68055658 15.07266968 10.48586674 -0.00141481 -0.00110298 -0.00609471
N 10.33974254 17.10294521 13.32942982 -0.00443914 0.01230434 0.00442510
N 11.71375791 13.94869938 10.55993190 0.00289898 0.00115060 0.00740918
N 9.07604556 12.19381483 13.16692703 -0.00860772 -0.00240978 -0.00299131
N 7.47745217 15.25997843 15.39625470 -0.00367015 0.00248351 0.00430817
N 10.43613222 17.19013863 17.89055445 -0.00054899 0.00217163 0.00013721
N 11.77213236 13.96992383 15.35951090 0.00829042 0.00799526 0.00424261
N 8.78024073 12.13702460 18.12738499 0.00534684 0.00218832 -0.00162371
N 7.37259229 15.19607130 20.16536009 0.00295327 0.00333754 -0.00723969
N 10.26775001 17.33023734 22.69848709 0.00155122 0.00311563 -0.00182638
N 11.52323032 14.18055752 20.30705474 -0.00361309 -0.00007022 0.00087894
N 9.05624264 12.48027062 22.85556171 0.00825130 -0.00298192 0.00114900
N 6.84196967 21.47289937 0.84308888 0.00760775 0.00782383 -0.00847948
N 9.35441806 23.35914363 3.74031845 0.00024479 0.00311229 -0.00106954
N 10.97977692 20.45813906 0.97164521 -0.00387935 -0.00768819 0.00188939
N 7.98094684 18.26513015 4.00203382 0.00047922 -0.00450819 0.00689572
N 6.91608733 21.69797586 5.63415442 0.00270154 0.00043833 0.00356300