2000
Time=14000.00000000 pbc="T T T" Lattice="31.04024778 0.00000000 0.00000000 0.00000000 29.98087567 0.00000000 0.00000000 0.00000000 23.67628266" energy=-12038.11842620 virial="-71.82342408 -41.44945620 -41.52711881 -41.44945620 -64.72165259 -16.86946598 -41.52711881 -16.86946598 -85.22201431" stress="-0.00124964 -0.00189351 -0.00186953 -0.00189351 -0.00084439 -0.00071653 -0.00186953 -0.00071653 -0.00096998" Properties=species:S:1:pos:R:3:vel:R:3
C 30.41021641 3.49654944 1.75024634 0.00038991 -0.00135877 0.00267621
C 2.62562783 0.62196898 2.97716955 -0.00169857 0.00464538 0.00176695
C 30.41696153 3.59563585 6.43480599 -0.00537204 -0.00511530 -0.00368980
C 2.39206779 0.43680622 7.69320719 -0.00092882 -0.00039963 -0.00506858
C 30.38465003 3.57032541 10.98986949 -0.00117577 -0.00108406 0.00212546
C 2.56671477 0.39207437 12.38490141 -0.00441139 0.00556593 0.00371524
C 30.58497837 3.41549036 15.89817538 0.00477043 -0.00520313 0.00600969
C 2.81896033 0.54832108 17.18931901 -0.00878971 0.00356169 0.00275345
C 30.38729000 3.87979404 20.58366435 0.00483109 -0.00028421 -0.00196144
C 2.54958517 0.60120777 21.83616227 -0.00241346 -0.00033705 0.00984007
C 30.65480597 9.25657474 1.63875916 -0.00197995 0.00031928 -0.00882714
C 3.10456289 6.20983425 3.00182577 0.00020045 0.00120442 0.00118973
C 30.93201407 9.29779734 6.44286245 -0.00030706 0.00567708 -0.00597905
C 2.96991446 5.99342133 7.82325561 0.00098453 -0.00365690 -0.00827910
C 30.85051183 9.35454434 11.16323194 0.00263810 0.00670348 0.00323534
C 2.82073727 6.04672145 12.50303186 -0.00025732 -0.00197493 -0.00105750
C 0.00087160 9.40744647 15.92039158 -0.00000974 -0.00089748 0.00187682
C 2.78354914 6.16080283 17.20953424 0.00100656 -0.00510744 0.00450199
C 30.75039251 9.02753742 20.69570754 -0.00181452 0.00054294 -0.00414567
C 2.98492805 6.23230718 21.82323988 0.00015339 -0.00060345 -0.00209957
C 0.25515022 14.73186503 1.78793180 0.00144415 0.00420909 0.00259952
C 3.10281898 11.82200792 2.94898314 -0.00420084 -0.00177423 -0.00371276
C 0.32773048 14.82552443 6.60036056 0.00146002 -0.00142747 -0.00260701
C 3.41177614 11.94512185 7.53161777 -0.00359292 -0.00324327 0.00585489
C 0.08743698 14.90141544 11.14564691 0.00161135 0.00516682 -0.00210019
C 3.30259501 11.87901405 12.28922851 0.00110064 -0.00256798 -0.00167270
C 0.30272309 14.58869925 15.99920273 0.00181823 0.00295446 -0.00246335
C 3.33716156 11.85430557 17.33811783 -0.00382995 -0.00842427 0.00351622
C 30.96934244 14.75530403 20.73147165 -0.00035298 0.00544515 -0.00951931
C 3.49041402 11.78484710 21.94905534 -0.00082649 0.00067136 0.00397728
C 0.72999434 20.29931418 1.51040563 0.00329643 0.00056119 -0.00363151
C 3.52025845 17.44588342 3.10701404 0.00370467 0.00026957 0.00840862
C 0.56718579 20.38382638 6.46761292 -0.00194964 -0.00387645 -0.00310259
C 3.71609648 17.49955506 7.70005883 -0.00760567 0.00135777 -0.00562793
C 0.57103252 20.37607585 11.03639767 0.00029503 -0.00030849 0.00178408
C 3.66918805 17.16171013 12.47008456 0.00155640 0.00409058 -0.00227554
C 0.80428793 20.33713288 15.90643578 -0.00164550 0.00685074 0.00215956
C 3.56013367 17.38237695 17.30490651 -0.00207056 0.00829192 -0.00437206
C 0.47485030 20.31225002 20.60842268 -0.00273536 -0.00214568 -0.00201305
C 3.55587983 17.46844353 21.97366360 -0.00035249 0.00033247 -0.00619879
C 30.89808775 27.03831970 1.70979111 -0.00359859 0.00635849 0.00149821
C 2.93183771 23.93335602 2.99407906 -0.00220433 -0.00748312 -0.00168128
C 30.88421233 27.11825419 6.40458730 0.00092993 -0.00225360 -0.00634874
C 2.97021672 24.14454549 7.70810164 -0.00668815 -0.00742358 0.00098597
C 30.90393351 27.24155698 11.25240813 0.00581454 0.00261423 -0.00164815
C 2.86457312 23.73802602 12.76416640 -0.00437751 0.00438354 -0.00613429
C 31.01211722 26.72491016 15.98028226 0.00014443 0.00211963 0.00228976
C 3.19306656 23.91972250 17.30864924 -0.00190886 0.00382518 0.00123898
C 30.98224624 26.94588451 20.57908076 0.00502869 0.00152741 0.00160378
C 3.06654162 24.05813052 22.04611836 0.00136601 0.00035029 0.00394666
C 6.20851310 3.26372772 1.67153896 -0.00262941 0.00053780 -0.00164291
C 9.16281319 0.25340621 3.13151706 0.00498529 -0.00262238 0.00783668
C 6.28915130 3.11620897 6.53471552 0.00097127 -0.00150419 0.00300693
C 9.31846434 0.23879812 7.79598228 -0.00157912 -0.00955554 0.00248573
C 6.11887904 3.31182089 11.24716061 0.00718975 0.01163595 -0.00448615
C 9.20036177 0.18143745 12.36093736 0.00090916 -0.00062307 -0.00146872
C 5.93861191 3.07041239 15.82695722 -0.00328488 0.00267664 0.00129567
C 9.09356039 0.08892516 17.04938259 0.00330815 0.00192567 0.00292615
C 6.12699506 3.36935127 20.55072512 -0.00259715 0.00004125 -0.00522313
C 8.86307022 29.96957378 22.02597435 -0.00083790 0.00307243 0.00226326
C 6.39694882 8.69155937 1.60234304 -0.00390788 -0.00375649 -0.00082067
C 9.56330521 5.84591484 3.07138070 0.00254823 -0.00251466 -0.00174885
C 6.45282471 8.69686100 6.40540833 -0.00013834 0.00233816 0.00016725
C 9.47544295 5.74018060 7.94820282 0.00571548 0.00320642 -0.00066891
C 6.41840790 8.76048233 11.19133382 -0.00398461 -0.01115190 0.00193073
C 9.45260281 5.91534169 12.58776347 0.00103108 -0.00279620 0.00403456
C 6.29417462 8.75987610 15.98808768 -0.00251137 0.00104154 0.00308551
C 9.65317630 5.78354810 17.13274963 0.00160874 -0.00143196 0.00397924
C 6.31908694 8.68746105 20.79406399 -0.00075909 0.00261595 0.00214801
C 9.51161535 5.75473330 21.94088548 -0.00553725 -0.00204367 0.00125203
C 6.83949721 14.46724136 1.67131990 -0.00147643 0.00756579 -0.00199661
C 9.91686875 11.48309387 2.92674581 -0.00186805 -0.00042923 -0.00005121
C 6.87731472 14.32174075 6.32437457 -0.00046935 0.00032614 -0.00720143
C 9.90875275 11.34510613 7.69808305 -0.00023511 0.00127684 0.00307825
C 6.80521924 14.59111383 11.23268511 -0.00263839 -0.00047647 -0.00049842
C 9.72426386 11.40808428 12.42586933 0.00076752 -0.00331458 0.00656762
C 6.67315403 14.36952224 15.99629432 0.00102005 -0.00033782 -0.00358824
C 10.06647403 11.35050863 17.07319374 -0.00833257 -0.00038287 0.00671095
C 6.97642578 14.32747626 20.55366445 0.00182102 0.00909499 -0.00624920
C 9.92154966 11.50329503 21.97031719 0.00008043 0.00347092 0.00045968
C 6.17188884 20.97747482 1.75294982 -0.00393591 0.00428044 0.00279825
C 9.34124377 18.09200710 3.02001529 0.00850733 0.00675747 0.00490241
C 6.13939773 21.00820715 6.49051908 -0.00237652 0.00033934 -0.00157670
C 9.24009369 17.98372607 7.68001373 -0.00968434 -0.00193090 0.00172312
C 6.07484304 21.11475856 11.29500752 -0.00144121 -0.00096215 -0.00672467
C 9.44726096 17.87150183 12.48044292 -0.00150388 0.00164082 -0.00399426
C 6.32115153 20.84136301 15.83117504 0.00430377 0.00619070 0.00131071
C 9.34703777 18.01353264 17.28213517 0.00325456 0.00534391 -0.00390484
C 6.28186520 20.82592756 20.66743673 -0.00217005 -0.00032281 0.00070886
C 9.27056487 18.00412207 21.94658012 -0.00231030 -0.00165224 0.00175202
C 5.60551270 27.47796924 1.69484749 -0.00136952 -0.00643404 0.00336182
C 8.60084592 24.67681714 3.16716796 -0.00027751 -0.00020880 0.00301108
C 5.64089981 27.62172777 6.52903215 -0.00063399 0.00145302 -0.00175324
C 8.87752729 24.75996217 7.88196450 -0.00167107 0.00273631 0.00732951
C 5.69929956 27.57613041 11.18844052 -0.00264366 -0.00316176 -0.00270827
C 8.54037156 24.45693677 12.52456888 -0.00340274 -0.00104394 -0.00090813
C 5.67543145 27.27095099 15.90255357 -0.00461777 0.00565515 0.00431379
C 8.72155891 24.50072696 17.26734673 -0.00320388 -0.00142884 0.00659524
C 5.57390593 27.60042723 20.59596021 -0.00159409 -0.00217761 -0.00255252
C 8.60100679 24.69155674 21.86083210 -0.00049909 -0.00052435 -0.00395815
C 12.63796017 2.75550954 1.71805658 0.00782803 0.00097650 0.00038010
C 15.78311954 29.46974497 2.97803124 0.00555567 -0.00080914 0.00032852
C 12.72723541 2.93254820 6.32909397 -0.00085547 -0.00720394 0.00092779
C 15.71666115 29.64954689 7.77550192 -0.00530400 -0.00144288 0.00062056
C 12.74370237 3.05606550 11.23916386 0.00475227 -0.00017148 0.00277548
C 15.67688890 29.83217441 12.72348848 -0.00596344 -0.00318365 -0.00303370
C 12.65980922 2.72107085 15.92578203 0.00677630 0.00228651 -0.00140130
C 15.70583203 29.87783055 17.22705832 0.00022614 0.00008079 0.00345568
C 12.62778766 2.60222470 20.67302796 0.00259475 0.00156166 -0.00104879
C 15.77466830 29.81076910 21.81997597 -0.00102262 0.00466920 0.00458609
C 13.18963940 8.42383865 1.71301039 -0.00155260 0.00668192 -0.00042959
C 16.29181825 5.50131307 2.82120888 -0.00410906 0.00290890 -0.00070069
C 13.03210561 8.58806954 6.36623595 0.00402537 -0.00292374 0.00054158
C 16.14583449 5.39700800 7.67134793 0.00331741 0.00318180 0.00556975
C 13.00376193 8.48254854 11.11781805 0.00794611 0.00126479 0.00906049
C 16.14767132 5.70665634 12.29854910 -0.00619218 0.00737076 -0.00077111
C 13.05028658 8.52029839 15.91090538 -0.00631729 -0.00375481 -0.00195201
C 16.37191458 5.49157736 17.08409577 -0.00601017 0.00020072 0.00214666
C 13.22871872 8.46843027 20.59625037 0.00993549 0.00256091 0.00128755
C 16.19448734 5.25300534 22.05208279 -0.00091365 0.00086685 0.00552752
C 12.30088940 15.07002173 1.76958038 -0.00386684 -0.00203278 0.00154116
C 15.64678152 12.24499490 2.99366725 -0.00051972 -0.00253689 -0.00291195
C 12.49626894 14.90058668 6.45830047 -0.00152256 0.00406489 -0.00122280
C 15.53998296 12.00590489 7.65109817 0.00495399 0.00646012 -0.00119902
C 12.40332123 14.92948490 11.14335729 -0.00506398 0.00008465 0.00748405
C 15.16694695 11.79813958 12.42050979 0.00162815 -0.00301058 -0.00309658
C 12.46702313 15.02531803 16.07724030 0.00539993 -0.00116500 -0.00299782
C 15.61830016 12.26589709 17.16950195 0.00784480 -0.00062635 0.00300926
C 12.40651685 15.06409179 20.82199597 -0.00573255 0.00016914 0.00226947
C 15.34334217 12.16460144 21.96379602 -0.00172714 0.00061635 -0.00505547
C 11.65289806 21.71938262 1.78461660 -0.00043397 -0.00095240 -0.00443671
C 15.15798320 18.52302656 3.07390789 -0.00060064 -0.00323038 0.00014388
C 11.90909979 21.46244564 6.49018899 -0.00270507 0.00468244 0.00159629
C 15.00033778 18.44804692 7.64338499 0.00307107 -0.00165146 -0.00452622
C 11.83573410 21.64276806 11.08775126 -0.00307393 0.00313433 0.00329400
C 14.79725763 18.44023140 12.49096954 0.00462033 0.00361733 -0.00088369
C 11.65474486 21.73668086 15.80817634 -0.00556349 0.00591996 -0.00107075
C 14.97742726 18.48509938 17.18154816 -0.00207528 -0.00568023 -0.00527734
C 11.88429709 21.60351847 20.67063553 0.00362699 0.00381524 -0.00188391
C 14.88445952 18.73330697 22.07127150 0.00099929 -0.00224375 -0.00123337
C 12.20850450 27.14434655 1.67489062 -0.00151914 -0.00579645 0.00591525
C 15.43118962 24.11148930 2.95627019 -0.00123197 0.00095257 0.00546245
C 12.24888371 27.01801184 6.35896725 -0.00459701 -0.00609261 -0.00173181
C 15.09085353 24.03272785 7.80278946 -0.00067911 0.00110328 -0.00352036
C 12.24890585 27.34286933 11.29228164 0.00172278 0.00379533 0.00308118
C 15.45535283 24.24364282 12.48956607 0.00120383 0.00177118 0.00308929
C 12.11432963 27.30220560 15.97388127 -0.00078458 -0.00011629 -0.00081304
C 15.20411936 24.05614983 17.37655584 0.00037653 -0.00097044 -0.00482534
C 12.31371258 27.18113408 20.67863991 -0.00449494 -0.00490463 -0.00080849
C 15.19527587 24.25023171 22.08047046 -0.00952790 -0.00057547 -0.01170074
C 19.48319441 2.13351054 1.69516941 -0.00335457 0.00234685 0.00306498
C 22.16995562 29.21890602 3.06869736 -0.00140916 0.00253235 -0.00078575
C 19.27216042 2.29162688 6.51313201 0.00319383 0.00657101 -0.00590451
C 22.23476078 29.28312891 7.74813748 -0.00103252 0.00669605 -0.00037449
C 19.31260402 2.41764186 11.31752318 -0.00605619 -0.00421750 0.00431456
C 22.29300675 29.33301887 12.47551494 0.00002605 0.00140819 -0.00346942
C 19.24097993 2.48288322 15.86443828 0.00189770 0.00157408 -0.00461750
C 22.16371305 29.43699664 17.14891826 0.00018536 0.00816177 -0.00280642
C 18.99661463 2.53911808 20.73324899 0.00143549 0.00115060 0.00066348
C 22.28595109 29.34427755 21.87154881 -0.00106628 -0.00486839 0.00181865
C 18.60804931 9.13398753 1.69905792 0.00138490 0.00551589 -0.00030394
C 21.64604475 5.73975570 2.99728930 0.00216518 0.00119938 0.00017856
C 18.88516883 8.77384776 6.29346712 0.00386789 0.00041219 0.00274472
C 21.93431188 6.05182521 7.57165373 0.00480701 -0.00496867 -0.00127082
C 18.82789335 9.08946002 11.14182284 0.00248051 -0.00289194 0.00347441
C 21.53928411 6.03211994 12.41457440 -0.00291934 0.00787730 -0.01003766
C 18.72794312 9.13808311 15.84874187 -0.00017778 -0.00532624 0.00030366
C 21.64606616 5.89701418 17.20899666 -0.00075173 -0.00167437 0.00293690
C 18.64043369 9.17685131 20.53770741 0.00490884 0.00667375 -0.00008214
C 21.46720234 6.22462441 22.03734763 -0.00687399 0.00407728 0.00438581
C 18.10264885 15.75030857 1.68762786 -0.00585332 -0.00479891 0.00235520
C 21.15844811 12.71215352 3.00830685 -0.00285562 0.00211557 -0.00969914
C 18.03774769 15.61005528 6.44754430 0.00406541 0.00034025 -0.00094238
C 21.20011346 12.72793600 7.74956201 0.00011992 -0.00093409 -0.00209301
C 18.01836848 15.52083330 11.14752917 -0.00222958 0.00430998 0.00149339
C 21.02820179 12.65690139 12.42357993 0.00229039 -0.00083141 -0.00537799
C 17.99396765 15.70178466 15.89808345 -0.00382074 -0.00138226 0.00283147
C 21.21865290 12.63626881 17.18411237 0.00132793 -0.00393943 0.00072068
C 17.99352847 15.71020081 20.54533007 0.00622879 -0.01259462 0.00029640
C 21.37194341 12.74330893 21.90132934 -0.00863329 0.00049939 -0.00068382
C 18.54338691 21.33646849 1.81583546 0.00117073 0.00280836 -0.00269286
C 21.68270384 18.07057920 3.00262387 0.00046379 -0.00055375 0.00280052
C 18.61376372 21.08838376 6.53421534 -0.00739078 -0.00252246 -0.00095368
C 21.39584418 18.32437674 7.88553923 -0.00063156 0.00020625 -0.00009623
C 18.55088765 21.20680096 11.19845816 0.00243226 0.00242501 -0.00128539
C 21.41238266 18.17751926 12.45959121 0.00581701 0.00065603 0.00138574
C 18.14461998 21.07824591 15.91301029 0.00306679 0.00504001 0.00055461
C 21.61740411 18.42105150 17.23269915 -0.00260512 0.00893444 -0.00394607
C 18.40425255 21.29535504 20.66781880 -0.00155586 0.00662221 -0.00358950
C 21.53709766 18.31400847 21.84432098 0.00602545 0.00059557 -0.00321891
C 18.84700256 26.87715114 1.76639108 0.00269324 -0.00053138 -0.00245113
C 21.88194066 23.85808886 3.12183532 0.00280114 0.00171098 -0.00372792
C 18.81977917 26.60850257 6.39783007 -0.00483842 0.00027402 0.00726189
C 21.95031572 23.73657551 7.75767167 -0.00043303 0.00012616 -0.00269958
C 18.83371549 26.59151420 11.27704819 -0.00434478 0.00035366 -0.00379313
C 21.72144871 23.87933114 12.48816138 0.00637479 -0.00613700 0.00813850
C 18.82831574 26.62329676 15.94666784 0.00176170 0.00496413 -0.00058033
C 21.81692191 23.93257479 17.20686079 0.00196291 0.00506317 -0.00426553
C 18.76568479 26.72842456 20.63037413 -0.00635173 0.00088729 0.00073325
C 21.87502337 23.83102538 21.90613821 0.00233776 -0.01060606 0.00159668
C 24.69269873 2.81389376 1.71570156 -0.00078414 -0.00656804 0.00452515
C 27.73953224 29.96319915 3.01682074 -0.00048702 0.00049068 -0.00612353
C 24.82570869 2.73299120 6.37836322 -0.00335894 0.00945133 0.00280204
C 27.91773980 29.82210671 7.90110325 0.00553865 0.00423024 -0.00019861
C 24.79571613 3.01679617 11.29419865 -0.00313464 0.00105751 0.00916852
C 27.71365554 29.73278929 12.53955259 0.00390674 0.00551891 -0.00436657
C 24.71789907 3.04695528 15.98178058 0.00058375 -0.00227076 -0.00556061
C 27.96569357 29.91073561 17.30831277 -0.00775950 0.00748716 0.00274006
C 24.61717758 3.06063685 20.79397980 0.00176921 -0.00265884 -0.00269866
C 28.07282845 0.08900258 21.87790261 0.00519253 0.00193055 -0.00210376
C 24.29008488 9.59536027 1.63852938 0.00343508 0.00013947 -0.00680970
C 27.21961142 6.14858628 2.98453042 -0.00560030 0.00216519 -0.00452624
C 24.39741479 9.61618231 6.40358588 0.00351720 -0.00099787 -0.00298623
C 27.25313850 6.63565103 7.70635657 -0.00304460 0.00565617 -0.00376639
C 24.14033383 9.65232889 11.27210816 0.00100468 0.00604192 -0.00114666
C 27.29585686 6.50548865 12.64686247 -0.00379321 -0.00221279 -0.00040329
C 24.24925636 9.54221574 15.85855155 -0.00420846 0.00515630 0.00037276
C 27.19801851 6.41564232 17.34233709 0.00245984 0.00428124 0.00182749
C 24.29821925 9.48521384 20.64053883 0.00010343 0.00492014 0.00057674
C 27.17350450 6.23187591 21.93474882 -0.00064930 0.00657612 0.00304739
C 24.63404545 15.16357853 1.77085117 0.00033229 0.00111235 -0.00270883
C 27.83929208 12.26874907 2.94936004 -0.00817736 -0.00158301 0.00167110
C 24.63700796 15.31556185 6.67309774 -0.00475573 0.00140452 0.00413579
C 27.75337410 12.22023386 7.66607870 0.00457202 0.00123723 -0.00164904
C 24.74897168 15.31437499 11.21594833 -0.00072266 0.00172441 -0.00113460
C 27.77209286 12.14954598 12.55033300 -0.00409595 0.00441854 -0.00137687
C 25.00175747 15.57028210 15.84187485 0.00446199 -0.00318419 -0.00469271
C 27.68120054 12.21860490 17.07303981 -0.00067596 0.00481258 -0.00206181
C 24.71393144 15.23883227 20.83978790 -0.00002375 0.00379438 -0.00760433
C 27.46962361 12.01057929 21.98549286 0.00395430 0.00080434 -0.00042785
C 25.01391831 20.66451175 1.76297551 0.00023832 -0.00126070 0.00632319
C 28.16063650 17.85872728 3.05438185 -0.00229096 -0.00164297 0.00107165
C 25.13837112 20.77821878 6.53336062 -0.00039787 0.00005816 -0.00419197
C 28.01930602 17.89947745 7.92418230 0.00134173 -0.00025421 -0.00533877
C 25.02010055 20.87627562 11.40018649 0.00036324 -0.00195788 0.00721072
C 28.27712005 17.94223527 12.51550467 0.00281194 -0.00642596 -0.00059556
C 25.04676041 21.08474675 16.04917391 0.00985134 0.00335108 -0.00385144
C 28.11022414 17.86473658 17.23751561 0.00152060 -0.00720906 -0.00319593
C 25.12901326 20.89912554 20.64429081 -0.00275703 -0.00462902 -0.00171027
C 28.20749500 17.75288915 21.98144407 0.00089792 0.00161784 0.00024907
C 25.45203360 26.24558990 1.78479795 0.00682486 -0.00491338 -0.00122602
C 28.44901555 23.43075693 2.95484982 -0.00514925 0.00060956 0.01004040
C 25.31464760 26.36073416 6.57709082 0.00458202 0.00536854 -0.00071648
C 28.66373820 23.41588529 7.80798426 -0.00412831 0.00599812 0.00476809
C 25.35256678 26.32803653 11.42369669 -0.00686183 -0.01078978 -0.00160776
C 28.52887628 23.48310650 12.38507731 0.00181906 0.00079706 0.00680861
C 25.20058781 26.46255089 16.08059227 -0.00116702 -0.00005731 -0.00191708
C 28.47278388 23.57806305 17.26649276 0.00040651 0.00391180 -0.00615987
C 25.51308513 26.37143935 20.64301511 -0.00321015 -0.00201257 0.00036132
C 28.37117091 23.36301284 21.94773375 0.00045356 -0.00532847 0.00106816
N 0.30479216 4.18549579 1.00267073 -0.00064858 -0.00968318 0.00478354
N 3.68864730 5.28052878 3.83704203 -0.00370782 -0.00009715 -0.00444921
N 5.48444068 2.34245768 0.97273743 -0.00095049 -0.00340705 0.00199162
N 1.98965241 1.59876957 3.73770009 0.00133082 -0.00661910 -0.00153721
N 0.18113807 4.43061806 5.68325031 0.00420720 0.00115690 -0.00064507
N 3.46504134 5.06396550 8.67719019 0.00214601 0.00354868 -0.00122902
N 5.28614053 2.35729724 5.99736601 0.00155944 0.00060315 0.00262276
N 1.47181164 1.28816054 8.25416232 0.00213887 -0.00053628 -0.00541804
N 0.19832548 4.29586409 10.29010833 -0.00592191 0.00088666 -0.01083192
N 3.62203819 5.13178040 13.27090269 -0.00500134 0.00094471 -0.00289683
N 5.22703710 2.46429256 10.63211441 -0.00306256 -0.00290599 -0.00633443
N 1.61450620 1.04355914 13.13521280 0.00093856 -0.00328420 0.00516925
N 0.29862385 4.25396455 15.07848485 -0.00246040 0.00147360 -0.00448332
N 3.42514541 5.07503340 17.80001588 0.00087055 -0.00197964 -0.00144577
N 5.33476037 2.21338934 14.97213021 0.00334279 0.00097894 -0.00660549
N 1.93160139 1.32331605 17.86498197 -0.00415502 -0.00125700 -0.00593459
N 0.20374057 4.51271776 19.79409877 -0.00116911 0.00264980 0.00138977
N 3.33940551 5.22398253 22.61250353 0.00639494 -0.00287838 -0.00025596
N 5.29940667 2.43027592 19.96851863 0.00185509 0.00732791 0.00391536
N 1.68612797 1.52658309 22.33935674 -0.00196424 0.00345650 -0.00170447
N 0.40257846 10.10059881 0.90114669 0.00553404 0.00387411 0.00487675
N 3.90796440 11.01257972 3.69402942 0.00276314 0.00074679 0.00159514
N 5.62036525 7.89440132 0.88810840 -0.00358973 0.00294916 -0.00524982
N 2.35932842 7.13006762 3.64973542 0.00696546 0.00672766 -0.00294465
N 0.73974381 10.16007147 5.84568174 -0.00611357 -0.00720086 0.00439348
N 4.26670316 11.06273926 8.19019461 -0.00141642 0.00321490 -0.00156775
N 5.67685823 7.88273821 5.69852334 -0.00184878 -0.00190101 0.00587235
N 2.36606603 7.02820145 8.46276960 -0.00747508 0.00083031 0.00010675
N 0.52981248 10.18532225 10.31949809 -0.00208571 0.00683284 -0.00180876
N 3.97464889 10.90393113 12.93161084 -0.00025214 -0.00306159 -0.00664372
N 5.54896791 7.90053883 10.61391900 -0.00093551 -0.00828284 0.00289402
N 2.22789542 7.03870574 13.19220267 0.00671110 -0.00065014 -0.00403862
N 0.82190126 10.14025675 15.11140327 0.00513544 0.00341474 0.00004290
N 3.60373960 10.73408846 18.07075583 0.00381941 0.00157093 0.00683757
N 5.57866783 7.87706797 15.22999096 0.00324450 -0.00476349 -0.00302550
N 2.18338733 7.01363530 18.03578037 -0.00401005 -0.00450597 -0.00445425
N 0.18834910 10.10578662 20.02779960 -0.00216731 0.00169285 -0.00075471
N 4.08444945 10.85845101 22.77819958 0.00394954 0.00000615 0.00481003
N 5.47274347 7.84466247 20.10953142 -0.00216682 -0.00456916 0.00141225
N 2.18550747 7.19951123 22.43025730 -0.00206619 0.00232669 0.00247222
N 1.06984552 15.58156020 1.08218259 -0.00184247 -0.00670402 -0.00024505
N 4.28438449 16.64957383 3.84159304 -0.00732676 0.00255171 -0.00569401
N 6.04475513 13.61042854 1.00632019 -0.00239549 0.00252938 0.00954619
N 2.57387744 12.85674784 3.62462229 -0.00546807 0.00496117 -0.00429610
N 1.19242150 15.54603336 5.83647263 -0.00148040 -0.00166389 -0.00736164
N 4.83193118 16.90254682 8.30641670 0.00280397 -0.00157979 -0.00171140
N 6.05731395 13.49200055 5.59747796 0.00454390 -0.00017489 0.00276172
N 2.66329596 12.79081694 8.24925376 0.00343150 -0.00330012 -0.00649820
N 0.82010717 15.79048727 10.48975219 -0.00034594 0.00296053 0.00028967
N 4.48124790 16.39535067 13.24270930 0.00075184 0.00209531 -0.00134249
N 5.85146116 13.99556328 10.43088684 0.00379147 0.00152056 0.00098414
N 2.84817709 12.86078839 13.07925340 0.00028233 0.00448483 0.00020858
N 0.98738406 15.56201045 15.33549824 -0.00142019 -0.00220536 -0.00572044
N 4.51772393 16.90950631 18.18774788 0.00001579 -0.00403849 -0.00277794
N 5.95410024 13.49748317 15.21166020 -0.00279367 0.00025266 -0.00267265
N 2.92597376 12.95068911 18.06461656 -0.00237734 -0.00420803 0.00258590
N 0.75338819 15.62417394 20.12980374 -0.00399298 -0.00740652 0.00851909
N 4.65644369 16.59693342 22.38149677 0.00131544 -0.00864353 0.00236295
N 6.42755882 13.44626160 19.75226672 -0.00482316 -0.00081570 0.00553882
N 2.65151142 12.60252288 22.57058239 0.00188279 -0.00638560 0.00073213
N 1.50535850 21.14027479 0.82965075 -0.00025765 0.00232061 0.00489931
N 3.85178719 23.26018254 3.68753874 -0.00541528 -0.00301506 0.00161399
N 5.45894583 20.07064520 0.97771631 -0.00171795 0.00074372 0.00972262
N 2.71484937 18.32869399 3.71251618 -0.00301940 0.00772264 0.00364088
N 1.28306611 21.17705612 5.61778090 -0.00317711 -0.00428518 0.00738310
N 3.91757551 23.40505386 8.39743304 0.00260370 -0.00167475 0.00516319
N 5.39932671 20.21243261 5.67572131 0.00046953 -0.00748601 0.00084332
N 2.77947945 17.87558492 8.58913562 -0.00627052 -0.00247705 0.00278645
N 1.57416426 21.02453687 10.29472506 -0.00368104 -0.00097426 -0.00975212
N 3.96806118 23.32028094 13.45863890 0.00651214 -0.00306953 -0.00520503
N 5.33769887 20.29801407 10.52036449 0.00164837 0.00079688 -0.00544527
N 2.98182242 18.04339986 13.19067292 -0.00040434 -0.00354831 0.00228885
N 1.65372663 20.96542103 15.06710721 0.00145789 -0.00178402 -0.00272034
N 4.22111602 23.33402427 17.99554233 -0.00110332 -0.00205537 0.00403430
N 5.40711354 20.20773010 15.12717014 -0.00106533 0.00156576 -0.00022496
N 2.61596891 18.10632912 17.90654345 0.00092898 0.00366473 -0.00057176
N 1.33144230 21.10269678 19.93210639 0.00346577 0.00492867 0.00016792
N 4.06381387 23.47681959 22.70517358 -0.00264748 -0.00220200 0.00000287
N 5.49051018 19.99676226 19.93091334 -0.00504362 -0.00653917 -0.00197329
N 3.04863911 18.23720550 22.91552106 -0.00131288 0.00670884 -0.00035658
N 0.73360364 27.77961666 0.97275168 0.00810287 -0.00042866 0.00423623
N 3.47229094 29.89348679 3.73071616 -0.00014240 -0.00647544 0.00245746
N 4.67729774 26.75998697 1.01128439 -0.00183778 -0.00086789 -0.00667669
N 1.93631689 24.50835986 3.78735845 -0.00292245 -0.00099893 -0.00072668
N 0.70368141 27.94502282 5.77968102 -0.00439308 -0.00352543 -0.00096674
N 3.13671803 29.64081096 8.48531120 0.00470011 -0.00355130 -0.00103670
N 4.82009114 26.83355530 5.81072802 0.00427964 -0.00406211 0.00002482
N 1.92698122 24.64236053 8.48759149 0.00413395 0.00282566 -0.00238902
N 0.72751860 27.87938592 10.38391409 -0.00446827 0.00415710 0.00176129
N 3.32170961 29.40997224 13.03844327 0.00161575 -0.00760522 -0.00025075
N 4.77348545 26.76816167 10.59160378 0.00128105 -0.00016530 0.00487685
N 1.90276981 24.48130866 13.32672895 -0.00286044 -0.00148506 -0.00724489
N 0.67478459 27.65044162 15.31434760 0.00099323 -0.00584496 0.00310837
N 3.65931542 29.79161735 17.94498901 0.01054116 -0.00226930 -0.00100658
N 4.80764829 26.56535986 15.10503264 -0.00008448 0.00041911 -0.00251555
N 2.15184443 24.38696099 18.02466051 -0.00278142 0.00261944 -0.00800593
N 0.70278924 27.79508909 19.84331858 0.00164485 -0.00036886 -0.00044667
N 3.11936182 29.68530687 22.73465054 -0.00208745 0.00048926 -0.00164861
N 4.76788408 26.67663214 19.99308273 0.00005661 -0.00811519 0.00357156
N 1.99389506 24.68212634 22.74402930 -0.00109273 0.00653410 0.00303900
N 6.95131539 4.15998633 0.94416365 0.00041668 -0.00561256 -0.00485829
N 10.15266589 4.91968659 3.82238595 0.00361254 -0.00430515 -0.00013854
N 11.93484493 1.95928090 0.90323797 -0.00793958 -0.01026046 0.00180406
N 8.59485141 1.24050991 3.87288692 -0.00090097 -0.00046320 -0.00356503
N 6.92154028 3.95582999 5.64375296 0.00155970 0.00146723 -0.00299387
N 10.20256328 4.75164983 8.64022807 -0.00174092 0.00159058 -0.00046909
N 12.06861136 1.88958918 5.70265164 -0.00134436 -0.00730246 -0.00496577
N 8.70625508 1.16864417 8.59068673 -0.00236562 0.00366408 -0.00312975
N 6.83363492 4.14627857 10.44526964 -0.00750759 -0.00752172 0.00513862
N 9.97497415 4.82922329 13.18124194 0.00337329 -0.00472352 -0.00300738
N 12.15161765 2.01159936 10.58546701 -0.00448404 0.00045364 0.00198481
N 8.56230417 1.13218817 13.06176413 0.00345343 0.00318757 0.00412884
N 6.73526353 4.05249952 15.30528172 -0.00176871 0.00923234 -0.00307264
N 10.26433135 4.83873837 17.90488881 0.00359165 0.00343815 0.00072705
N 11.74838811 1.92240372 15.29984528 -0.00104553 0.00112133 -0.00325820
N 8.42296258 1.13959423 17.62842454 0.00119190 0.00731273 -0.00586499
N 6.86054335 4.16321920 19.67810601 -0.00607199 -0.00225251 -0.00441160
N 10.01421198 4.72876346 22.61357316 -0.00024465 -0.00440138 -0.00820508
N 11.77390469 1.85284413 19.94313149 0.00502621 -0.00406366 -0.00064599
N 8.22150344 1.07295630 22.62612414 0.00248652 -0.00356686 0.00284428
N 7.14260717 9.57134998 0.91406423 0.00096758 0.00174679 0.00245023
N 10.89975765 10.64254827 3.35445080 0.00394089 0.00179965 -0.00131730
N 12.28254974 7.68032940 0.95207373 -0.00176042 -0.00000039 -0.00147425
N 8.89411320 6.79405144 3.80137423 -0.00182461 -0.00310414 0.00398756
N 7.17735844 9.66496426 5.73965093 0.00072543 0.00175877 0.00205992
N 10.90038808 10.86907198 8.52409599 -0.00007669 0.00180189 -0.00107043
N 12.39341630 7.71834190 5.58414463 -0.00064704 -0.00097316 0.00166604
N 8.93944994 6.77970854 8.61545434 -0.00366722 0.00058185 -0.01146191
N 7.10842159 9.52991769 10.35063354 -0.00362455 0.00392883 -0.00455916
N 10.41890384 10.59336180 13.20264047 -0.00495501 -0.00663743 0.00295634
N 12.21298137 7.62939302 10.43684891 0.00278371 0.00567612 -0.00713584
N 8.84027464 6.79725259 13.35854345 -0.00503520 0.00263026 0.00593743
N 7.01773330 9.69306622 15.26661380 0.00254582 0.00442757 0.00421075
N 11.25777714 10.78056185 17.54962371 0.00350129 0.00118363 0.00394177
N 12.25333761 7.65334037 15.22301067 0.00016352 -0.00197494 0.00247764
N 9.06654244 6.81455666 17.75550433 -0.00045051 -0.00213286 -0.00832779
N 7.28212841 9.34624189 20.08770409 0.00238385 0.00234655 0.00077935
N 10.74138192 10.72263417 22.65212908 -0.00053383 0.00393717 0.00220514
N 12.63897794 7.53411694 19.80418051 -0.00293339 -0.00581443 0.00640454
N 9.14563702 6.77176625 22.72761698 0.00447917 -0.00345229 -0.00127415
N 7.64201719 15.27264102 0.99398999 0.00318632 -0.00099359 0.00046075
N 10.46763275 17.51012842 3.61494489 0.00764670 0.00129204 0.00208716
N 11.50208521 14.25857244 1.05630173 0.00120361 0.00246978 -0.00461158
N 9.16359197 12.09047916 3.90208536 -0.00178595 -0.00078291 0.00162681
N 7.60630692 15.17645990 5.61212543 0.00253289 0.00759313 0.00478534
N 10.18010026 17.26517702 8.39137793 0.00180633 -0.00317457 -0.00108265
N 11.62543779 14.06857538 5.82989485 -0.00789403 -0.00184725 -0.00441575
N 8.78672242 11.75413269 8.43942949 0.00249876 -0.00252276 -0.01230013
N 7.73657869 15.27866700 10.50306639 0.00661031 -0.00570519 0.00761076
N 10.44737407 17.51597508 13.34071495 -0.00208924 -0.00243859 0.00018690
N 11.54329690 14.13498299 10.46625719 0.00237465 -0.00324143 -0.00625697
N 8.82407654 12.21392585 13.14220979 -0.00158250 -0.00222226 0.00111483
N 7.53966514 15.21252056 15.33251607 -0.00602261 0.00637208 -0.00533211
N 10.33192519 17.59290709 18.10488320 0.00055777 -0.00496468 -0.00091037
N 11.61382460 14.41562777 15.28541637 0.00097109 -0.00128726 -0.00483989
N 9.30747307 11.92119687 18.05731245 0.00305205 0.00026671 0.00098327
N 7.49015916 15.43333832 20.07826352 -0.00298157 -0.00074812 0.00494798
N 10.37361839 17.63280553 22.74858280 0.00004701 -0.00369243 -0.00130945
N 11.50915067 14.44329679 20.01435033 -0.00293873 -0.00140866 -0.00557371
N 9.12465018 12.34433987 22.70423732 -0.00250310 0.00008107 -0.00812640
N 6.89234590 21.87485793 1.11416457 -0.00340645 -0.00434898 0.00069528
N 9.45679649 23.80646970 3.79795538 -0.00359082 0.00129168 0.00012926
N 10.91715537 20.76744350 1.09495054 -0.00056892 -0.00544359 0.00331484
N 8.49127097 18.74064344 3.80763738 0.00584721 0.00374616 -0.00109952