2000
Time=44000.00000003 pbc="T T T" Lattice="30.99093188 0.00000000 0.00000000 0.00000000 30.05424747 0.00000000 0.00000000 0.00000000 23.73822943" energy=-12039.22111130 virial="-41.96505722 -20.90270602 -6.14812368 -20.90270602 -47.35773804 3.00253579 -6.14812368 3.00253579 -55.22003292" stress="0.00024089 -0.00100119 -0.00025379 -0.00100119 -0.00019625 0.00006584 -0.00025379 0.00006584 0.00041198" Properties=species:S:1:pos:R:3:vel:R:3
C 30.32394996 3.83690511 1.57573661 0.00058224 -0.01240713 -0.00370603
C 2.46578315 0.81853960 3.05190783 0.00182693 -0.00658107 0.00660623
C 30.35452479 3.52902529 6.55470796 0.00047570 0.00585633 -0.00443925
C 2.41683636 0.49506650 7.78434170 -0.00463837 0.00084152 0.00156496
C 30.18100138 3.67739429 11.29016923 0.00683926 0.00021366 0.00210616
C 2.50516781 0.43949151 12.42617403 0.00073856 0.00167913 -0.00532837
C 30.23203011 3.89502797 15.82039683 -0.00625243 -0.00051862 -0.00299073
C 2.45267641 0.60619478 17.20099750 -0.00419056 0.00475486 -0.00377729
C 30.52020597 3.39662214 20.47386977 0.00423748 -0.00271103 -0.00458596
C 2.72948082 0.67191704 21.88980267 -0.00227780 0.00290518 0.00234693
C 0.04360610 9.12990483 1.62671470 -0.00760252 -0.00388405 0.00037592
C 2.69699023 6.09085132 2.99496981 -0.00724606 0.00097890 0.00025440
C 30.81074528 9.30109905 6.48448200 -0.01087154 0.00279343 -0.00583972
C 2.63567151 6.05486631 7.75072166 0.00291703 0.00390073 -0.00211488
C 30.89198039 9.32856782 11.30868026 0.00411150 0.00045566 -0.00381397
C 2.95517163 6.12189860 12.35840934 0.00062146 -0.00662064 0.00170529
C 30.74413276 9.32040523 16.06780220 0.00586921 0.00102517 -0.00435175
C 2.85560190 6.19421640 17.15248273 0.00401495 -0.00146240 0.00122177
C 30.83866048 9.41755006 20.60463756 0.00447089 0.00180532 -0.00707533
C 2.94315314 6.30631187 21.89356736 0.00375746 0.00138457 0.00015718
C 0.28160587 14.68411305 1.77622709 -0.00221292 0.00289568 0.00694573
C 3.30254905 11.76567477 2.99609842 -0.00332004 -0.00056202 -0.00551521
C 0.25592097 14.96175865 6.41016433 0.00236442 -0.00189417 0.00207415
C 3.28123443 12.01851370 7.77594283 0.00720364 0.00354401 -0.00197750
C 0.28992969 14.73758933 11.22204554 -0.00145351 0.00896722 0.00560689
C 3.03032114 11.94518663 12.56568291 0.00909824 -0.00378368 -0.00156089
C 0.07203957 14.80023382 16.00421981 0.00372713 -0.00111849 -0.00384292
C 3.40543630 11.78515703 17.30880030 -0.00222520 -0.00853867 0.00111818
C 0.13176373 14.90178298 20.68726817 -0.00286717 -0.00401620 -0.00696709
C 3.51056706 11.97934781 22.01689443 0.00219798 0.00014303 -0.00163727
C 0.82055343 20.34267757 1.69701837 0.00394449 0.00369569 -0.00007863
C 3.56331094 17.43798233 3.29399844 -0.00241873 0.00626939 -0.00344992
C 0.52173617 20.46541108 6.46832507 -0.00673121 0.00589363 0.00313562
C 3.70129551 17.54005158 7.82559861 -0.00014618 0.00024890 0.00589282
C 0.80521848 20.45256440 11.32636323 0.00367669 -0.00273584 -0.00421605
C 3.69261807 17.39511697 12.72885623 -0.00209048 0.00690396 0.00374039
C 0.71508181 20.30142835 16.04302294 0.00206151 -0.00167005 0.00321481
C 3.74991491 17.45384503 17.46401695 0.00014153 0.00421318 0.00047021
C 0.79037194 20.32286880 20.78326667 -0.00335619 0.00081323 -0.00322212
C 3.96179922 17.51856311 22.32088599 0.00472564 0.00092509 -0.00266090
C 0.24684069 27.25723029 1.77406730 0.00901436 -0.00324424 0.00648344
C 2.97457681 24.16665297 3.05386494 -0.00197319 0.00260145 0.00387498
C 30.97082065 27.18037819 6.49281147 -0.00937797 -0.00373154 0.00477081
C 3.07234770 23.94485811 7.69589497 0.00164275 0.00035249 -0.00697194
C 0.11175270 26.93067540 11.24739581 0.00394774 0.00246713 -0.00667530
C 3.29007177 24.25516207 12.41392754 -0.00515453 0.00905464 0.00810261
C 30.98451834 26.92577530 16.00975429 -0.00324752 0.00372960 -0.00231910
C 3.14363957 23.92821071 17.42443278 0.00075709 0.00397157 0.00526605
C 30.87333206 27.17371980 20.79082894 0.00101517 0.00696998 0.00093680
C 3.25300940 24.16297927 22.14552146 -0.00260247 -0.00297902 -0.00234461
C 6.05804427 3.22107114 1.73976933 -0.00115016 0.00433700 0.00044047
C 8.93487166 0.22848857 3.04529927 -0.00278148 0.00125288 0.00297094
C 6.12905107 3.10229853 6.57423206 0.00468380 0.00276761 0.00081417
C 9.12136467 0.01439385 7.86678546 -0.00608621 -0.00227186 0.00626319
C 5.94900167 3.10872887 11.20544828 0.00571378 -0.00305484 -0.00053008
C 9.02029391 0.12911390 12.61482079 0.00174084 -0.00124427 0.00379712
C 5.93498582 3.21583353 15.97320614 0.00246269 0.00474950 0.00910413
C 8.93636989 0.20754701 17.31636801 0.00162779 -0.00513778 0.00438686
C 6.11017234 3.36074970 20.82913882 0.00291525 -0.00203871 -0.00282873
C 9.23224307 0.49946512 21.82655248 -0.00228748 -0.00697706 0.00061631
C 6.49166849 8.63649244 1.80092784 0.00090135 0.00625397 0.00261140
C 9.49835882 5.54885963 3.00538898 0.00371492 -0.00439096 0.00445092
C 6.37470760 8.59896205 6.54023951 -0.00118537 0.00341998 -0.00277559
C 9.29963046 5.84880452 7.74113623 -0.00109428 -0.00537957 0.00306255
C 6.23769510 8.73463740 11.13107925 0.00240519 0.00044522 -0.00311293
C 9.28678490 5.68742773 12.52887632 0.00124876 -0.00040493 -0.00691543
C 6.10175525 8.71447453 15.86119580 0.00605290 -0.00555834 -0.00764367
C 9.65865999 5.78916834 17.21516448 0.00183587 0.00666787 -0.00210854
C 6.28254497 8.60176802 20.88209237 -0.00226763 -0.00475943 -0.00091004
C 9.81540998 6.05397564 22.20172116 0.00418620 0.00039943 -0.00420249
C 6.83630097 14.32072949 1.85968890 -0.00701629 0.00742729 0.00446360
C 9.99987471 11.31761624 2.92700442 0.00614355 0.00711187 -0.00154075
C 6.74770070 14.29271830 6.54780139 -0.00272979 -0.00813751 -0.00125939
C 9.72602333 11.14724981 7.65750497 -0.00433012 -0.00277402 -0.00284350
C 6.67705988 14.45486707 11.10545165 -0.00379219 0.00384691 -0.00069561
C 9.53861929 11.25501198 12.57329039 0.00142891 0.00501224 0.00291161
C 6.76888477 14.34294037 16.06677562 0.00331300 0.00209303 -0.00031542
C 9.78369818 11.27753232 17.23283415 0.00347951 0.00047612 0.01310886
C 6.92505655 14.60064087 20.82660361 0.00195356 0.00365227 0.00065247
C 10.05901522 11.33511755 21.88356983 -0.00790223 -0.00445951 0.00029772
C 6.44607710 20.97967650 1.68104023 0.00044553 0.00214208 0.00886914
C 9.30823788 17.89474477 3.03418843 0.00332074 -0.00468744 -0.00082307
C 6.22628373 21.02733440 6.50253459 0.00751895 0.00094971 -0.00406896
C 9.29925547 17.91204558 7.73988443 0.00445007 0.00188616 -0.00433897
C 6.09260061 21.14004051 11.16782876 -0.00760008 -0.00398891 -0.00447483
C 9.07342798 17.99665168 12.54984394 0.00109267 -0.00421076 0.00653913
C 6.51061630 20.96269736 16.13616697 -0.00097216 -0.00148709 0.00004625
C 9.16308593 17.81645333 17.31733688 -0.00311876 -0.00146115 0.00121855
C 6.25385395 21.37344499 20.76142511 0.00577368 0.00059670 -0.00180088
C 9.13942116 17.99934523 22.23075504 0.00286832 -0.00361469 0.00157667
C 5.74342591 27.51842277 1.64108440 -0.00722911 -0.00418837 0.00429323
C 8.90957144 24.71932271 3.07675550 0.00300288 -0.00473311 0.00279839
C 5.36564737 27.55456904 6.48627603 0.00414903 0.00252809 0.00014450
C 8.70058064 24.49199863 7.87010851 0.00031139 -0.00534936 0.00045736
C 5.64096724 27.74677810 11.16168432 -0.00185075 0.00442607 -0.00057958
C 8.51378616 24.67508201 12.68620130 0.00368024 0.00051398 0.00378888
C 5.47583266 27.73977159 16.10899963 0.00232585 -0.00685630 -0.01050274
C 9.37034136 24.84098140 17.36986024 0.00031555 0.00291336 0.00271537
C 5.63215984 27.72184085 20.70074639 0.00274457 -0.00106378 -0.00272945
C 8.96425717 24.52370577 22.02326367 0.00599188 0.00059425 -0.00829059
C 12.57704973 2.80114811 1.80551127 -0.00045916 0.00782835 0.00217907
C 15.75720514 29.93726621 3.09206751 -0.01056136 0.00235366 -0.01004503
C 12.57310798 2.80613138 6.47507252 -0.00006697 -0.00488726 0.00586748
C 15.58651868 0.02925602 7.90992294 -0.00201778 -0.00119849 -0.00010116
C 12.46901133 2.83898634 11.34286304 0.00463002 0.00222060 -0.00116209
C 15.64307136 29.90646971 12.55545358 0.00441814 -0.00334056 -0.00090312
C 12.66577150 2.72532947 15.87464147 0.00616675 -0.00711504 0.00237980
C 15.76458478 29.85671728 17.14132466 0.00107737 0.00164879 0.00590600
C 12.67635866 3.12017503 20.71563357 -0.00372608 -0.00244995 0.00035245
C 15.70079913 29.88128683 22.01354520 -0.00106315 0.00029502 0.00460848
C 13.11906266 8.49890052 1.67913206 -0.00323718 0.00497159 0.00020610
C 16.02607351 5.52362480 3.12232598 -0.00269428 -0.00166274 0.00611544
C 12.94467697 8.45920280 6.27661544 -0.00224961 -0.00357445 -0.00038049
C 15.93632771 5.66419372 7.79963241 -0.00021334 0.00327438 0.00162459
C 13.03992496 8.39642066 11.09142820 0.00170102 0.00186335 0.00118642
C 16.32629087 5.47131952 12.48491404 0.00280325 0.00984457 -0.00300886
C 12.90671475 8.14836340 15.92645298 -0.00057904 0.00990511 0.00646202
C 16.18045604 5.48638039 17.35952912 0.00253603 -0.00009482 0.00184336
C 13.30137102 8.48834206 20.67773091 -0.00224111 -0.00133416 -0.00441755
C 16.38443145 5.58071417 22.10395921 0.00016944 -0.00243215 -0.00036832
C 12.45806349 15.15589181 1.90408010 0.00330817 0.00035093 0.00205556
C 15.37455234 11.97590705 3.06664574 0.00555593 0.00195263 -0.00032673
C 11.91026787 15.04988445 6.59847312 -0.00005084 -0.00100200 0.00436355
C 15.35488192 12.07291031 7.84951212 0.00112221 -0.00456405 -0.00060707
C 12.15698930 14.91573841 11.33588109 -0.00231832 -0.00070115 0.00360513
C 15.39646173 11.86756155 12.61808800 -0.00174453 -0.00181909 -0.00304703
C 12.32922548 14.79029265 15.95677308 0.00464130 -0.00099968 -0.00409925
C 15.50014656 11.76175608 17.28365460 -0.00608629 -0.00070874 -0.00081138
C 12.28890681 15.00492860 20.84472795 -0.00347593 0.00157702 -0.00049053
C 15.76571177 11.89859286 22.09859440 0.00381568 0.00064076 -0.00730574
C 11.66326022 21.49603251 1.69988926 0.00840880 -0.00385985 -0.00035191
C 14.93233480 18.60668210 3.02761754 -0.00032277 0.00788394 0.00010775
C 11.87419762 21.60627910 6.56900950 0.00427835 -0.00644520 -0.00709083
C 14.89155001 18.68240245 7.66306730 0.00021183 -0.00741799 0.00126394
C 11.56185369 21.60264253 11.43100310 -0.00286653 -0.00589680 -0.00096352
C 14.76991028 18.37987467 12.31561790 0.00293720 0.00434312 -0.00156818
C 11.73453981 21.66664096 15.98416959 0.00295167 -0.00564770 0.00114485
C 14.88383668 18.65274536 17.17885693 -0.00226835 0.00062133 0.00469858
C 11.95446554 21.42233746 20.71726270 0.00384134 -0.00159302 -0.00471468
C 14.87119348 18.70136423 21.87992686 0.00457767 -0.00003525 0.00087049
C 12.20173245 27.42049883 1.95181971 -0.00548320 0.00522563 0.00197103
C 14.88747260 24.25124888 2.95932128 0.00308738 0.00705073 0.00171871
C 12.20810422 27.18257839 6.55588372 -0.00408021 0.00000077 0.00413092
C 15.14877644 24.09166910 7.69102725 0.00490008 -0.00485804 -0.00850001
C 12.11494426 27.48146338 11.37076380 0.00291989 0.00934374 -0.00097241
C 15.29543819 24.08048555 12.42160701 -0.00087229 -0.00262738 0.00917523
C 12.30212146 27.07289761 15.85646925 -0.00474013 0.00022467 -0.00481806
C 15.18873112 24.45634171 17.22104247 0.00616233 0.00444245 -0.00314126
C 12.34649142 27.44737223 20.81162221 -0.00157973 0.00171307 0.00554308
C 15.12568820 24.48767561 22.05370526 0.00250631 -0.00488526 -0.00279807
C 19.17337735 2.33916633 1.68848036 0.00875485 0.00039529 0.00878413
C 22.01620974 29.17266519 2.91284189 0.00352417 -0.00163282 0.00611411
C 19.34783965 2.44256610 6.29131165 0.00657688 -0.00164631 -0.00327515
C 22.03179266 29.25388580 7.67375810 -0.00164214 -0.00457405 -0.00061122
C 19.36898318 2.47208145 11.25044724 0.00616755 -0.00541838 0.00107903
C 22.23446062 29.33683260 12.40207416 0.00162834 0.00133042 0.00320603
C 19.31428389 2.50457291 15.93606072 0.00729689 -0.00317236 0.00162305
C 22.07209029 29.52360100 17.26678185 -0.00456990 -0.00066776 0.00209362
C 19.38405235 2.22605543 20.79726944 -0.00165446 0.00285044 -0.00285890
C 22.14630910 29.28458232 22.11831254 -0.00061127 -0.00831582 -0.00665726
C 18.56218263 9.14594912 1.72328992 0.00265914 0.00286467 0.00649445
C 21.55764937 6.16466411 3.03066640 0.00282981 -0.00291657 0.01064709
C 18.54691466 9.17025045 6.40493058 -0.00587915 -0.00042955 0.00651208
C 21.74595848 6.09323279 7.68512926 0.00103151 0.00060447 0.00437735
C 18.73153002 8.90303270 11.11526177 -0.00296769 0.00060948 0.01052894
C 21.82707333 6.04228102 12.49859938 -0.00061111 0.00187251 0.00218792
C 18.85611733 8.97266017 15.75847093 0.00494323 -0.00361297 -0.00689170
C 21.65195128 6.00435216 17.31968742 -0.00183685 0.00540471 -0.00863574
C 18.81898649 9.33434459 20.53778847 0.00227277 0.00317938 -0.00643177
C 21.58348949 5.84863098 22.05930946 0.00557061 0.00091559 0.00814095
C 17.82360049 15.71352061 1.72481401 -0.00045329 -0.00200956 -0.00060794
C 21.24368872 12.67994153 2.88798739 0.00069106 0.00041451 0.00127500
C 17.88284280 15.76214059 6.38514899 0.00197452 -0.00725843 0.00191627
C 21.09967416 12.61772471 7.80507469 -0.00327593 0.00074663 -0.00333158
C 17.86902665 15.67462962 11.11470062 -0.00532869 -0.00229598 0.01210698
C 21.00110044 12.58375048 12.23258455 -0.00145399 -0.00436365 -0.00133275
C 17.82517891 15.48484926 15.93972226 -0.00031132 0.00554481 -0.00715834
C 20.99729029 12.70722722 17.04456264 -0.00378571 -0.00001432 0.00165212
C 17.93901925 15.66304993 20.70515664 0.00093342 -0.00327954 0.00606087
C 21.21784425 12.60602601 21.81324466 0.00303753 0.00127881 -0.00322070
C 18.33320833 21.16410438 1.73499924 -0.00325237 0.00307808 0.01022815
C 21.45446982 18.15351584 3.11381285 0.00340467 -0.00173427 -0.00506728
C 18.37242803 21.15145325 6.53937330 -0.00285374 -0.00860718 0.00329692
C 21.54532712 18.25705976 7.87251827 0.00037088 -0.00250640 0.00516537
C 18.50812575 21.00758848 11.11668493 -0.00232674 0.00314303 -0.00577008
C 21.43173858 18.32261882 12.64492659 0.00073977 0.00095592 0.00265353
C 18.22526764 21.26449823 15.98055734 -0.00380745 0.00179869 0.00374272
C 21.36755340 18.38851043 17.26233212 0.00178424 0.00494633 0.00831074
C 17.97624404 21.47583093 20.75902272 0.00294812 -0.00576923 0.00183170
C 21.21018695 18.05891223 21.98783916 -0.00319711 -0.00486234 -0.00355244
C 18.55434131 26.63650542 1.74051105 0.00883636 0.00370375 -0.00927173
C 21.95493051 23.55910057 3.09685689 -0.00155204 -0.00405539 -0.00111556
C 18.70080283 26.70232693 6.33120622 0.00694229 0.00276265 0.00299864
C 21.88442435 23.95924499 7.86533426 0.00052551 -0.00205127 0.00134850
C 18.68996321 26.90921309 11.20043661 0.00674748 0.00324735 -0.00539518
C 21.92788319 23.83659443 12.61676507 0.00227195 0.00120733 0.00517044
C 18.82933272 26.76052857 15.94822227 -0.00446351 0.00041648 0.00554133
C 21.63577273 23.95115209 17.25995655 -0.00481454 0.00207087 0.00139588
C 18.87006725 26.90182804 20.70878220 -0.00347629 -0.00224682 0.00196012
C 22.01744669 24.09058790 22.11274785 0.00154683 0.00066192 -0.00230118
C 24.99852202 2.91359142 1.71579847 0.00026657 -0.00167430 -0.00169425
C 28.00189485 0.17420267 3.01015476 0.00035570 0.00622754 -0.00169161
C 24.83835513 3.02455175 6.48422545 0.00456632 -0.00021689 0.00591058
C 28.07011193 30.01834688 7.84340748 -0.00197793 -0.00093916 0.00133047
C 24.74015626 3.00799174 11.06197963 0.00057943 -0.00542432 -0.00246621
C 27.87610150 0.01553515 12.53171937 -0.00797902 0.00581216 0.00184231
C 24.76199102 2.89372602 15.89425456 -0.00046291 0.00859045 0.00363162
C 27.70907499 29.80980444 17.23510179 -0.00854687 0.00448396 -0.00401550
C 25.01401920 3.05394073 20.62125416 -0.00013682 0.00229726 -0.00037598
C 28.08412582 29.95379594 21.97162505 -0.00383815 -0.00287719 -0.00143180
C 24.14098085 9.61455592 1.53566369 0.00555957 -0.00409654 -0.00321169
C 27.44468881 6.81692770 2.97732516 -0.00462482 0.00028505 -0.00024906
C 24.28159015 9.73248075 6.34905854 0.00134275 -0.00201023 0.00289470
C 27.35016498 6.75712332 7.79952039 -0.00148020 0.00344766 0.00073701
C 24.24513606 9.52010039 11.12118894 -0.00022330 0.00526977 -0.00139729
C 27.26658785 6.46531797 12.52756544 0.00060508 0.00085888 0.00303580
C 23.95702217 9.47356122 15.87750188 0.00018040 -0.00350677 -0.00435474
C 27.32111627 6.53653851 17.29704384 -0.00446323 0.00490555 -0.00114599
C 24.15476885 9.70749183 20.65760618 0.00371038 -0.00014974 0.00404203
C 27.55759192 6.63691963 21.91773870 0.00407549 0.00070701 -0.00561232
C 24.85402968 15.29675516 1.73223554 0.00276295 0.00650525 0.00572445
C 27.67920240 12.06676451 2.99171641 -0.00038517 0.00085450 0.00097617
C 24.69281572 15.15535204 6.27631919 0.00680169 0.00448529 0.00331886
C 27.77253589 12.07497337 7.57069422 0.00356211 -0.00386760 -0.00228427
C 24.49802922 15.28112384 10.96200198 0.00025000 0.00071444 0.00109443
C 27.57994628 12.05742001 12.30965782 0.00271648 0.00437709 -0.00193385
C 24.67175198 15.23613376 15.73742563 -0.00471707 -0.00863864 -0.00644205
C 27.61767649 12.32062455 17.23088175 0.00136302 0.00283631 0.00104293
C 24.65584310 15.11871599 20.70409208 -0.00319147 0.00058731 0.00057153
C 27.63646600 12.25961798 22.10449486 -0.00072664 0.00142695 0.00008596
C 25.13725838 20.80232816 1.82222515 0.00045397 -0.00673600 -0.00051244
C 28.09392230 17.90622670 3.08459168 0.00148345 0.00013829 0.00201570
C 25.01002793 20.92450368 6.61702394 -0.00261616 0.00020463 0.00325995
C 28.20385086 18.05377729 7.88210181 -0.00172443 -0.00546468 -0.00263624
C 24.98735069 20.74913554 11.32383607 -0.00134749 0.00219451 0.00199759
C 28.09370417 17.74733895 12.59046129 -0.01048350 -0.00088124 -0.00214322
C 25.16140977 20.92023856 16.00865529 -0.00184577 -0.00138504 0.00369530
C 28.15966713 17.88391717 17.13494377 0.00314511 0.00391970 -0.00604840
C 25.04401528 20.73994392 20.67127143 0.00215621 0.00287435 -0.00585492
C 28.02241533 17.94374053 22.07579830 -0.00262551 0.00270466 0.00005489
C 25.43741968 26.78968502 1.63919058 -0.00265000 -0.00553640 -0.00211379
C 28.24005243 23.27310899 3.16884418 0.00337857 0.00426994 -0.00375513
C 25.43729984 26.31128264 6.44765692 0.00441572 -0.00616194 -0.00082214
C 28.57852415 23.67691911 7.77853888 0.00391189 0.00261257 -0.00441393
C 25.44884000 26.48334869 11.12416256 -0.00536899 -0.00230376 0.00378571
C 28.55695648 23.34495840 12.50421712 0.00473489 0.00420956 -0.00222125
C 25.37794517 26.42832524 15.80287832 -0.00186722 -0.00105118 -0.00168252
C 28.74068380 23.63050387 17.22644016 -0.00261697 0.00295241 0.00058073
C 25.35770872 26.29621626 20.59739553 -0.00478768 -0.00248928 -0.00019133
C 28.66926457 23.46986196 22.14913525 0.00109679 0.00584482 0.00172811
N 0.27745416 4.50644663 0.85644814 0.00003446 -0.00184282 0.00081735
N 3.34893556 5.20042056 3.76754263 -0.00214389 0.00246688 0.00216362
N 5.27131899 2.40483015 1.00299128 -0.00070556 0.00198018 0.00616586
N 1.62714953 1.56810370 3.72931384 0.00197123 0.00125324 -0.00036047
N 0.03750583 4.48489425 5.85368471 0.00545992 -0.00100531 -0.00119805
N 3.42083724 5.10856921 8.27223053 0.00004066 -0.00022979 -0.00199434
N 5.23722368 2.42467043 5.87880939 0.01158655 0.00056118 0.00265105
N 1.65416507 1.24489893 8.57258397 -0.00576301 0.00176292 -0.00708495
N 0.03626322 4.57599783 10.71680459 -0.00199564 0.00146511 -0.00076224
N 3.41641905 5.17495258 13.20617165 0.00202435 -0.00512305 -0.00311554
N 5.29506902 2.10856833 10.54127518 -0.00006727 -0.00242195 -0.00157835
N 1.70771453 1.27982256 13.11772001 -0.00220102 -0.00134660 0.00143513
N 30.96235634 4.70372314 15.05126933 -0.00673615 0.00353495 0.00322397
N 3.47260317 5.11014846 17.71362028 0.00417400 -0.00411700 0.00149586
N 5.27761990 2.29426918 15.27271855 0.00270822 0.00122812 0.00229114
N 1.40938773 1.26361273 17.81777071 0.00377757 -0.00558662 -0.00186645
N 0.18051020 4.35648859 19.73202466 -0.00130810 0.00265042 -0.00167255
N 3.42748628 5.29031801 22.64797831 -0.00395796 0.00234806 0.00244510
N 5.31552523 2.55057080 20.17184637 -0.00868568 -0.00333302 -0.00294798
N 2.02247321 1.65815364 22.57518408 0.00275932 0.00406455 -0.00082869
N 0.74273676 9.99617745 0.91375040 -0.00330130 0.00184727 0.00038987
N 4.12645481 10.87305142 3.69232009 0.00595858 0.00080104 -0.01251860
N 5.80896288 7.79155724 0.93864641 -0.00677715 0.00171066 -0.00151278
N 2.10948311 7.07910711 3.65883920 -0.00157411 0.00389167 -0.00060074
N 0.47427971 10.06341570 5.56236484 -0.00223947 -0.00151824 0.00629375
N 4.00431280 11.04712859 8.39498820 0.00536595 -0.00243819 -0.00245740
N 5.53142518 7.73467186 5.94387412 -0.00205494 0.00522319 0.01089107
N 2.04779753 6.95708700 8.62485919 0.00157540 -0.00216081 0.00625659
N 0.82962809 10.09221641 10.65088170 -0.00797006 -0.00061911 0.00531481
N 3.69144719 11.02572814 13.29903404 -0.00522963 0.00081716 -0.00380137
N 5.54878075 7.90011560 10.35539827 0.00005820 0.00102405 -0.00136214
N 2.42762379 7.23785047 12.93336599 -0.00102487 -0.00045793 0.00043803
N 0.63380389 10.00818230 15.27243889 -0.00371439 -0.00262880 0.00422949
N 3.91276721 10.85147823 18.13988630 0.00232858 0.00833529 0.00963652
N 5.44414404 7.92407354 14.98341021 -0.00059215 0.00421272 -0.00453191
N 2.38197374 7.15693073 18.01143190 -0.00088327 -0.01058169 0.00287770
N 0.65627365 10.24912030 19.86191412 -0.00025917 0.00603925 0.00027781
N 4.11747421 10.97520186 22.69241812 0.00180026 0.00081882 -0.00852081
N 5.48789136 7.85440279 19.99676445 0.00642558 -0.00397202 0.01077354
N 2.30860627 7.27470869 22.58318123 -0.00041785 -0.00115358 0.00035977
N 0.95333780 15.62193787 1.04206886 -0.00022144 0.00213552 -0.00130969
N 4.59862491 16.84087890 3.95009483 0.00553715 0.00232276 -0.00302896
N 6.19356994 13.44414605 1.01305845 0.00120153 -0.00233567 -0.00049612
N 2.54465200 12.56784999 3.71499818 0.00624151 -0.00009935 -0.00694617
N 1.14116850 15.61630267 5.61897570 -0.00487941 0.00122999 -0.00138337
N 4.55968052 16.92492419 8.63886829 -0.00086703 -0.00012126 -0.00369051
N 5.97559378 13.33672968 5.91234964 0.00429309 0.00460545 0.00108506
N 2.91132151 13.12148868 8.46944852 -0.00823622 -0.00266290 0.00240742
N 0.83074805 15.80059332 10.52337976 0.00293178 0.00020626 -0.00271422
N 4.11849659 16.27232121 13.40742929 0.00118531 -0.00083996 0.00575938
N 6.03603976 13.35867174 10.54621101 -0.00683989 -0.00201070 -0.00036025
N 2.24050925 12.79899822 13.30222044 -0.00437356 -0.00527726 -0.00606542
N 0.73614274 15.77020274 15.30441043 -0.00105942 0.00043423 -0.00756297
N 4.53507004 16.75629164 18.37961550 -0.00197847 -0.00360175 -0.00597588
N 5.90670582 13.58319237 15.31776645 -0.00223693 -0.00485001 -0.00103840
N 2.71031667 12.78883156 17.97906822 -0.00187772 0.00199246 0.00517803
N 0.88515608 15.61675969 19.77907945 0.00194667 -0.00132085 0.00612645
N 4.75805092 16.60279178 22.88846415 -0.00093338 -0.00275686 -0.00112460
N 6.15346507 13.57545243 20.31917805 -0.00022279 0.00109919 0.00662741
N 2.97110491 12.93491331 22.77354795 -0.00013565 -0.00061948 -0.00675530
N 1.45458343 21.25068797 0.93869727 0.00415769 -0.00143742 -0.00020310
N 4.01261421 23.57358218 3.76041070 0.00246254 -0.00512446 0.00032604
N 5.48190050 20.25012971 1.04405151 0.00363839 0.00577695 -0.00404075
N 2.66418890 18.16400568 4.00742271 0.00536441 -0.00110048 0.00422236
N 1.31480577 21.30888100 5.73546839 -0.00155816 -0.00038090 -0.00298020
N 4.15242387 23.76068017 8.51945866 0.00539203 0.00087900 -0.00340345
N 5.35715938 20.32826105 5.77383470 0.00085615 -0.00305035 0.00020115
N 2.73055578 18.30208358 8.47121399 -0.00129872 0.00226579 -0.00246221
N 1.57700266 21.30958337 10.53111887 -0.00276665 -0.00053995 0.00409268
N 4.12160265 23.42300028 13.12526508 0.00222598 0.00576447 -0.00530612
N 5.22786767 20.28251362 10.53792464 0.00367204 -0.00483882 -0.00379093
N 2.98028204 18.24942467 13.50364318 -0.00351592 0.00574189 0.00013114
N 1.37021085 21.16867177 15.25750546 0.00029857 -0.00104898 0.00666698
N 4.19085145 23.40870725 18.03250540 -0.00135602 -0.00596178 -0.00085349
N 5.61698039 20.24879270 15.39724726 0.00231191 0.00087200 0.00167817
N 2.82195042 18.20825855 18.10720424 -0.00246202 0.00204696 -0.00150815
N 1.59173329 21.18678192 20.19436601 -0.00050598 0.00045982 0.00234133
N 4.27659294 23.54640072 22.76182618 -0.00327183 -0.00561316 -0.00406862
N 5.51069782 20.36593432 20.08873597 0.00099231 -0.00322647 -0.00123733
N 3.06298607 18.21246218 23.13821071 -0.00429958 -0.00371546 0.00284745
N 1.02524113 28.04197016 0.95545569 -0.00578032 0.00130490 -0.00321378
N 3.34898575 0.04605628 3.74888955 -0.00054328 0.00282123 -0.00830846
N 4.78559103 26.85460278 0.89778035 -0.00509431 -0.00019464 0.00446193
N 1.92819311 24.70448921 3.79597383 0.00444621 0.00668940 -0.00741196
N 0.81807922 28.00066539 5.85095989 -0.00066755 -0.00731808 -0.00119926
N 3.14008783 29.60782850 8.42175677 0.00267425 0.00381601 0.00078910
N 4.54046462 26.96545332 5.57173907 -0.00115379 -0.00252598 -0.00058585
N 2.04465129 24.51392373 8.36818260 0.00191438 -0.00030884 0.00186968
N 0.97984817 27.77682407 10.56905280 0.00675724 0.00346420 -0.00988801
N 3.31320318 29.66341437 13.23028531 -0.00016525 -0.00144597 -0.00184361
N 4.69935005 27.01560278 10.57952485 0.00022183 0.00077106 0.00731441
N 2.23063242 24.62577599 13.16378344 0.00569583 0.00245091 -0.00780914
N 0.72766688 27.91677792 15.38436678 -0.00387543 -0.00691858 -0.00280145
N 3.27550681 30.00817422 18.08784430 -0.00301854 0.00756201 -0.00108026
N 4.65550739 26.92288017 15.38189541 0.00601817 0.00146638 0.00353060
N 2.14236274 24.44043468 18.26210467 -0.00018296 0.00095713 0.00368172
N 0.30555338 28.24966326 20.01245605 -0.00206473 0.00064489 0.00650773
N 3.39071909 29.87110700 22.66329540 -0.00098890 -0.00303184 -0.00425671
N 5.01855064 26.75483238 20.02850590 -0.00383950 -0.00660928 -0.00177025
N 2.27834295 24.72584048 22.93354088 0.00176767 0.00003947 0.00623904
N 6.89470561 4.01013454 1.02667895 0.00113809 -0.00062501 0.00420196
N 10.29911164 4.81633672 3.87426557 -0.00207688 0.00247557 -0.00030843
N 11.83145562 1.90274819 1.17291473 -0.00130268 -0.00000228 0.00462236
N 8.28087254 1.23016162 3.63619813 0.00304677 -0.00043591 -0.00142764
N 6.83106669 4.01210148 5.85212370 0.00174325 0.00473221 -0.00241063
N 9.91085265 4.85081568 8.38678319 0.00419912 -0.00003114 0.00424803
N 11.72132207 2.18405319 5.62486573 -0.00131189 0.00228417 -0.00303973
N 8.52476875 1.00074076 8.56094384 -0.00087153 -0.00112724 0.00083269
N 6.52895905 4.06596949 10.35714946 0.00290077 0.00609611 -0.00681874
N 10.00202552 4.77580090 13.30817497 -0.00218214 -0.00567998 0.00316544
N 11.68301768 2.00119056 10.68798337 -0.00970301 -0.00143097 -0.00010750
N 8.39547973 1.12550126 13.25651985 -0.00278641 -0.00240582 0.00184634
N 6.58506098 4.14263446 15.23737146 0.00438588 0.00340244 -0.00452405
N 10.03717055 4.59899708 17.82931491 -0.00478226 -0.00204413 0.00076698
N 11.73679565 2.08011254 15.17277287 -0.00140090 -0.00885701 -0.00274723
N 8.38633111 1.20032468 18.02742474 -0.00492108 -0.00488250 0.00153696
N 7.01556636 4.06843584 20.15560002 0.00786554 0.00092499 -0.00251523
N 10.51618444 5.09973917 22.81687227 -0.00396737 -0.00030559 0.00393311
N 11.88709248 2.28074095 19.98922622 0.00044720 0.00258534 0.00416730
N 8.32752316 1.22992901 22.54427249 0.00712306 -0.00531467 -0.00582275
N 7.28274491 9.62394536 1.26096549 -0.00065541 0.00079457 0.00663819
N 10.73128151 10.42939083 3.64151245 0.00471687 -0.00439851 -0.00288925
N 12.29188543 7.79849544 0.88591390 0.00075364 -0.00194551 -0.00591048
N 8.75964366 6.58617669 3.53025887 0.00143703 -0.00430230 -0.00375295
N 7.17507035 9.38487435 5.74953549 -0.00376116 -0.00124954 -0.00457928
N 10.73417099 10.66599050 8.48204464 0.00243360 -0.00432795 -0.00079698
N 12.04574415 7.58879195 5.72942880 0.00031469 0.00163996 0.00782617
N 8.68680087 6.70507991 8.59657722 0.00146342 0.00426937 0.00327527
N 7.17071578 9.46231907 10.51993123 0.00102265 -0.00091680 0.00455865
N 10.57277300 10.72546653 13.29368806 -0.00236704 0.00352257 -0.00154865
N 12.25250975 7.68820605 10.33002691 0.00717082 0.00667439 -0.00534706
N 8.86612262 6.82893884 13.19276899 0.00167594 0.00465210 0.00206415
N 6.90467667 9.63790474 15.22598476 0.00087932 0.00535980 0.00344634
N 10.67071086 10.52235813 17.88451367 -0.00059711 0.00801867 0.00514025
N 12.09081505 7.30791372 15.21476765 0.00676198 -0.00293557 -0.00078867
N 9.24746907 6.77589880 18.03051963 0.00540813 -0.00524886 0.00200350
N 7.14590449 9.46110419 20.27605831 -0.00209657 -0.00437969 0.00688197
N 10.80201543 10.58370435 22.72723029 0.00377995 -0.00111800 0.00101200
N 12.55341467 7.56370031 20.10515358 0.00112892 0.00017152 0.00183845
N 9.01832110 6.79895952 23.06084838 0.00575972 0.00440379 0.00032795
N 7.76480141 15.13395007 1.22934772 0.00089042 0.00047815 0.00037703
N 10.37570683 17.41965287 3.71049257 0.00297147 0.00383296 0.00589396
N 11.73642012 14.19113227 1.24947584 -0.00318976 0.00003098 -0.00314353
N 9.03427874 11.98532018 3.57355111 0.00209799 -0.00334525 0.00207936
N 7.46893930 15.06386095 5.72370610 0.00380313 0.00133697 0.00099656
N 10.29078137 17.27357472 8.47815635 0.00198430 -0.00747156 -0.00109796
N 11.01315059 14.55599701 5.70653748 -0.01106339 0.01059397 -0.00178115
N 8.81165286 11.97955370 8.18195716 -0.00151258 0.00294589 0.00138498
N 7.44331214 15.18782713 10.34723546 -0.00059907 0.00285871 0.00002548
N 10.03268290 17.38206791 13.20306110 -0.00266333 -0.00222896 -0.00226915
N 11.29400306 14.07810254 10.67116648 0.00070107 -0.00105253 0.00252510
N 8.73815466 12.02662312 13.31244359 0.00364618 -0.00181292 0.00157413
N 7.38917106 15.38475863 15.46180266 0.00489713 -0.00393765 -0.00094558
N 10.20849957 17.36615006 18.02559165 -0.00708238 0.00220849 0.00190782
N 11.30302691 14.28250571 15.30987008 -0.00454437 0.00017231 0.00447365
N 8.96223904 12.06675150 17.93988702 -0.00328553 0.00331110 -0.00069802
N 7.44452641 15.36585230 19.87813675 -0.00269485 -0.00101011 -0.00281063
N 10.18839070 17.43957502 22.87921941 0.00055784 -0.00362708 0.00175639
N 11.27530114 14.26208590 20.22204314 0.00167033 -0.00473678 -0.00179205
N 9.25092591 12.23017934 22.55974438 0.00662419 0.00182651 -0.00048378
N 7.05557060 21.86781482 0.90999864 -0.00144604 -0.00602355 -0.00056457
N 9.87485201 24.16873298 3.93770226 0.00262604 -0.01040301 0.00230059
N 11.09446715 20.44541438 1.00019133 0.00237517 -0.00053342 -0.00304309
N 8.36934844 18.51055822 3.79762314 -0.00199377 -0.00419957 -0.00394307
N 7.12850553 21.80147318 5.83177979 0.00238072 -0.00315844 -0.00012346