2000
Time=45000.00000003 pbc="T T T" Lattice="31.11787118 0.00000000 0.00000000 0.00000000 30.06824284 0.00000000 0.00000000 0.00000000 23.69661585" energy=-12038.98512381 virial="-56.14570000 -19.08961414 14.75137271 -19.08961414 -52.19174498 -13.45235197 14.75137271 -13.45235197 -116.64125273" stress="-0.00048346 -0.00085308 0.00074775 -0.00085308 -0.00033734 -0.00058036 0.00074775 -0.00058036 -0.00239074" Properties=species:S:1:pos:R:3:vel:R:3
C 30.24847818 3.46809633 1.50452539 -0.00614330 -0.00520619 -0.00005990
C 2.46943283 0.65316890 3.16108795 0.00207681 -0.00381365 0.00781179
C 30.47150730 3.60269704 6.41651010 -0.00444497 0.00269074 0.00133077
C 2.67360716 0.69301356 7.80964975 0.00011967 -0.00391073 0.00448152
C 30.56624282 3.70977131 11.10783431 -0.00089910 0.00003025 0.00376864
C 2.61865602 0.46634862 12.70054727 0.00071215 -0.00114151 0.00251905
C 30.47549820 3.34491613 15.95414603 -0.00233059 0.00252578 0.00270249
C 2.40717359 0.33409778 17.38767835 -0.00043009 -0.00178700 0.00059505
C 30.34684072 3.56844558 20.65158936 0.00452222 -0.00673891 0.00224253
C 2.27593622 0.52549681 22.03665050 0.00147101 0.00338200 -0.00093544
C 30.90322295 9.39262241 1.70014691 -0.00713336 0.00417679 0.00244416
C 2.86148292 6.10467078 3.20951366 -0.00220452 0.00293842 -0.00756439
C 30.85583659 9.23954254 6.56082619 -0.00022979 0.00292108 -0.00480075
C 2.54320449 6.28735707 7.88095158 -0.00028752 -0.00251922 0.00211740
C 30.83491766 9.52105758 11.23723246 0.00127084 0.00408358 0.00868447
C 2.90027392 6.17290117 12.51060655 0.00222385 -0.00025625 0.00250378
C 31.01971588 9.17720137 15.95471946 0.00032835 -0.00537284 0.00479169
C 2.77630582 5.99538890 17.18002246 0.00540311 -0.00684987 0.00023466
C 30.95044746 9.29563155 20.56741109 -0.00355046 0.00000634 0.00110940
C 2.69235864 6.03320839 22.03780508 -0.00150229 -0.00108788 -0.00501832
C 0.26715930 14.88869166 1.79351314 0.00956694 0.00957451 0.00361383
C 3.48931002 12.11415539 3.02354583 -0.00565097 -0.00422292 -0.00435659
C 0.05803907 14.48850030 6.55455053 -0.00689879 -0.00464407 -0.00433615
C 3.24689588 11.75820723 7.87219665 -0.00499009 0.00244750 0.00053842
C 0.34549261 14.55383052 11.25093922 -0.00038855 -0.00077390 0.00004346
C 3.25064220 11.55049381 12.43385511 -0.00343203 0.00441288 -0.00636302
C 0.33168270 14.61522674 15.93831718 0.00220472 -0.00160239 -0.00403936
C 3.42637628 11.63510190 17.27144657 -0.00374747 0.00452969 0.00514516
C 0.44137304 14.91968798 20.51357268 0.00075169 -0.00118904 0.00438546
C 3.38029254 11.91062785 21.96617129 0.00155766 -0.00287331 -0.00637174
C 0.75030660 20.57502119 1.82771719 -0.00169803 0.00113495 0.00162972
C 3.48028014 17.43817504 3.08056847 -0.00007281 -0.00126347 0.00462157
C 0.30575675 20.28272865 6.45601979 0.00260301 -0.00202311 0.00266591
C 3.54283006 17.38025433 7.60482749 -0.00103390 0.00064882 0.00632808
C 0.69195747 20.46457757 11.17338252 0.00200038 -0.00190766 -0.00280898
C 3.73231183 17.21974953 12.54493845 -0.00381749 -0.00491731 -0.00003887
C 0.79355483 20.45073536 16.05151139 0.00779371 -0.00052743 -0.00402648
C 3.68856326 17.11416777 17.08604845 0.00002295 -0.00167597 -0.00380873
C 0.69506784 20.50650545 20.73293692 -0.00052222 -0.00278960 0.00012518
C 3.77098105 17.59919803 21.86237554 -0.00251480 0.00439340 0.00052492
C 0.19726011 26.88025640 1.81291090 0.00222146 0.00383264 -0.00014542
C 3.09030815 23.81438894 2.88868120 0.00859056 0.00475354 0.01001196
C 0.15022092 26.83253165 6.55708196 -0.00087954 -0.00752692 -0.00358469
C 3.16083138 24.28145769 7.72542747 -0.00086271 -0.00186841 -0.00124480
C 0.05246141 27.03445547 11.39595397 -0.00545331 0.00591269 0.00439869
C 3.05055273 23.76148827 12.50187739 -0.00101369 -0.00242239 0.00641919
C 0.14714066 27.00773420 16.16796680 0.00538523 -0.00915394 -0.00101162
C 3.23133624 23.89795420 17.28673547 -0.00553427 0.00756369 -0.00161036
C 0.07619771 26.71756796 20.83429856 -0.00375492 0.00638801 0.00194610
C 3.20973887 24.04631695 21.92652804 -0.00101944 -0.00158404 0.01087136
C 6.02743106 3.38528643 1.88888241 -0.00365804 0.00350695 -0.00034329
C 9.14424426 0.13350991 2.95576052 0.00225821 -0.00509698 -0.00460584
C 6.00584362 3.26023981 6.41804168 -0.00347875 0.00075557 0.00193665
C 9.17441448 0.14501570 7.77318389 -0.00087814 -0.00512655 -0.00662138
C 5.89034725 3.34978406 11.07684137 -0.00454640 -0.00337729 -0.00071680
C 8.89533397 0.17747509 12.44080011 -0.00096716 -0.00175262 -0.00208471
C 6.19050808 3.29996752 16.00099750 -0.00220611 0.00484849 0.00098832
C 9.14108587 0.17799808 17.27158385 -0.00052488 0.00264668 0.00023546
C 5.86371158 3.47916878 20.64921267 -0.00116017 -0.00118046 -0.00577064
C 9.03401639 0.21503745 21.90626817 -0.00771253 0.00201130 0.00315045
C 6.57797559 8.93111515 1.67257399 -0.00451236 -0.00647916 0.00212159
C 9.66027988 5.96637172 3.21178132 0.00246261 0.00360016 0.00195955
C 6.47329137 8.91317446 6.58169266 -0.00231755 0.00314820 -0.00126580
C 9.61609330 5.80251259 7.87530785 -0.00345280 0.00227361 -0.00232055
C 6.42393144 8.77177176 11.32942620 0.00042855 0.00044725 -0.00311872
C 9.57972333 5.77043953 12.76616041 -0.00669876 -0.00289099 0.00952051
C 6.38044202 8.74153878 15.89365826 -0.00474323 0.00405178 -0.00556361
C 9.79352664 6.13109706 17.54803190 -0.00124376 0.00224149 -0.00109299
C 6.42181863 8.78682189 20.68569297 0.00106966 -0.00137702 -0.00010052
C 9.64239442 5.74176504 22.25749063 0.00059061 0.00752092 -0.00711182
C 6.98295434 14.54740796 1.66220742 -0.00121401 0.00575178 0.00421574
C 9.77387764 11.65932473 2.94493831 0.00143722 -0.00157287 0.00429065
C 6.89280638 14.35583318 6.46205788 0.00074334 -0.00097324 -0.00122159
C 9.82649440 11.43380667 7.75225541 0.00442269 -0.00005534 0.00299013
C 6.96337311 14.24879239 11.23418835 -0.00209913 -0.00083676 0.00003175
C 9.86839017 11.32691589 12.45775181 0.00028363 -0.00826641 -0.00005936
C 6.95191238 14.26155029 15.83851924 0.00171944 -0.00140040 -0.00425089
C 9.89100483 11.58115991 17.20108597 0.00020402 0.00049055 0.00034911
C 7.22867011 14.64489650 20.61370033 -0.00393200 -0.00213960 0.00535711
C 10.10114341 11.53658604 21.86455847 -0.00621693 0.00309380 0.00094576
C 6.41187822 20.87920294 1.70105677 -0.00117843 -0.00245709 -0.00225304
C 9.22961999 18.10073764 3.17913132 -0.00053113 -0.00143724 0.00548798
C 6.09019754 21.09485205 6.34727472 0.00622361 -0.00717749 -0.00230912
C 9.30123506 18.10881380 7.86866222 0.00912422 0.00295425 0.00666649
C 6.00540490 20.97303096 11.09398470 0.00171993 0.00258626 -0.00223766
C 9.33147922 18.13202586 12.49246370 -0.00741497 0.00147630 -0.00486386
C 6.24977872 21.06571050 15.91943780 -0.00202300 0.00216647 -0.00520026
C 9.43315742 17.93354318 17.07071037 -0.00197558 -0.00126600 0.00206772
C 6.15708213 21.10579790 20.69125942 -0.00644433 0.00318650 -0.00458517
C 9.41214127 17.92322327 21.89585210 -0.00031325 -0.00070630 0.00356440
C 5.26336918 27.72228442 1.64986841 -0.00882172 -0.00309526 -0.00732111
C 8.54025889 24.51961892 2.98039022 0.00035072 -0.00012253 0.00811697
C 5.66166301 27.70384714 6.41890031 0.00272904 -0.00356544 0.00317550
C 8.56787906 24.56823134 7.73752198 -0.00235220 -0.00083328 0.00535020
C 5.69453681 27.76255567 11.23468435 0.00588815 0.00522813 -0.00617397
C 8.72543704 24.73065455 12.47167178 0.00036530 -0.00047570 0.00169607
C 5.72646218 27.72218527 16.06683211 0.00355891 0.00730140 -0.00125284
C 8.97920730 24.56095257 17.42124628 0.00058134 0.00148590 -0.00438555
C 5.45768280 27.66564147 20.68758024 -0.00264034 0.00257100 0.00853236
C 8.73553214 24.50901820 22.01610017 0.00974989 -0.00057927 -0.00151667
C 12.49261705 2.65121048 1.71869912 0.00224321 0.00087970 0.00433947
C 15.95716847 29.76171782 2.97204213 -0.00276232 -0.00030176 0.00533130
C 12.42374378 2.80506398 6.43912378 -0.00254316 0.00259601 0.00158057
C 15.76463749 29.86083582 7.58534026 -0.01004344 -0.00581776 0.00038910
C 12.70612122 2.56863507 11.23809805 0.01088689 0.00266487 -0.00326864
C 15.85316565 29.68563237 12.49144804 -0.00359733 0.00252185 0.00706492
C 12.93609620 2.82497868 16.05968859 0.00226977 0.00166573 0.00700810
C 15.76147072 29.87995675 17.16516376 -0.00253748 -0.00063525 -0.00067456
C 12.49856551 2.52221875 20.82027233 -0.00309612 0.00217864 0.00002140
C 15.60890574 29.84413099 21.95301103 -0.00174558 -0.00202029 0.00143305
C 12.97578458 8.60309001 1.64867556 -0.00298444 0.00454838 -0.00318205
C 16.02177225 5.33379565 2.83270204 0.00025755 -0.00536665 -0.00181498
C 13.01921798 8.43380686 6.61717564 0.00210387 -0.00161128 0.00686772
C 16.19149216 5.50043707 7.56320340 -0.00204720 -0.00146970 0.00556682
C 12.90815723 8.44689213 11.25267671 0.00386583 -0.00524042 0.01151316
C 16.18382725 5.19772895 12.32501312 0.00252721 -0.00453141 -0.00137142
C 13.08084898 8.34508332 15.90417103 -0.00287466 0.00263234 -0.00755297
C 16.14376435 5.46815135 17.23023151 -0.00266857 0.00672141 0.00557003
C 13.30421069 8.42075828 20.72638209 0.00560526 0.00040215 0.00034796
C 16.05179598 5.34980501 21.85656677 -0.00039059 0.00324599 0.00008827
C 12.78273056 15.06995414 1.67947404 0.00298546 -0.00612581 0.00367030
C 15.57265643 11.97795730 2.82939862 -0.00361531 -0.00821511 -0.00387431
C 12.26704016 14.96526535 6.56316222 -0.00242974 0.00156820 -0.00292256
C 15.76300996 11.70551820 7.68763180 0.00717101 -0.00449021 0.01019960
C 12.51461101 15.12774943 11.25890602 0.00378673 0.00681681 -0.00391930
C 15.57046071 11.91168212 12.56189456 -0.00670433 -0.00100593 -0.00205022
C 12.73030809 15.23896443 15.89525312 -0.00043848 0.00489477 -0.00005518
C 15.67672605 12.05626525 17.36475443 0.00322486 -0.00007701 0.00352671
C 12.65511573 14.97216211 20.63751066 -0.00248488 0.00378173 -0.00177318
C 15.57107605 11.81210029 21.90030011 0.00351924 -0.00060683 -0.00111814
C 11.75756005 21.76031972 1.64392318 0.00682770 0.00785049 -0.00001054
C 14.80265511 18.69732254 3.07065225 0.00283580 -0.00006297 0.00103271
C 11.54916064 21.77564450 6.44986433 -0.00023029 0.00135728 -0.00015495
C 14.90120100 18.75261365 7.55508612 -0.00062487 0.00046621 -0.00004401
C 11.65938555 21.73467378 11.19769983 0.00216794 -0.00260177 0.00429610
C 14.98446979 18.94044413 12.26007639 -0.00204340 0.00027568 0.00622729
C 11.88151664 21.68963373 15.97605140 0.00053573 -0.00448933 -0.00178184
C 14.82070134 18.65378594 16.95268375 0.00087667 -0.00463644 -0.00309599
C 11.79990472 21.54381004 20.53957745 -0.00533039 -0.01045253 0.00089269
C 14.99883795 18.62226242 21.89349048 0.00327905 -0.00078719 -0.00294313
C 12.36811698 27.22060864 1.65022594 -0.00603366 0.00173380 -0.01171926
C 15.47147989 24.46875717 2.95020088 -0.00293191 0.00232885 -0.00587048
C 12.18607431 27.19917082 6.33922690 0.00373267 -0.00151748 0.00437149
C 15.50128471 24.33429238 7.68862592 0.00370874 0.00101842 0.00058224
C 12.15360717 27.36178359 11.09842739 0.00071066 0.00042544 0.00337776
C 15.32819427 24.20249642 12.60023571 0.00016773 -0.00808422 -0.00808420
C 12.27847524 27.20373302 16.05272512 0.00070889 -0.00308962 0.00607795
C 15.11158586 24.31054219 17.10133179 0.00141833 -0.00565132 0.00414917
C 12.11836268 27.39064345 20.77488474 0.00278177 -0.00158449 -0.00304221
C 15.59677032 24.60973648 21.93062668 0.00126461 -0.00502200 0.00577489
C 19.52543689 2.51582819 1.63981628 -0.00642208 0.00137037 0.00262502
C 22.56821174 29.49423391 3.04301649 -0.00381159 -0.00079775 -0.00823745
C 19.49701778 2.42033179 6.50662505 -0.00236534 -0.00403733 -0.00511460
C 22.36870326 29.57136298 7.78714080 0.00054594 0.00263777 0.00350933
C 19.26337349 2.27822927 11.07321025 -0.00892359 -0.00200544 0.00088983
C 22.40825395 29.51034315 12.50386055 -0.00340807 -0.00578976 0.00260624
C 19.19291833 2.53778763 16.04103101 0.00050356 0.00523881 -0.00300721
C 22.43321671 29.53490839 17.35878366 0.00186991 0.00201284 0.00377817
C 19.42789829 2.49623832 20.73485051 0.00119887 -0.00477106 0.00336899
C 22.21833643 29.43930081 22.07915217 0.00327679 -0.01195467 0.00018682
C 18.48979881 8.75608972 1.58783933 0.00325829 -0.00129924 0.00573141
C 21.70650946 5.88967327 2.77806643 0.00143930 0.00242956 0.00177977
C 18.62627067 8.86645571 6.24067763 0.00306041 -0.00198820 -0.00206169
C 21.73513277 5.86202002 7.57350979 0.00707571 -0.00008981 -0.00006454
C 18.84617863 8.92389562 11.30603743 0.00071259 -0.00430701 -0.00211957
C 21.70065789 6.00822687 12.59812393 -0.00664826 0.00176430 -0.00416913
C 18.88109549 9.04003891 15.92626390 0.00014733 -0.00275555 0.00769360
C 22.13698363 6.16194022 17.23414523 -0.00558840 -0.00486757 -0.00512479
C 18.74294720 8.95276660 20.82473834 -0.00420454 -0.00186345 -0.00146608
C 21.92316300 6.10059653 21.81105297 -0.00534355 0.00437694 -0.00089188
C 18.07041921 15.61841091 1.60421796 -0.00200855 0.00071772 0.00121202
C 21.32680926 12.52931978 2.99317147 0.00234625 0.00051909 -0.00072073
C 17.61283451 15.87074577 6.33638755 0.00358639 0.00471312 -0.00110927
C 20.86152331 12.66214104 7.64698688 0.00814035 0.00317262 -0.00385884
C 17.88787417 15.54278379 11.15655238 0.00205647 0.00278705 0.00262153
C 21.12979350 12.73305957 12.32886804 0.00193901 -0.00249134 -0.01405333
C 17.95905886 15.86463292 15.73316114 -0.00364187 0.00100470 -0.00590646
C 21.25579204 12.73961216 17.18524094 -0.00116132 0.00327005 -0.00650473
C 18.13177868 15.89217022 20.59691239 -0.00087725 0.00076599 0.00899100
C 21.31564771 12.74161029 21.91308579 -0.00188431 0.00303528 -0.00033315
C 18.69672334 21.12082622 1.64444483 -0.00125578 -0.00116962 0.00248204
C 21.64345508 18.14260190 2.89229460 0.00062813 -0.00391516 0.00141424
C 18.49415383 21.45217469 6.30244378 -0.00175141 0.00014765 0.00699399
C 21.28147529 18.05694096 7.58632422 -0.00077378 0.00532051 -0.00303766
C 18.50001769 21.29291463 11.02875632 -0.00113078 -0.00150258 0.00378113
C 21.50470022 18.36070081 12.35437522 0.00431962 -0.00170878 -0.00464279
C 18.33975520 21.03846811 15.98198819 0.00034362 0.00209016 -0.00071856
C 21.40287471 18.19103786 17.17057538 0.00468625 -0.00117295 -0.00033618
C 18.39086271 21.51256677 20.56841773 0.00236579 0.00260278 -0.00093516
C 21.71423767 18.01980274 21.91020746 -0.00238974 0.00040860 0.00154464
C 18.90053754 26.87786573 1.69643198 0.00006409 -0.00243375 0.00160041
C 22.51047061 23.85234901 3.06936355 -0.00600572 0.00081275 -0.00519019
C 19.08713730 27.03913751 6.51063362 -0.00148513 -0.00590934 -0.00753765
C 22.00513404 23.93725978 7.93309339 -0.00514074 -0.00179771 0.00102155
C 18.78187117 26.97375022 11.27444157 -0.00530980 -0.00625466 0.00193104
C 21.74477696 23.87365236 12.68789669 -0.00021158 0.00199061 -0.00459014
C 18.77470977 26.75176740 15.87284534 -0.00792804 -0.00022928 0.00317461
C 21.94881750 23.89946434 17.41134849 -0.00296223 -0.00033440 -0.00338803
C 18.77763649 27.03739662 20.58488350 -0.00285378 -0.00767367 0.00385169
C 22.11240996 24.09839436 22.00402183 0.00127385 0.00555963 -0.00238618
C 24.99491745 2.86927627 1.70849047 -0.00368071 -0.00344766 -0.00721526
C 27.64688524 30.03841861 3.17897131 -0.00044487 0.00035637 -0.00075103
C 24.72399886 3.24399520 6.51528990 -0.00583497 -0.00162180 -0.00330534
C 28.30468670 29.87651006 7.87838252 0.00355464 -0.00196331 0.00239738
C 24.84455412 3.10431603 11.23372692 0.00491075 -0.00216964 0.00603471
C 28.14249684 0.14478932 12.61160009 -0.00482738 0.00754054 0.00402951
C 25.00546238 3.13470222 16.08549413 -0.00019175 0.00212572 -0.00512021
C 27.97105294 0.15640909 17.41489139 -0.00978872 0.00654806 -0.00142491
C 24.94846265 3.00817696 20.80351295 0.00135107 -0.00166089 0.00322993
C 27.99545665 29.58953447 22.16241212 0.00881436 -0.00027113 0.00390618
C 24.17213988 9.68886732 1.81450915 -0.00399011 -0.00139018 0.00111476
C 27.35278718 6.73837928 2.99972882 0.00234210 0.00509183 0.00165057
C 24.19096245 9.60938164 6.41673362 0.00801687 -0.00213303 0.00450747
C 27.41555666 6.80514079 7.63760855 -0.00026214 -0.00144041 -0.00780036
C 24.14435851 9.63629330 11.13355476 -0.00159187 0.00000865 -0.00018253
C 27.38932989 6.75238662 12.42146601 0.00153705 -0.00261785 -0.00210392
C 24.33393503 9.81448289 16.00592755 -0.00285747 0.00144511 0.00658892
C 27.30415697 6.50183897 17.05803174 0.00156071 0.00615272 -0.00550012
C 24.35300272 9.68178177 20.64854802 -0.00412463 0.00264332 0.00001521
C 27.43179192 6.49086272 21.97553345 0.00549788 0.00300611 0.00373147
C 24.46236895 15.47102229 1.61444334 -0.00490429 -0.00236412 -0.00858268
C 27.69148781 12.34820807 3.17176006 -0.00046207 -0.00020159 -0.00899321
C 24.49190506 15.35683619 6.51694679 0.00168777 0.00162223 -0.00299461
C 27.50401064 12.17761311 7.76118842 -0.00221351 0.00274587 0.00119586
C 24.31787087 15.58895056 11.17189452 0.00422397 -0.00171008 -0.00193886
C 27.72156204 12.50429978 12.53786527 -0.00169725 0.00139326 0.00373863
C 24.71759862 15.17538398 15.77357592 0.00116495 -0.00063111 0.00770579
C 27.87422520 12.39548295 17.33993003 0.00375244 -0.00346625 -0.00058645
C 24.92976967 15.31664757 20.63511156 0.00017831 0.00930109 0.00695540
C 28.26984089 12.52405595 22.01137123 0.00038607 0.00134536 -0.00146782
C 24.94347795 20.96941663 1.82969383 -0.00076312 0.00022798 -0.00177367
C 28.43831818 17.71228248 2.96954712 0.00617603 0.00102800 0.00122341
C 24.93258633 20.87453603 6.35818829 -0.00225122 -0.00064779 0.00127592
C 28.20701122 17.89057269 7.86582993 0.00027101 -0.00121854 -0.00148610
C 24.83108647 20.74690411 11.20140788 0.00192513 0.00282228 0.01131171
C 28.29570897 17.91912168 12.54549845 -0.00735657 0.00153683 0.00018372
C 24.76764592 20.95845418 15.89609177 -0.00023627 0.00237335 -0.00077175
C 28.21838260 18.03903751 17.14273205 -0.00163286 -0.00299788 -0.00448031
C 25.15083571 20.72140322 20.57758803 0.00235837 -0.00976711 0.00435247
C 28.40545776 17.75389649 21.95383230 -0.00123410 0.00165781 0.00369466
C 25.50592593 26.27130865 1.93006220 0.00102029 -0.00099075 -0.00550567
C 28.42224396 23.55959781 3.19911231 -0.00386143 0.00525221 0.00199365
C 25.77652004 26.35592453 6.53982497 0.00515915 0.00076543 -0.00145637
C 28.44784560 23.13144372 7.91044825 0.00103825 -0.00004889 0.00259488
C 25.33546177 26.48666305 11.23125666 -0.00805053 0.00457492 -0.00629659
C 28.36732016 23.36655195 12.50163525 0.00353552 -0.00886377 0.00234064
C 25.48895425 26.53827082 15.88009039 -0.00069504 -0.00018993 0.00071391
C 28.31319052 23.16962448 17.29578238 -0.00023591 -0.00177535 0.00792844
C 25.41494812 26.12754167 20.72515855 0.00444696 0.01023183 0.00474421
C 28.64086635 23.21935088 22.03430006 -0.00251838 -0.00245114 0.00205858
N 0.12489524 4.23587668 0.94052221 0.00196953 0.00320682 0.00091898
N 3.52435928 5.15068805 3.92379991 -0.00064307 0.00365999 -0.00556529
N 5.17430626 2.63507488 1.12489021 0.00302169 -0.00000128 0.00397988
N 1.62416565 1.49341667 3.77160918 0.00042934 -0.00055309 0.00253926
N 0.08244928 4.30567617 5.56210917 -0.00490631 0.00029549 0.00004309
N 3.30622738 5.45113520 8.54005521 0.00123622 -0.00157603 0.00278850
N 5.19653617 2.34445125 5.73761309 0.00258735 -0.00169897 0.00580575
N 1.85207165 1.66043525 8.31096215 0.00107429 -0.00117141 -0.00672720
N 31.11122261 4.52944797 10.24692848 -0.00052238 0.00100004 0.00376023
N 3.55277503 5.22083226 13.15374008 0.00777964 -0.00064495 0.00417828
N 5.23112543 2.32181325 10.47131797 0.00478338 0.00299382 0.00583006
N 1.73773693 1.22579774 13.37581059 0.00096129 0.00009088 0.00227856
N 0.19088248 4.17338748 15.29211369 0.00283222 0.00168577 0.00396567
N 3.45558878 5.07888249 17.91055598 0.00510405 -0.00022573 -0.00224446
N 5.36347349 2.43139484 15.40412366 -0.00061725 -0.00040277 -0.00179347
N 1.77057543 1.30807107 18.05945080 0.00025346 0.00251136 -0.00317199
N 0.06578485 4.24326345 19.88469194 0.00161365 0.00384223 -0.00085857
N 3.27564567 5.02293932 22.68884766 -0.00011303 0.00236691 0.00778291
N 5.02295634 2.53113699 20.11001906 0.00106111 0.00478843 0.00413199
N 1.45864246 1.11629072 22.93101340 -0.00194407 0.00134819 0.00745859
N 0.43787116 10.26482191 0.86850692 -0.00243698 0.00330260 -0.00047700
N 3.96508517 11.07581704 3.70128738 -0.00501377 0.00305517 -0.00837291
N 5.76734462 8.07123605 0.96117977 -0.00275105 0.00234800 -0.00334240
N 2.06891027 6.97199872 3.81524652 -0.00076204 -0.00909770 0.00011384
N 0.53998125 10.08329640 5.83007726 -0.00536746 0.00801092 0.00125279
N 3.93961163 10.76706297 8.49240475 -0.00180011 0.00571911 0.00707510
N 5.70213160 8.11902608 5.86633378 -0.00221521 0.00098071 -0.00570459
N 1.98557467 7.27445239 8.65428071 -0.00032336 -0.00284271 0.00808613
N 0.55437451 10.17029019 10.38748785 0.00659709 -0.00234864 -0.00309131
N 4.03777324 10.81658769 13.24290488 0.00205043 -0.00000883 0.00575776
N 5.56636773 7.97634692 10.61321126 0.00089837 -0.00153249 0.00238404
N 2.21174603 7.03112538 13.29700877 -0.00235958 -0.00159773 -0.00073205
N 0.56218803 10.12040191 15.17518903 0.00491277 0.00473942 -0.00481054
N 3.90134683 10.56074993 18.01640515 -0.00100577 0.00205310 -0.00056374
N 5.68601556 7.86897706 15.15144746 -0.00337688 0.00073608 0.00293115
N 2.24178348 7.06335881 17.83346941 0.00092781 -0.00440983 0.00351876
N 0.53001838 10.12468448 19.73735976 -0.00412152 -0.00248265 -0.00325068
N 3.93754411 11.02367286 22.80352165 -0.00231944 -0.00114591 -0.00035601
N 5.62707276 7.91329316 20.02811026 0.00320265 -0.00894681 0.00233826
N 2.23656730 7.08376918 22.82050429 -0.00017859 -0.00025311 -0.00045710
N 1.06973690 15.80111751 1.08034674 -0.00142118 -0.00399820 0.00444349
N 4.43896696 16.59533791 3.65784374 0.00585117 -0.00448807 -0.00241394
N 6.27606004 13.59670815 0.95627215 -0.00218798 0.00322212 -0.00242759
N 2.66368600 12.96626332 3.74794955 -0.00094934 0.00256146 0.00166403
N 0.83856008 15.40372875 5.91868719 -0.00375605 0.00029652 0.00233935
N 4.39944501 16.62634133 8.32052099 0.00149188 -0.00188410 -0.00011862
N 6.03741303 13.60329489 5.64582268 0.00227506 -0.00047079 -0.00159591
N 2.88497076 12.81753214 8.55956596 -0.00117209 0.00393741 -0.00762285
N 1.06542389 15.52661280 10.56119786 0.00058260 -0.00412967 0.00033411
N 4.39047185 16.39492198 13.42601874 -0.00089561 -0.00136366 0.00291013
N 6.01755046 13.54243579 10.54488570 0.00094802 0.00618748 -0.00154218
N 2.58762848 12.56642480 13.01718439 -0.00831080 0.00241066 -0.00370715
N 0.99231971 15.50831925 15.07340585 -0.00182581 -0.00203826 -0.00342023
N 4.53761078 16.28316524 17.76789651 -0.00713146 0.00260775 -0.00450098
N 6.32356086 13.28629638 15.07133619 0.00110217 0.00376452 -0.00183762
N 2.73376912 12.54414811 18.03159830 0.00485319 -0.00248414 0.00061294
N 1.09247963 15.79241590 19.68663585 0.00238090 -0.00243488 0.00033535
N 4.54838915 16.80699778 22.66841742 0.00320823 -0.00284039 -0.00052106
N 6.42047000 13.72414271 20.12469837 -0.00236426 -0.00035499 0.00080252
N 3.01961820 13.09942566 22.58784651 -0.00217503 0.00138874 -0.01228449
N 1.47708160 21.34335181 1.00871647 -0.00121231 -0.00483155 -0.00035879
N 4.13348996 23.50665909 3.66749291 0.00255390 0.00097681 -0.00494349
N 5.47826815 20.09668083 0.98393435 0.00253677 0.00420395 -0.00531213
N 2.66736457 18.17938043 3.88003368 -0.00230527 0.00145178 0.00529745
N 0.96654032 21.26361226 5.81802440 0.00139503 0.00667942 -0.00063414
N 4.07291607 23.45650516 8.31880572 0.00388373 -0.00079514 -0.00578336
N 5.12060613 20.27388996 5.79156894 -0.00312064 -0.00015802 -0.00751876
N 2.62476041 18.06752463 8.32333570 0.00374963 0.00051599 0.00056385
N 1.63865337 20.96659085 10.38560055 -0.00088785 0.00186296 0.00178346
N 4.15793117 23.29732698 13.10218617 0.00467843 0.01562477 -0.00292163
N 5.26447260 20.23927642 10.23138722 -0.00233221 -0.00299291 -0.00361769
N 2.83623173 18.06159915 13.18476347 -0.00153480 0.00151217 -0.00200923
N 1.49055757 21.26280154 15.24549992 -0.00122627 -0.00280583 -0.00671226
N 4.35872181 23.47311654 17.88060056 0.00265504 0.00002444 0.00063086
N 5.48225590 20.34299277 15.17158146 0.00768193 -0.00120123 -0.00296543
N 3.08835874 18.03334640 17.86956010 -0.00149739 -0.00068525 0.00177813
N 1.55224306 21.31521585 19.92494504 0.00063811 0.00108425 0.00036929
N 4.14141799 23.48379376 22.69282245 0.00335363 -0.00344515 -0.00015253
N 5.40170636 20.38100020 19.86233482 0.00755530 0.00285012 0.00717477
N 2.84792872 18.34981446 22.58835019 -0.00603550 0.00212638 -0.00137467
N 0.97702213 27.69167844 1.01162795 0.00207423 0.00334044 0.00242166
N 3.18728526 29.92218129 3.92965843 0.00396214 0.00015852 0.00054824
N 4.68418752 26.71718346 0.86811957 0.00448674 0.00302511 -0.00351229
N 2.01298466 24.32398385 3.51089260 0.00784742 -0.00359340 -0.00214809
N 0.77855377 27.70189412 5.75428157 -0.00524184 -0.00007474 -0.00056989
N 3.30876201 29.96826082 8.68862607 -0.00087333 -0.00522814 -0.00530127
N 4.91074568 26.97307714 5.57875150 -0.00110228 0.00161177 0.00338595
N 2.17535146 24.68061344 8.55902062 0.00707880 0.00309606 -0.00564009
N 1.04692657 27.49750355 10.50605334 -0.00182508 0.00633956 0.00574514
N 3.25115365 29.61192358 13.42303640 0.00319047 0.00048850 -0.00170585
N 4.73615251 27.04383508 10.64154366 0.00116364 0.00429149 0.00382671
N 2.14685274 24.24274615 13.42814060 0.00074544 0.00166669 -0.00219499
N 0.84807496 27.88961871 15.45149233 0.00548298 0.00659017 -0.00957477
N 3.38970739 29.74889129 18.08523008 -0.00057866 -0.00487613 -0.00303974
N 4.93929576 26.87365929 15.35377418 -0.00605735 0.00481375 -0.00056158
N 2.23408064 24.42052880 18.16486522 0.00256625 0.00440497 -0.00042461
N 0.99930756 27.44789142 20.23571257 -0.00593789 -0.00088938 -0.00375044
N 3.12304852 29.62216230 22.54792595 -0.00020292 -0.00469298 0.00181621
N 5.04580615 26.61382585 19.98172986 -0.00313353 0.00124526 -0.00356418
N 2.01581933 24.39602517 22.59666815 0.00196569 0.00511738 0.00011725
N 6.75859237 4.25719203 1.07928749 0.00082809 0.00195715 -0.00035406
N 10.24552875 5.04672328 3.92990136 0.00540411 -0.00246229 -0.00092290
N 11.68122874 1.79478841 1.02431381 -0.00393391 -0.00229449 -0.00336712
N 8.60218982 1.19741690 3.67508605 0.00473523 0.00122544 0.00147685
N 6.38905844 4.28555407 5.62099906 -0.00361709 0.00158873 0.00584575
N 10.10310388 4.70386102 8.55201460 -0.00218061 0.00321177 0.00278399
N 11.55421143 2.08783231 5.77817724 0.00004418 0.00517211 -0.00290710
N 8.54987976 1.18256532 8.39165541 0.00549574 -0.00924380 -0.00057691
N 6.56592524 4.18846271 10.28613733 0.00060267 -0.00394090 -0.00784703
N 10.31600231 4.84677401 13.46259123 -0.00201214 -0.00262423 -0.00480968
N 11.79669946 1.83895261 10.49002075 -0.00601312 0.00023963 -0.00289962
N 8.41680928 1.12690911 13.34098048 0.00287694 -0.00597771 0.00116766
N 6.82606282 4.24475493 15.32176387 -0.00865123 -0.00554231 0.00491337
N 10.18199155 4.93597187 18.19452721 -0.00430763 0.00387982 0.00299644
N 12.08789350 1.97886589 15.39806910 0.00076219 0.00237916 -0.00326169
N 8.35933485 0.97022367 18.00444667 0.00017541 -0.00224726 0.00052253
N 6.63998877 4.17011671 19.74834099 -0.00616092 -0.00249698 -0.00200855
N 10.47523128 4.87423514 22.89683648 -0.00166090 -0.00062233 0.00082906
N 11.71498595 1.81891339 19.99702022 0.00440263 0.00000972 -0.00590919
N 8.34436387 1.11021511 22.69606430 0.00024664 0.00409272 -0.00546156
N 7.26731545 9.76062612 0.85448976 0.00099317 0.00094118 0.00253741
N 10.37582673 10.60948446 3.58089960 -0.00348508 0.00394106 -0.01079198
N 12.06393124 7.69993240 1.09685892 -0.00136596 -0.00315173 0.00228234
N 8.87449680 6.85837345 3.83587474 0.00083710 -0.00146958 0.00040144
N 7.27096882 9.66447068 5.80280881 0.00017518 -0.00191924 -0.00323417
N 10.54137997 10.59528244 8.47900571 -0.00033002 0.01017171 -0.00671379
N 12.21507125 7.53118817 6.03630073 -0.00155775 -0.00414305 -0.00886387
N 8.77304090 6.58402264 8.61912215 0.00346230 -0.00141640 -0.00373022
N 7.27652487 9.57654827 10.61110062 0.00016489 0.00483417 0.00443914
N 10.66310935 10.52127659 13.26145468 0.00204878 0.00316794 0.00024884
N 12.19566543 7.55425320 10.53084098 -0.00342161 -0.00791267 0.00336000
N 9.05713352 6.76906734 13.52296729 0.00528778 0.00494393 -0.00242718
N 7.32779226 9.51862374 15.26021257 0.00696426 0.00236689 -0.00743827
N 10.47824944 10.51634060 17.82230097 0.00181478 -0.00334047 0.00469658
N 12.47554806 7.46061269 15.10022909 -0.00460293 -0.00000399 0.00873545
N 9.16345258 7.04204328 18.34180457 -0.00057439 0.00185269 0.00338704
N 6.99507500 9.82210476 19.95176460 0.00140464 0.00619677 -0.00745101
N 10.84641179 10.56250714 22.45420373 -0.00134240 0.00313023 -0.00000049
N 12.46959369 7.63766885 20.04319809 -0.00403585 0.00331098 -0.00190817
N 8.93151661 6.51145350 23.12115874 0.00661417 -0.00694323 -0.00530451
N 7.65605224 15.47653326 0.99123195 -0.00364338 -0.00260832 0.00312184
N 10.21831959 17.34509023 3.71091910 -0.00079523 0.00139208 0.00073081
N 12.06084467 14.26131750 0.90614657 0.00113800 0.00412826 -0.00423499
N 8.88986024 12.45946316 3.70624920 0.00283004 -0.00438084 -0.00504641
N 7.76201009 15.21335121 5.93168156 -0.00688215 -0.00099226 -0.00342810
N 10.21578681 17.50193185 8.67091465 0.00442725 -0.00256472 0.00773856
N 11.52319767 14.10701631 5.80751309 0.00472871 -0.00123739 -0.00178750
N 9.05680303 12.32034952 8.42854888 0.00478787 -0.00287287 -0.00329439
N 7.73054080 15.13524555 10.54613069 -0.00363862 -0.00162599 -0.00361928
N 10.37685560 17.75675924 13.25280962 0.00252159 0.00675556 0.00142802
N 11.69743549 14.34781838 10.58877093 -0.00331186 -0.00391966 -0.00030724
N 9.14738201 12.28518892 13.10386736 -0.00466879 0.00304613 -0.00059388
N 7.55242147 15.22237459 15.15951568 -0.00040127 -0.00006168 0.00590308
N 10.52471618 17.50887304 17.76439450 -0.00127688 0.00622569 0.00145864
N 11.75544741 14.41525220 15.32797008 -0.00335914 0.00136800 0.00489171
N 9.21840126 12.40571813 18.05988791 -0.00236933 -0.00021560 0.00079101
N 7.95665307 15.39446720 19.74512680 0.00050641 -0.00108331 0.00773882
N 10.35872377 17.39303792 22.69639701 0.00562387 -0.00304412 -0.00170918
N 11.76578200 14.23039054 19.93001711 0.00021799 0.00465947 -0.00482491
N 9.60442196 12.44743116 22.72549239 -0.00378712 -0.00156454 -0.00326672
N 7.21582108 21.74625723 0.93694068 -0.00294222 0.00121450 0.00485458
N 9.34309651 23.61258702 3.68974184 -0.00171414 0.00445128 0.00062102
N 11.00316234 20.92708288 0.93184223 -0.00013095 -0.00400455 0.00075812
N 8.19583509 18.55462561 3.95621137 -0.00211547 -0.00160801 -0.00015122