2000
Time=62000.00000005 pbc="T T T" Lattice="31.09511586 0.00000000 0.00000000 0.00000000 29.98387257 0.00000000 0.00000000 0.00000000 23.63591774" energy=-12039.69019330 virial="-31.45022356 -12.69949782 -35.61642488 -12.69949782 2.30903394 12.17647675 -35.61642488 12.17647675 -1.32247890" stress="0.00057869 -0.00057863 -0.00165381 -0.00057863 0.00234889 0.00042903 -0.00165381 0.00042903 0.00256611" Properties=species:S:1:pos:R:3:vel:R:3
C 30.49870439 3.68388656 1.85919763 0.00332246 -0.00225404 -0.00055352
C 2.64148113 0.39514681 3.09815229 0.00549928 0.00229175 0.00374208
C 30.45787831 3.52729161 6.50506984 -0.00476983 -0.00031535 0.00206229
C 2.69062425 0.72908176 7.86528524 -0.00138186 -0.00705343 0.00156744
C 30.97806228 3.75733015 11.04041156 0.00088730 0.00003041 0.00705746
C 2.35785941 0.47154632 12.41496140 0.00406351 0.00220139 0.00418103
C 30.50795812 3.90158274 15.79272825 0.00441053 0.00360869 0.00805729
C 2.36697591 0.65781785 17.16002613 -0.00080521 -0.00375311 0.00483207
C 30.67743735 3.70248701 20.60400177 -0.00756459 -0.00655568 0.00616214
C 2.52826709 0.53431173 21.94369135 0.00186279 -0.00585530 0.00397243
C 30.76810709 9.52815942 1.54550100 0.00475261 0.00187930 0.00463881
C 2.81316437 5.84781317 3.03566081 0.00725038 -0.00360493 -0.00172374
C 30.85635684 9.00448634 6.54400648 0.00022047 -0.00168201 0.00116663
C 2.89416575 6.32917832 7.75927763 -0.00344067 -0.00319386 -0.00724064
C 30.89727265 9.38874206 11.14170358 -0.00047519 0.00159504 -0.00611327
C 2.88200312 6.27711778 12.50363067 0.00188923 0.00116308 0.00191112
C 31.04278833 9.34183596 15.93536617 -0.00274029 -0.00156606 0.00119474
C 2.78642358 6.15355764 17.38896169 -0.00005090 -0.00385832 0.00447389
C 30.74904818 9.25190471 20.48377388 0.00541364 0.00033447 -0.00163110
C 2.90351269 6.28594270 21.99382306 -0.00376572 -0.00619457 0.00169234
C 0.01855402 14.59517951 1.60306895 0.00307308 0.00540114 -0.00511367
C 3.28650853 11.54615989 3.00814135 -0.00929487 0.00607423 -0.00754873
C 0.32666014 14.67254537 6.24313865 -0.00229922 -0.00421945 -0.00838859
C 3.24841781 11.78938488 7.84564549 -0.00169542 0.00072266 0.00489640
C 0.18489610 14.99068428 11.01629010 0.00456150 -0.00214514 -0.00195895
C 3.28389877 11.98621406 12.36708346 -0.00142283 -0.00115644 0.00137149
C 0.13922925 14.91647343 15.86413972 -0.00342666 -0.00477831 -0.00093598
C 3.37332420 11.89330038 17.07085713 -0.00063173 0.00171434 0.00225909
C 0.16687882 14.60666929 20.47006846 -0.00593661 0.00028328 0.00757273
C 3.28494976 11.62721369 21.85795046 -0.00304822 0.00084778 0.00723987
C 0.77652186 20.23588939 1.64075557 -0.00328010 0.00224698 0.00217240
C 3.89503574 17.36495454 2.88343087 0.00056531 0.00213075 0.00476316
C 0.64591565 20.40720168 6.37768604 0.00406591 0.00631270 0.00521198
C 3.93149870 17.44352416 7.56553826 -0.00197306 -0.00321324 -0.00043327
C 0.77368927 20.44076748 11.08808700 -0.00275977 -0.00466825 0.00597263
C 3.63027451 17.58074389 12.30114332 0.00386476 -0.00422537 -0.00176350
C 0.62222515 20.49073330 15.96164294 -0.00163343 0.00342008 -0.00858076
C 3.58717346 17.37229911 17.08549231 0.00438248 -0.00305038 -0.00532871
C 0.49379699 20.27865906 20.55111134 0.00076100 0.00442235 0.00311354
C 3.72914480 17.70690486 21.79168001 0.00100831 -0.00442051 0.00227582
C 31.04526568 26.85670349 1.68851449 -0.00052894 -0.00490556 -0.00230396
C 3.09918201 24.05333389 2.86300621 0.00039641 0.00455310 -0.00238752
C 30.99518876 26.76169882 6.32802934 0.00322059 -0.00175376 0.00115712
C 3.02935599 24.06063760 7.65733609 -0.00230851 -0.00391945 0.00789548
C 30.97426155 27.19847108 11.00695846 0.00471296 -0.00063145 0.00405696
C 3.19391320 23.69152580 12.42511177 -0.00218599 -0.00424959 0.00392141
C 31.01610222 27.03844480 15.76203679 -0.00396203 -0.00424580 -0.00424629
C 3.31634323 24.16534217 17.40300651 0.00031675 0.00539749 0.00647515
C 30.93759504 27.05851154 20.72886836 0.00404805 -0.00112793 -0.00242749
C 3.07022480 23.89671609 21.87536690 0.00117571 0.00638238 0.00957550
C 6.02630740 3.11918934 1.57257040 -0.00037188 0.00271466 -0.00440176
C 8.94337518 29.93317758 3.00548293 -0.00534948 0.00046860 -0.00334291
C 6.21341125 3.01960188 6.33970589 0.00516811 0.00062401 0.00101427
C 9.10472793 0.01453210 7.89856212 0.00442936 0.00191589 0.00439101
C 5.90334102 3.34747077 11.08854691 -0.00526898 0.00269014 -0.00125934
C 8.90414669 0.20382691 12.39611992 -0.00216614 0.00246199 0.00343682
C 5.90932343 3.37889011 15.81883093 -0.00095721 -0.00288556 -0.00272395
C 9.11571476 0.07599483 17.20786607 0.00044454 -0.00143448 -0.00245527
C 6.20706047 3.37168233 20.53949885 -0.00187239 0.00586423 0.00106481
C 8.92408282 29.94255284 22.00766479 -0.00170512 -0.00726435 -0.00244765
C 6.25499643 8.80695085 1.78642834 -0.00049244 0.00036121 0.00732169
C 9.73468239 5.84902716 2.96254526 0.00163126 -0.00345964 0.00086908
C 6.19291568 8.67384096 6.46444450 0.00101510 0.00213974 0.00146349
C 9.45124540 5.80456025 7.74749345 -0.00250838 -0.00246575 0.00411776
C 6.41901700 8.63807236 11.24492516 -0.00022405 0.00116416 -0.00320425
C 9.65667593 5.95362922 12.42349940 -0.00053637 -0.00404462 -0.00398971
C 6.26690533 8.91423562 16.12213148 -0.01008416 0.00176207 -0.00075101
C 9.61939429 5.69085175 17.12512283 -0.00301950 0.00040108 -0.00551295
C 6.39431394 8.89957564 20.67579296 0.00181992 0.00000229 -0.00269890
C 9.47502312 5.75299357 21.92861241 0.00104078 0.00574830 -0.00307993
C 6.61516945 14.31894217 1.43804411 0.00042915 0.00159164 -0.00723540
C 10.01089002 11.20322248 2.83475884 0.00454911 -0.00005490 -0.00363355
C 6.97466800 13.94587567 6.25297400 -0.00113142 -0.00318464 -0.00598354
C 9.69219107 11.19957042 7.58243400 -0.00772661 -0.00155568 0.00689812
C 6.97190564 14.27080771 11.08583498 0.00035580 0.00009792 0.00285959
C 9.92742059 11.28692357 12.32164396 -0.00378388 -0.00032351 -0.00786094
C 6.73246273 14.75087631 15.74149605 0.00334879 -0.00473872 -0.00673991
C 9.95872040 11.33036946 17.09815378 0.00567978 -0.00080656 -0.00043310
C 6.66655742 14.44976491 20.47181711 0.00237897 0.00068769 -0.00052653
C 10.01921936 11.31418223 21.65331662 0.00580171 -0.00099575 -0.00352906
C 6.28387555 21.15154111 1.80724217 0.00197661 0.00050457 0.00211498
C 9.07538371 17.60183593 2.92629745 0.00696842 -0.00063364 -0.00091508
C 6.03662084 20.91721784 6.58201729 0.00436736 -0.00551134 0.00211362
C 9.42641743 18.01868716 7.67078734 0.00757139 0.00444410 -0.00180384
C 6.32121753 21.08119223 11.07432059 0.00190301 0.00229843 -0.00023367
C 9.05521787 17.91601097 12.41477909 -0.00110072 0.00652717 0.00085671
C 6.09650526 21.03141350 16.05132973 0.00249167 0.00553968 -0.00337583
C 9.37156808 18.17879810 17.23313002 0.00325434 0.00600306 0.00017978
C 6.07227534 20.93130497 20.81303614 0.00488353 0.00115339 -0.00435282
C 9.40855770 18.04850904 21.87661399 0.00020596 -0.00128799 -0.00794041
C 5.64497891 27.45940603 1.70819063 0.00174879 0.00643211 -0.00607501
C 8.85309182 24.46685548 3.11540801 0.00440377 -0.00666388 0.00144019
C 5.27031233 27.58241589 6.64809094 0.00093920 -0.00286222 0.01274303
C 8.68619289 24.66977075 7.78445332 -0.00060697 -0.00523171 -0.00549300
C 5.70781630 27.49468132 11.12293772 0.00243194 0.00495930 -0.00494075
C 8.83063052 24.53246828 12.52827431 -0.00204599 0.00244260 0.00030699
C 5.72046300 27.54579869 15.98497145 0.00448052 -0.00304058 -0.00084856
C 8.49872817 24.54582019 17.23449106 0.00057232 -0.00520667 -0.00024901
C 5.54128883 27.63772988 20.72157750 0.00231561 0.00858123 0.00497674
C 8.94910326 24.86131010 22.05090935 0.00088401 -0.00305682 0.00312954
C 12.63974667 2.74353501 1.59598431 0.00571017 0.00178190 -0.00210247
C 15.73789923 29.93797698 3.08886516 -0.00238963 0.00063100 -0.00069761
C 12.60112626 2.66318397 6.58629828 0.00370468 0.00770201 -0.00448954
C 15.97965633 0.06101565 7.71779263 0.00444750 -0.00384017 -0.00386619
C 12.47748296 2.75878174 11.21014107 0.00224766 -0.00560307 0.00190544
C 15.91222750 29.59001071 12.49896192 -0.00918011 0.00211832 -0.00131718
C 12.79764198 2.73922208 15.97498719 -0.00451711 -0.00200601 -0.00234404
C 15.90120614 29.78038562 17.26743232 0.00390304 -0.00616080 -0.00384937
C 12.44897768 2.72629514 20.70180029 -0.00194811 0.00105037 -0.00808364
C 15.74312722 29.64689855 21.98627407 -0.00020718 0.00209430 -0.00138481
C 13.06737343 8.21904169 1.90771766 -0.00131591 0.00102374 -0.00297010
C 16.18313111 5.37871882 3.14063456 0.00031265 0.00521530 -0.00520204
C 13.24733507 8.46530994 6.63941447 0.00069083 0.00230635 0.00701675
C 16.03502146 5.29357450 7.69671363 -0.00305533 0.00022327 -0.00359981
C 13.10868113 8.26961776 11.23116761 -0.00279720 0.00009680 0.00414315
C 16.21872536 5.37136362 12.56329365 -0.00401038 -0.00270217 -0.00834419
C 12.81018273 8.29796841 15.84152797 -0.00114444 0.00382386 0.00221906
C 15.94907706 5.37059500 17.35100801 0.00101254 0.00010987 0.00427970
C 13.06588130 8.26185645 20.59986932 0.00153639 0.00036355 0.00463833
C 16.10008160 5.52417680 21.98366586 0.00070183 0.00905996 0.00187181
C 12.30261639 14.96446654 1.63135313 -0.00073755 0.00070396 -0.00165051
C 15.36991995 12.28064896 3.12367052 -0.00516419 0.00589714 0.00031127
C 12.33097491 15.10587452 6.41864267 0.00357335 -0.00019175 -0.00743295
C 15.57197627 11.92904186 7.79239456 0.00160845 0.00515234 -0.00038776
C 12.61283160 14.76383082 11.23735115 0.00783312 0.00200229 0.00474641
C 15.58600375 11.58969973 12.49831484 0.00077150 0.00321540 0.00713276
C 12.40290455 14.94006258 15.85920931 -0.00094136 -0.00197029 0.00009121
C 15.38435324 11.82914243 17.34149930 0.00173826 -0.00660591 0.00674786
C 12.47217368 14.84884574 20.54735611 0.00139928 -0.00293012 0.00028089
C 15.44701928 11.86307097 21.94889717 -0.00234885 0.00586994 -0.00460928
C 11.58373796 21.76974419 1.90519138 -0.01275265 -0.00182379 0.00056287
C 14.93708767 18.74135843 2.90652794 0.00026795 -0.00006162 0.00339878
C 11.96271284 21.54263529 6.55994278 0.00660455 0.00489351 0.00748233
C 15.18946015 18.62896660 7.67662898 0.00538955 0.00184401 -0.00019103
C 11.99786417 21.68441087 11.24607302 -0.00801332 -0.00209744 0.00331398
C 15.02460679 18.28523746 12.42633758 0.00203633 -0.00273164 0.00368048
C 11.98340480 21.68509479 15.90427476 -0.00022726 -0.00281850 0.00899180
C 14.91403938 18.73863911 17.14342794 -0.00321098 -0.00302912 -0.00113291
C 11.60165215 21.53925837 20.53566443 -0.00378845 -0.00017100 0.00849629
C 14.55644468 18.83772681 21.94086119 0.00440947 0.00051956 0.00080482
C 12.35868070 27.45062545 1.97699032 -0.00165048 -0.00473879 -0.00834948
C 15.38679506 24.40085155 3.28720448 0.00193441 0.00069716 -0.00163161
C 12.11381309 27.23039028 6.57910226 -0.00142861 0.00219057 -0.00312867
C 15.05189130 24.14779919 7.96163130 -0.00197621 0.00295212 -0.00263703
C 12.31064919 27.42482695 11.35887817 0.00390450 0.00282894 -0.00227692
C 15.53495111 24.37093093 12.66789276 -0.00124641 0.00282271 -0.00516950
C 12.16923810 27.18687372 16.07987180 0.00004657 0.00051210 0.00173456
C 15.52374146 24.17525496 17.38843695 -0.00410526 -0.00317045 0.00421037
C 12.27868551 27.01357327 20.89574343 0.00162125 -0.01132938 0.00079008
C 15.08901577 24.20595255 22.03322449 -0.00536547 0.00557790 0.00389375
C 19.33000390 2.54395343 1.58428019 0.00317366 0.00636104 -0.00157140
C 22.08640062 29.05430106 2.84427968 -0.00563741 -0.00395710 0.00200488
C 19.40424789 2.40694558 6.47801415 -0.00941941 0.00932676 0.00646805
C 22.53362159 29.70318618 7.61790611 -0.00135149 -0.00341615 -0.00373225
C 19.15052195 2.45700290 11.15375408 0.00256797 0.00267796 0.00481287
C 22.33642066 29.52741740 12.50298249 0.00329802 -0.00664419 0.00004868
C 19.27367699 2.31977337 15.81944284 0.00518945 0.00175716 0.00259172
C 22.37618372 29.59371605 17.07010421 -0.00133941 0.00314749 0.00633889
C 19.24952986 2.41265635 20.63515479 -0.00012648 0.00315795 -0.00022203
C 22.47690458 29.30213365 21.90356245 -0.00860074 -0.00545505 0.00114299
C 18.57900692 9.06920136 1.81146069 -0.00057152 -0.00163711 0.00110696
C 21.73852847 5.95427360 3.08544844 0.00178154 0.00112923 0.00516557
C 18.43896175 8.96260108 6.69404796 0.00311471 -0.00134606 0.00095328
C 21.66567249 6.10284268 7.78653007 -0.00522449 -0.00559049 0.00344873
C 18.60062502 9.22931469 11.39250002 -0.00289145 -0.00122741 0.01012977
C 21.93891627 6.07033815 12.66798364 0.00445694 -0.00371351 -0.00350017
C 18.62734922 9.04407335 16.04904793 0.00122225 0.00165626 -0.00019329
C 21.89172813 5.68855470 17.20633540 0.00308769 0.00639970 0.00249491
C 18.74151326 8.94099290 20.76256285 0.00105504 0.00439923 -0.00259627
C 21.89722512 5.96044922 21.96946382 0.00385619 0.00204663 -0.00027905
C 17.89558731 15.44156250 1.58839467 -0.00036656 -0.00316451 -0.00308747
C 21.40218030 12.65022488 3.20544987 0.00316528 -0.00245623 -0.00014171
C 17.85751324 15.56984985 6.43511100 0.00448983 0.00417475 0.00652871
C 21.39965772 12.28482685 7.68653943 -0.00335836 0.00236986 -0.00331718
C 18.03876412 15.61089952 10.97609452 0.01008046 -0.00102742 -0.00460461
C 21.45772825 12.66147852 12.47386484 -0.00052021 0.00384205 0.00124245
C 18.04257270 15.46431890 15.83320191 -0.00228533 -0.00477378 0.00780691
C 21.20295343 12.68428937 17.08538056 -0.00296960 -0.00425427 -0.00200623
C 17.93465220 15.36249711 20.51855898 -0.00014679 -0.00344736 -0.00509567
C 21.19392799 12.48391167 21.87894685 0.00113396 -0.00402403 0.00151491
C 18.37673513 21.06103142 1.72548138 0.00173403 0.00341772 -0.01087600
C 21.49605770 17.93974137 3.02290592 -0.00438475 -0.00129164 -0.00494504
C 18.30462610 21.46403280 6.50616925 0.00658882 -0.00361639 -0.00566924
C 21.55300163 18.18935725 7.73172044 -0.00583024 -0.00391395 0.00310216
C 18.31651632 21.25706473 11.12163144 -0.00337317 -0.00438068 0.00014832
C 21.31345041 18.44242725 12.49859064 -0.00185986 0.00153352 -0.00128861
C 18.47062081 21.23510435 16.06436150 -0.00454514 -0.00072309 0.00620739
C 21.66537551 18.06648646 17.12978865 0.00367155 0.00340535 -0.00300532
C 18.34723684 21.48888828 20.59035210 -0.00240036 -0.00085388 0.00414912
C 21.32001023 18.06294491 21.93912253 0.00460495 -0.00430924 -0.00722568
C 18.76637872 26.64563386 1.70202441 -0.00151804 -0.00245026 0.00251400
C 21.93786533 23.92051462 3.15206760 -0.00602306 0.00279631 0.00569440
C 18.90405939 26.64527221 6.56193843 0.00009244 -0.00218157 0.00606630
C 22.00102137 23.60132696 7.75812652 -0.00157846 -0.00327594 -0.00247598
C 19.01273451 26.82238591 11.13661863 -0.00730629 0.00360596 -0.00522106
C 22.12170613 23.61536404 12.41092560 0.00018479 -0.00125855 -0.00551820
C 19.13999583 26.71627517 15.68869248 -0.00007394 -0.00267646 0.01156287
C 22.01992449 23.61115095 17.11620038 -0.00193714 -0.00538999 0.00102957
C 19.14180590 26.94336886 20.49903290 0.00718291 -0.00166764 -0.00414426
C 21.89141595 23.80423715 22.04655667 0.00284284 -0.00007149 0.00162798
C 24.87703461 3.24426807 1.80992127 0.00723512 0.00016617 0.00202601
C 27.91345303 0.15667368 2.98414969 0.00124021 -0.00407499 0.00864888
C 25.03819462 3.07168714 6.46686142 -0.00002637 0.00170386 0.00663446
C 27.94846617 29.81798372 7.66954132 0.00555396 0.00110548 0.00117295
C 24.93119449 2.99250491 11.20251221 -0.00088374 -0.00151380 0.00724132
C 28.29492053 0.19368873 12.53977720 -0.00497537 -0.00525807 0.00167311
C 25.02180204 2.99048897 15.82179497 -0.00078916 -0.00304219 -0.00437919
C 27.96967454 29.62443432 17.06548834 -0.00219181 0.00221261 0.00167434
C 24.95221396 3.18251374 20.83658514 0.00326212 -0.00261577 -0.00120814
C 28.14665093 0.28279645 22.04201146 0.00484803 -0.00399456 0.00207254
C 24.12174781 9.60476369 1.61981016 -0.00719332 0.00202117 0.00303732
C 27.41088490 6.61389023 3.16847959 -0.00213891 -0.00149718 0.00036438
C 24.04545949 9.37301882 6.45786119 -0.00410240 0.00417350 -0.00425632
C 27.52975106 6.46582626 7.83872079 0.00952193 -0.00080586 -0.00639332
C 24.17264811 9.72759235 11.11048458 0.00422536 0.00352834 0.00241598
C 27.59383264 6.80560933 12.57774102 -0.00158634 -0.00949894 0.00354278
C 24.64536804 9.60364201 15.83638573 -0.00976065 -0.00223318 -0.00518771
C 27.52910407 6.67726052 17.26072520 0.00008546 -0.00128979 0.00884242
C 24.37464889 9.36873503 20.56249398 0.00126336 0.00060662 0.00627071
C 27.56563827 6.72409663 21.90035373 -0.00845330 0.00293423 -0.00280863
C 24.51065934 15.28967991 1.83804515 0.00515063 -0.00341517 0.00890494
C 27.54011175 12.31699835 3.14068683 -0.00640100 0.00297939 0.00457802
C 24.83095669 15.27908493 6.51255038 -0.00122946 0.00665362 0.00560529
C 27.80114112 12.26734632 7.80749883 0.00455120 0.00407002 -0.00246946
C 24.25986907 15.10851984 11.13445965 -0.00222008 -0.00332192 -0.00081220
C 27.70837727 12.16895675 12.44766172 -0.00167485 -0.00667681 -0.00382220
C 24.73972250 15.48115358 15.92194453 0.00227953 0.00533646 -0.00576402
C 27.75945468 12.20545309 17.09079753 0.00294304 0.00500212 -0.00122957
C 24.78669776 15.21498664 20.56880632 0.00618918 0.00229821 0.00378139
C 27.61765277 12.29652047 21.73950458 0.00016325 -0.00375744 -0.00101898
C 25.07842648 20.43111779 1.79290132 -0.00424199 -0.00037564 -0.00508989
C 28.33363479 17.68578786 3.06958117 0.00084972 0.00707823 -0.00198159
C 25.07859435 20.78622146 6.47582911 0.00019727 0.00851887 0.00959766
C 28.18864443 17.80199922 7.73319876 -0.00119479 0.00651837 -0.00351743
C 24.97623691 20.69452559 11.16692218 0.00166138 -0.00910985 -0.00348585
C 28.30324519 17.91108166 12.28204509 0.00143941 -0.00270004 -0.00156709
C 25.11093731 20.76408093 15.87142409 0.00575017 0.00543033 -0.00884932
C 28.42652037 17.86558796 16.97355567 -0.00486229 0.00129775 0.00426759
C 25.25855100 20.66578096 20.54480424 -0.00352258 0.00089863 -0.00002341
C 28.35159711 17.97670393 21.87737041 0.00698330 0.01033029 -0.00303760
C 25.57839952 26.35570487 1.73886196 0.00845441 -0.00427332 0.00171092
C 28.70522965 23.43426860 2.79611613 0.00503874 0.00343904 -0.00090782
C 25.39477540 26.39349491 6.38838380 0.00549421 0.00389712 -0.00170307
C 28.50795789 23.30037405 7.66632095 0.00140626 -0.00073603 0.00272108
C 25.57041085 26.47375229 11.17500298 -0.00277677 -0.00001664 0.00300565
C 28.59164296 23.42844025 12.24526594 -0.00101166 0.00154436 0.00039864
C 25.55838101 26.56680942 15.79127632 -0.00380985 -0.00504466 0.00098236
C 28.74294405 23.51378051 16.89391008 -0.00368933 0.00555950 -0.00338229
C 25.67998995 26.52613689 20.60771191 -0.00099660 0.00511621 0.00064217
C 28.27110413 23.60406590 21.84698585 0.00837087 -0.00211922 0.00078539
N 0.34370182 4.38222535 1.17530016 0.00013772 0.00310797 0.00118490
N 3.52508369 4.93011622 3.72295845 -0.00294756 0.00030230 -0.00490478
N 5.24930721 2.27401653 0.86475479 -0.00486950 0.00613791 -0.00128448
N 1.77989560 1.25277527 3.70346498 0.00017287 -0.00064844 -0.00097847
N 31.08944036 4.43222923 5.75256964 -0.00340844 0.00521142 -0.00302552
N 3.65544646 5.41121546 8.39073882 0.00144702 0.00264588 -0.00316098
N 5.29925113 2.20435691 5.67059957 0.00071249 0.00207853 0.00689271
N 1.90761053 1.49548062 8.65398357 0.00069427 -0.00423950 -0.00506021
N 0.42756982 4.80977999 10.34375509 -0.00228822 -0.00301268 -0.00267243
N 3.39046015 5.21320692 13.20285435 -0.00123366 0.00207617 0.00146693
N 5.43446862 2.37179622 10.29651416 -0.00434021 0.00467971 -0.00098625
N 1.61687405 1.29171743 13.20944112 0.00464692 -0.00631911 -0.01131508
N 0.21727540 4.74508965 15.04339339 -0.00217917 0.00166848 0.00832712
N 3.54218491 5.27865064 18.07849790 -0.00822089 0.00327915 -0.00060266
N 5.30535860 2.43116289 15.04638644 -0.00086369 0.00248478 -0.00327771
N 1.56633693 1.43180620 17.89561752 0.00245868 -0.00955574 -0.00228709
N 0.40346715 4.52145223 19.91466739 0.00300244 -0.00194114 -0.00034002
N 3.42754070 5.28129806 22.72534518 0.00196579 0.00241805 -0.00122240
N 5.48717606 2.51334540 19.78491410 0.00153699 -0.00308331 -0.00520692
N 2.03224703 1.52632685 22.74466298 -0.00056412 -0.00173489 -0.00423929
N 0.53983398 10.21887854 0.74115919 0.00034521 -0.00058661 0.00010735
N 3.59875151 10.54346074 3.87118275 0.00341788 -0.00699858 0.00258740
N 5.54905785 7.77502002 1.20021479 0.00096779 -0.00523879 0.00070697
N 2.15391021 6.75660419 3.84258935 0.00355623 0.00370304 0.00365598
N 0.55583325 9.84564596 5.80081508 -0.00343576 0.00283653 -0.00401534
N 3.95612685 10.87914996 8.58234294 0.00227657 0.00073860 -0.00188945
N 5.25540483 7.95291525 5.75084968 0.00161448 0.00115744 -0.00320525
N 2.30051271 7.32752944 8.48378077 0.00410451 -0.00057049 -0.00310297
N 0.60704591 10.27556689 10.38893602 -0.00384180 -0.00739723 -0.00370106
N 3.70636796 10.89097713 13.07312101 0.00684469 -0.00082694 0.00548200
N 5.67425632 7.60175806 10.66472661 0.00219379 0.00369126 0.00063055
N 2.27394409 7.18626409 13.30756452 0.00060598 -0.00842493 -0.00839439
N 0.63326877 10.24371772 15.13982361 -0.00196467 0.00079817 -0.00376377
N 4.00873954 10.87211908 17.74607259 -0.00377737 -0.00233252 -0.00020371
N 5.67462754 8.00970250 15.34573264 -0.00056926 0.00696551 -0.00575564
N 2.24823353 7.17549348 18.14196469 0.00019239 -0.00773730 0.00060334
N 0.47166220 10.16219893 19.93339537 0.00284256 0.00175922 0.00129864
N 4.03670673 10.86708390 22.67122831 -0.00036616 0.00478049 -0.00163719
N 5.58467084 8.09713047 19.93694829 0.00103232 -0.00143506 -0.00133858
N 2.22024183 7.18167229 22.71075320 -0.00159496 -0.00126031 0.00235539
N 0.73711120 15.40011420 0.73643047 0.00125144 -0.00853146 -0.00296537
N 4.87978241 16.60128740 3.54877353 0.00776109 -0.00121826 -0.00285871
N 5.68981142 13.52911489 0.83469587 -0.00264802 0.00002199 -0.00536747
N 2.64981330 12.57300910 3.68789573 0.00009477 0.00213863 0.00490347
N 1.03552401 15.54402640 5.41478503 0.00225211 -0.00930412 0.01147597
N 4.57178325 16.59816069 8.37016048 0.00212233 0.00526322 0.00130832
N 6.02924056 13.23234808 5.70507130 -0.00083352 -0.00058047 0.00085668
N 2.72181336 12.87198882 8.47720790 -0.00053244 -0.00616457 -0.00119716
N 0.91990723 15.83600862 10.29189887 0.00281962 0.00460492 0.00456490
N 4.36293539 16.73836487 13.01467117 -0.00359710 0.00548226 -0.00167956
N 5.99650355 13.45878042 10.46643206 -0.00094012 0.00021810 -0.00469919
N 2.56517207 12.87335353 13.11513686 0.00156521 0.00308120 0.00149214
N 0.88929720 15.72938943 15.09981787 0.00083692 -0.00394362 -0.00418785
N 4.32679498 16.72791550 17.97022081 0.00226999 0.00135585 -0.00166463
N 6.02795132 13.78384037 14.99623429 -0.00134526 0.00046742 -0.00043867
N 2.60166816 12.67736223 17.84176310 0.00009286 -0.00741186 0.00661222
N 0.99787382 15.44533999 19.77563364 -0.00332447 -0.00460887 -0.00297365
N 4.73252309 16.94394801 22.29006500 -0.00247564 0.00580253 0.00278839
N 6.03371141 13.73214675 19.53312989 -0.00145257 -0.00224801 -0.00147704
N 2.66482415 12.68685294 22.36326927 -0.00462255 -0.00375574 0.00038650
N 1.45337143 21.16687292 0.94589503 -0.00332524 0.00200160 -0.00447309
N 4.18610644 23.63999366 3.56378439 -0.00132794 -0.00191082 0.00803238
N 5.72846363 20.16164156 1.11546376 -0.00356367 0.00050743 0.00179220
N 2.95152215 17.95907490 3.63324304 -0.00102441 -0.00105595 0.00137031
N 1.41541292 21.24951088 5.54044274 0.00492300 -0.00265246 0.00636182
N 4.08287671 23.65779565 8.34711725 -0.00549871 0.00089838 0.00446930
N 5.23237671 20.12313254 5.81092939 -0.00378805 0.01057912 -0.00119802
N 2.94338840 18.10228345 8.21090542 -0.00593418 0.00877441 -0.00112209
N 1.72146783 21.25117953 10.52192978 -0.00072044 -0.00015749 0.00390735
N 4.09429959 23.04278328 13.22162032 -0.00117903 -0.00076077 0.00425332
N 5.44497062 20.30546805 10.35696205 -0.00510951 -0.00313618 -0.00523072
N 3.08934019 18.51456210 13.12447549 0.00240402 -0.00405908 0.00315774
N 1.44444032 21.30010048 15.24631829 0.00143376 -0.00168885 0.00759434
N 4.15069633 23.58673883 18.27549178 -0.01083763 -0.00946970 -0.00183632
N 5.41469890 20.09863714 15.29972569 0.00320257 0.00512265 0.00249429
N 2.60645665 18.19652030 17.54310821 -0.00171044 -0.00057041 0.00460886
N 1.34136184 21.18588831 19.97107853 0.00247652 0.00079281 0.00351578
N 4.04632716 23.25972938 22.58213403 0.00071329 0.00711954 0.00087673
N 5.03296307 20.29300276 20.06424085 -0.00154287 -0.00204837 -0.00011383
N 3.10782086 18.53596794 22.64085290 0.00252675 0.00273679 -0.00661260
N 0.89434743 27.78136722 1.30840527 -0.00227287 -0.00515161 0.00190635
N 3.26901433 29.51872907 3.90466113 0.00138780 -0.00223066 -0.00336089
N 4.90612165 26.46711659 1.05082189 0.00295791 0.00514849 -0.00362224
N 2.06291349 24.53130312 3.59522995 0.00013744 -0.00393764 -0.00639541
N 0.75352840 27.65899653 5.71035232 -0.00004875 0.00173862 -0.00276804
N 3.39794189 29.71743203 8.47545820 -0.00276587 -0.00049666 0.00506416
N 4.33736679 26.72814493 6.22024542 -0.00014503 0.00027102 -0.00383166
N 1.99456307 24.62932489 8.38695920 -0.00632823 0.00087082 -0.00080831
N 0.69074401 27.99471647 10.26684550 -0.00433151 -0.00488066 0.00405626
N 3.31725923 29.78109719 13.13241619 -0.00382937 -0.00089182 0.00142660
N 4.77893298 26.82474700 10.39527429 -0.00321617 0.00719337 -0.00567852
N 2.09073269 24.35355163 13.08572091 -0.00277306 0.00558129 0.00153350
N 0.83383930 27.88032820 15.19727840 -0.00287790 0.00174658 0.00560810
N 3.21225302 29.84281827 17.83478956 -0.00534003 -0.00020658 -0.00324118
N 4.92693746 26.91480825 15.12673973 0.00414320 -0.00069734 -0.00126347
N 2.19239405 24.68155668 17.98050899 -0.00140313 0.00146523 0.00735676
N 0.69909206 27.77314402 19.91908436 -0.00580909 0.00393577 0.00675296
N 3.38085350 29.66281157 22.51351316 -0.00052410 -0.00616731 0.00003352
N 4.78826092 26.74022365 20.01837718 0.00221873 0.00062672 0.00119561
N 2.06767675 24.50937322 22.60464899 -0.00855796 0.00425587 -0.00443582
N 6.90891895 3.84820052 0.90071861 0.00274334 -0.00911124 0.00270817
N 10.33753685 4.79876703 3.62427149 -0.00313816 0.00276376 -0.00210871
N 11.80793886 2.00919829 0.83050792 -0.00171305 0.00291727 -0.00443238
N 8.39217574 1.03373919 3.59470886 -0.00017903 0.00714730 -0.00333233
N 6.91658604 3.83675512 5.56571992 0.00049041 -0.00947108 -0.00512125
N 10.25150998 4.99760782 8.53347849 -0.00317958 -0.00133065 -0.00551588
N 11.93532181 1.69022618 5.84015640 -0.00192105 -0.00162344 -0.00144682
N 8.46205813 1.06912279 8.41439032 -0.00155764 -0.00002528 -0.00196975
N 6.50377560 4.41031001 10.53677289 -0.00144885 0.00323658 -0.00028550
N 10.20992411 4.89219079 13.09671549 0.00531130 0.00571107 -0.00043728
N 11.80657295 1.84309800 10.45447495 -0.00454542 -0.00709345 -0.00415104
N 8.36506380 1.22419828 13.05663276 -0.00573245 0.00329682 -0.00488389
N 6.71957060 4.27249570 15.28714047 -0.00034532 0.00025905 -0.00333907
N 10.14516249 4.72753147 17.94339930 -0.00008275 -0.00051137 0.00014348
N 11.97669723 1.86933898 15.26456766 -0.00096518 0.00562786 -0.00192550
N 8.52218994 1.09406595 17.84464558 0.00177932 -0.00054731 -0.00094045
N 6.83883201 4.32049196 19.83955975 0.00248929 -0.00098310 -0.00299745
N 10.23625165 4.86825823 22.62575716 -0.00255519 -0.00022984 0.00444732
N 11.57087907 2.01831944 19.91009466 0.00035904 -0.00234377 0.00736026
N 8.18609853 0.96777787 22.56191735 -0.00428462 -0.00277361 -0.00212507
N 7.12204357 9.50334332 1.06237565 0.00449965 0.00026191 0.00082769
N 10.84826559 10.39952939 3.62751466 -0.00724610 -0.00115191 -0.00197576
N 12.51668721 7.40232433 0.96455251 0.00161584 0.00719204 -0.00325305
N 9.08472635 6.77790533 3.75048985 -0.00490260 -0.01036372 0.00269946
N 7.05305062 9.38034971 5.63412296 -0.00401140 -0.00365301 0.00266457
N 10.55841185 10.44604781 8.32220736 -0.00032108 -0.00158759 -0.00890935
N 12.35941501 7.67365160 5.92956939 0.00563298 0.00506064 -0.00814534
N 8.77412311 6.75893923 8.40765647 -0.00181175 0.00250506 -0.00003604
N 7.18130570 9.42164503 10.44359998 0.00357544 0.00171454 -0.00134894
N 10.72221518 10.54421595 13.08977318 0.00475677 -0.00392627 0.00024398
N 12.05998956 7.67172848 10.52815074 -0.00054007 0.00237275 0.00059076
N 8.99187197 6.95283741 13.15198114 0.00119118 -0.00321878 -0.00352749
N 7.20838510 9.69783708 15.46866077 -0.00030392 0.00284466 0.00253204
N 10.78790451 10.55149549 17.89385763 0.00113800 -0.00008977 -0.00109464
N 12.09550623 7.55931401 15.04511672 -0.00023351 0.00498236 0.00114521
N 8.90481828 6.59594279 17.76966870 -0.00239274 -0.00376574 0.00510130
N 7.05932970 9.89644952 20.05872881 -0.00114250 -0.00180591 -0.00110568
N 10.72269821 10.42565033 22.46930589 -0.00449985 0.00468814 0.00294909
N 12.33684284 7.46068732 19.77365939 -0.00332596 0.00180667 0.00157386
N 9.10501812 6.85818137 22.56357128 0.00124834 0.00101671 -0.00422776
N 7.52848965 14.80535149 0.58996499 -0.00542981 0.00184583 0.00654839
N 10.13390367 17.34568226 3.70567392 -0.00031379 0.00556914 0.00014660
N 11.51011526 14.16160029 0.87742260 -0.00207201 -0.00111518 0.00524480
N 9.11396974 11.90653910 3.63901534 0.00004761 -0.00477838 -0.00135806
N 7.70044600 14.75799304 5.44016255 -0.00292508 0.00109057 0.00518279
N 10.32267494 17.48708344 8.57351241 -0.00278563 0.00359084 -0.00200769
N 11.57079616 14.24880954 5.65282520 -0.00039518 0.00413425 -0.00064736
N 8.94848502 12.13936734 8.25123095 0.00334347 0.00800048 -0.00082552
N 7.77871108 14.98881026 10.25721258 0.00521178 0.00045062 -0.00009671
N 10.06894280 17.51136328 13.19202852 0.00151704 -0.00624364 -0.00178479
N 11.51152022 14.25319115 10.59537657 0.00118830 -0.00182400 -0.00145039
N 9.12028791 12.12365652 13.05757017 -0.00457916 -0.00145580 -0.00032244
N 7.62314054 15.48671121 14.99824865 -0.00249379 -0.00246785 -0.00691736
N 10.20321597 17.34340213 17.94953645 0.00566912 0.00044992 0.00050916
N 11.79887676 13.93369399 15.20139864 0.00240880 0.00225443 -0.00002085
N 9.14046209 12.23234743 17.67870539 0.00229756 -0.00045982 -0.00594177
N 7.64496540 15.27894942 19.96290396 0.00405399 0.00312951 0.00218542
N 10.36007502 17.32884078 22.45418027 -0.00613318 0.00183823 0.00604746
N 11.66721263 14.08048648 19.73506799 0.00206697 -0.00018320 -0.00074582
N 9.19115759 12.14586506 22.29915923 -0.00066990 -0.00171179 -0.00069626
N 6.84161513 22.29976219 1.16677811 -0.00316127 -0.00116641 -0.00120041
N 9.67703705 23.67368089 3.89014254 -0.00136897 -0.00172261 0.00409514
N 10.81324294 21.12733581 1.05740076 0.00046468 0.00041778 0.00125815
N 8.05325638 18.25204953 3.54658816 -0.01090577 0.00282202 0.00231882