2000
Time=92000.00000002 pbc="T T T" Lattice="31.24178628 0.00000000 0.00000000 0.00000000 29.96244433 0.00000000 0.00000000 0.00000000 23.64230781" energy=-12042.76920414 virial="-55.44174034 -1.62367335 -18.20381732 -1.62367335 -58.29590277 -3.70315719 -18.20381732 -3.70315719 -75.96784395" stress="-0.00030337 -0.00013247 -0.00082306 -0.00013247 -0.00040089 -0.00017374 -0.00082306 -0.00017374 -0.00070216" Properties=species:S:1:pos:R:3:vel:R:3
C 30.58083983 3.55998738 1.55502480 -0.00084064 0.00136002 0.00270858
C 2.53984439 0.50736747 2.81324467 -0.00156938 0.00809917 -0.00589812
C 30.61531267 3.62712726 6.26372256 -0.00006010 -0.00133857 0.00737578
C 2.83088730 0.74070779 7.58148661 0.00354312 0.00225328 -0.00702012
C 30.84733969 3.54749394 11.08921023 -0.00177703 -0.00039262 -0.00128176
C 2.41316817 0.31386057 12.22357758 0.00433322 -0.00381261 0.00680416
C 30.79265145 3.44441877 15.72732899 0.00236671 -0.00315248 0.00115079
C 2.30038381 0.41903594 16.96011935 -0.00343907 -0.00224158 0.00054953
C 30.87275383 3.55840344 20.40256418 0.00241951 -0.00141474 -0.00580564
C 2.75732010 0.53057106 21.70900461 -0.00020041 0.00057774 0.00192072
C 31.12504792 9.50500534 1.66598853 -0.00292664 0.00339551 -0.00282533
C 3.07771937 6.11927120 2.95005920 -0.00106287 -0.00108842 0.00425150
C 30.98191176 9.44519457 6.29439267 -0.00661546 -0.00623314 -0.00272192
C 2.86769672 6.39796064 7.68311895 0.00086285 -0.00659772 0.00642025
C 31.20845221 9.24841682 11.11740760 0.00382672 -0.00000531 0.00325321
C 2.83903231 6.14079339 12.29253880 -0.00014029 0.00094282 0.00129089
C 31.18291669 9.23366874 16.07344513 0.00744714 0.00166721 -0.00351560
C 2.82111644 5.83816252 17.29264526 -0.00176108 -0.00823332 0.00128277
C 30.85311083 9.47380066 20.46317543 -0.00699861 -0.00252849 0.00271378
C 2.75761926 6.09480645 21.82664328 0.00417270 -0.00334202 0.00007874
C 0.01885381 14.89406243 1.68657105 0.00176242 0.00504049 0.00314460
C 3.47223810 11.59049608 3.10068033 0.00289783 0.00304210 0.00020178
C 0.23815447 14.67265929 6.56797765 -0.00405515 -0.00206112 -0.00215375
C 3.26879794 11.74660574 7.75106615 -0.00071149 -0.00604836 -0.00148093
C 0.09681228 14.89214186 11.29032883 0.00589456 -0.00543573 -0.00209178
C 3.25772531 11.78095508 12.41648318 -0.00551164 -0.00060650 -0.00398550
C 0.23105996 15.01353168 15.76126725 -0.00302314 -0.00064131 0.00653811
C 3.36862918 12.14881135 17.21507692 -0.00949672 -0.00108962 0.00013971
C 0.06950960 14.84868604 20.65253454 -0.01385094 0.00325274 0.00578917
C 3.30647338 11.72813900 21.85073733 0.00699607 0.00371098 0.00300138
C 0.44804121 20.38901018 1.75193102 0.00396389 0.00338045 -0.00294652
C 3.59826615 17.36541524 2.95581035 -0.00578400 0.00031933 -0.00356857
C 0.43375763 20.30693283 6.40977199 -0.00273928 -0.00213509 -0.00550401
C 3.57596125 17.26366188 7.81075280 0.00576955 -0.00528101 0.00242141
C 0.40339448 20.46234026 11.23278527 -0.00400343 0.00445311 0.00177881
C 3.69055627 17.54479249 12.39183065 0.00128678 0.00480179 -0.00145644
C 0.80629497 20.39093421 15.81845826 -0.00279655 0.00260202 -0.00580903
C 3.96794725 17.43640244 17.07778785 0.00153988 0.00280036 0.00242914
C 0.64931214 20.40544748 20.51751735 -0.00062872 0.00145789 0.00467101
C 3.54541315 17.23746716 21.82460076 -0.00173311 -0.01018094 0.00022278
C 0.23016966 26.78517184 1.74989785 -0.00449525 -0.00048544 0.00514936
C 3.17857035 23.95277181 3.05383224 -0.00000929 0.00696493 -0.00160977
C 0.08411661 26.81073973 6.47466759 -0.00039311 0.00250208 0.00181051
C 3.02468086 24.01935277 7.71460584 0.00017839 0.00429817 -0.00512366
C 0.29466402 26.93877109 11.12793921 0.00074494 0.00142435 -0.00034655
C 3.23646800 23.81607829 12.44309772 0.00059977 0.00057108 -0.00008345
C 31.18595403 26.71615591 15.91262567 -0.00194776 0.00023901 0.00238599
C 3.12852286 23.85452731 17.12208832 0.00167538 0.00356035 -0.00139750
C 0.01834228 27.19911134 20.67562597 -0.00808628 -0.00184088 -0.00139123
C 3.16362669 23.69444119 21.92230105 0.00366368 0.00149482 -0.00492396
C 6.29566662 3.17442810 1.72511458 0.00214261 0.00043977 0.00499644
C 9.18518668 0.22938765 3.03094021 0.00832409 0.00097812 0.00304990
C 6.16834202 3.13507222 6.35146844 0.00049110 -0.00026611 0.00459923
C 9.22358489 0.30713335 7.67596205 0.00235690 -0.00244041 0.00198367
C 6.19552410 3.14316884 11.19380786 -0.00612163 -0.00650889 0.00043719
C 8.87405580 0.02315716 12.42196462 -0.00045540 -0.00725644 -0.00002268
C 5.89431786 3.23241736 15.87528021 0.00548644 0.00016035 0.00363587
C 9.01518523 0.01771572 17.16030173 0.00061099 0.00523724 -0.00408900
C 6.26658605 2.90537712 20.48108075 0.00641912 -0.00179029 0.00214555
C 9.07969066 29.93621953 21.95148271 0.00245689 0.00887164 -0.00160627
C 6.57215952 8.91231206 1.55600317 -0.00554929 0.00284089 0.00096820
C 9.71748710 5.83872977 2.86621684 0.00206865 -0.00294348 0.00618056
C 6.45086292 8.77361160 6.43583802 -0.00042518 -0.00302899 -0.01171725
C 9.69916690 5.73858508 7.71290642 0.00559336 0.00909671 0.00030021
C 6.39994814 8.77522798 11.04755795 0.00022137 0.00190316 0.00100843
C 9.63899673 5.91638130 12.68397951 -0.00650385 -0.00284416 -0.00998591
C 6.03168059 8.88192423 15.89999976 -0.00319943 -0.00209162 -0.00454349
C 9.45684173 5.68861947 17.34605515 0.00863041 -0.00319642 -0.00392798
C 6.42696804 8.92937507 20.53838028 0.00563797 0.00854252 -0.00278154
C 9.73170469 5.64229443 21.89016600 0.00389713 0.00363428 0.00241105
C 6.80091881 14.69576112 1.74340747 0.00400469 0.00274717 0.00499144
C 9.81789499 11.59080672 3.10583463 0.00194155 -0.00590851 -0.00128908
C 6.89027757 14.50771381 6.65995698 0.00353649 0.00404469 -0.00111318
C 10.00193980 11.52342637 7.81918392 0.00410101 -0.00151172 -0.00347733
C 6.72546540 14.41063895 11.23424215 -0.00141743 0.00257140 0.00041819
C 9.67692441 11.47478347 12.39651476 -0.00381063 0.00007073 0.00291663
C 6.71454561 14.35894313 15.81293790 0.00089315 -0.00188046 0.00002350
C 10.10966630 11.43417442 17.19520081 -0.00698246 -0.00230985 0.00222269
C 7.00482753 14.19253398 20.58820503 0.00052704 -0.00383455 0.00220448
C 9.90028165 11.52080166 21.84807737 0.00012675 -0.00514811 0.00513881
C 6.16397491 20.98259757 1.62354753 0.00240234 0.00061592 0.00117517
C 9.22998757 18.10722482 3.22086662 0.01017141 -0.00455957 0.00257258
C 6.12126170 20.76074838 6.45634316 0.00111560 0.00046477 0.00302163
C 9.24189492 17.94269591 7.87230286 -0.00208742 -0.00112663 -0.00103028
C 6.54096658 20.88252443 11.19374764 -0.00390759 0.00136265 -0.00137941
C 9.48621992 17.89591928 12.56452998 -0.00128312 0.00144292 -0.00111156
C 6.10392391 20.89360090 16.06174741 -0.00502301 -0.00187269 0.00841099
C 9.50938552 17.80074804 17.15461785 0.00001543 -0.00396790 0.00066530
C 6.21778265 21.02615537 20.63405256 0.00163889 0.00202306 -0.00196453
C 9.37246466 17.98116913 21.97041600 -0.00503444 0.00073359 0.00180514
C 5.51514545 27.45880569 1.43241555 0.00542305 -0.00437764 -0.00333500
C 8.74405668 24.58052696 2.73737993 -0.00200230 0.00534186 -0.00169982
C 5.57610582 27.48122274 6.15450434 0.00290391 -0.00223385 -0.00590755
C 8.73854966 24.37202948 7.54867738 -0.00276577 -0.00085211 -0.00709581
C 5.64106328 27.56144367 10.97300165 0.00228274 0.00359343 0.00164737
C 8.92861298 24.58194904 12.34430169 0.00049743 -0.00364555 0.00033221
C 5.63022726 27.48046630 15.72935828 0.00362078 0.00285082 0.00163658
C 8.59792390 24.44664907 17.02320431 -0.00630175 0.00438057 -0.00094690
C 5.56974582 27.45057841 20.41978696 -0.00367114 -0.00305782 0.00852274
C 8.94299673 24.59229216 21.69462413 -0.00199696 -0.00200376 -0.00202839
C 12.61965026 2.57373189 1.74878024 -0.00520569 -0.00145128 -0.00008025
C 15.88693870 29.68735783 3.11176034 -0.00359139 0.01081811 -0.00037783
C 12.51581975 2.52890499 6.37789452 0.00344312 0.01399973 0.00044014
C 15.94559853 29.87525972 7.64068597 0.00538851 0.00196695 -0.00411417
C 12.66869721 2.71062036 11.49490989 0.00302708 0.00238359 -0.00237037
C 15.62688180 29.59764365 12.47823395 -0.00563053 0.00194068 -0.00568965
C 12.53372572 2.68647975 15.97528882 -0.00326555 -0.00069368 -0.00851793
C 15.82399208 29.90901510 17.14955606 -0.00037831 0.00445709 -0.00135993
C 12.64337976 2.51087913 20.50459369 0.00635461 0.00093609 0.00280055
C 15.44346591 0.16687156 21.82212885 0.00732118 -0.00082224 -0.00165188
C 13.11669019 8.74174895 1.81388117 -0.00378652 -0.00120395 0.00215634
C 16.29458018 5.50106815 3.04196102 0.00846170 0.00547215 -0.00558181
C 13.14854572 8.73494254 6.44026691 0.00581721 -0.00307073 0.00256191
C 16.02048205 5.32247344 7.75675320 0.00057929 0.00482462 0.00322349
C 13.05392878 8.06370161 11.27996931 0.00352148 0.00208757 -0.00264574
C 16.34020591 5.19876130 12.45712644 0.00880376 0.00262622 0.00720594
C 12.95946966 8.34564526 15.88876634 -0.00216152 0.01129306 0.00220831
C 16.11232172 5.25086728 17.28174717 -0.00009387 -0.00396114 -0.00624412
C 13.16746196 8.32863961 20.69278167 0.00373062 0.00063729 -0.00199053
C 16.06090191 5.39420804 22.06796642 0.00464675 0.00332356 0.00240426
C 12.25550699 15.01100986 1.88046040 0.00615897 -0.00150243 0.00673575
C 15.67269472 11.95840742 3.06558077 -0.00571392 0.00129408 0.00519908
C 12.48147131 15.26832415 6.50452284 -0.00023298 0.00130328 -0.00033550
C 15.76501104 12.49327230 7.96434208 0.00644926 -0.00377633 -0.00078558
C 12.56766827 14.86943040 11.22318049 -0.00308339 -0.00456578 0.00294546
C 15.72368508 11.74017609 12.60380742 -0.00137889 0.00256392 0.00250561
C 12.69918708 14.71029861 15.91370068 -0.00025955 -0.00032882 -0.00018227
C 15.58282735 11.62678197 17.47157934 0.00467140 -0.00503172 -0.00883979
C 12.56562492 14.96053741 20.53194176 0.00515939 -0.00183373 -0.00173420
C 15.77521613 12.23756854 22.07373707 0.00506475 -0.00224491 0.00652447
C 11.76791240 21.57753009 1.93455052 -0.00617231 -0.00504621 0.00546027
C 14.94804014 18.77515645 3.10244578 0.00053974 -0.00654668 0.00282356
C 11.77401469 21.68752709 6.62829262 -0.00666813 0.00159175 0.00489481
C 14.95117247 18.58450464 7.93282665 0.00544179 -0.00431869 -0.00001283
C 12.02766578 21.47546886 11.30160146 -0.00362513 0.00066575 -0.00214076
C 15.01722210 18.47900966 12.56109157 -0.00873034 -0.01065067 0.00157889
C 11.65964907 21.54347283 15.95542508 -0.00375188 0.00455259 0.00053753
C 15.15001267 18.52107367 17.19795847 -0.00235179 0.00053534 0.00607066
C 11.86135924 21.50811401 20.71902850 -0.00005938 -0.00096534 -0.00629549
C 14.90896968 18.37700858 21.83576501 -0.00257367 -0.00011848 0.00037798
C 12.15147189 27.11160464 1.67843083 -0.00712042 0.00152970 0.00305924
C 15.32452887 24.25321947 2.94897016 -0.00297694 0.00561682 -0.00761650
C 12.13167307 27.14013427 6.43494579 0.00118850 0.00720095 -0.00364678
C 15.33831956 24.22980134 7.63549543 -0.00339293 0.00683671 0.00186177
C 12.31540812 27.10653004 11.04247260 0.00335846 0.00171910 -0.00258442
C 15.38465892 23.92645598 12.49494119 0.00210941 -0.01400337 -0.00193178
C 12.28419688 27.21987473 15.74379476 0.00445920 -0.00382635 0.00086336
C 15.28150330 24.36655229 17.29033408 0.00043184 0.00671353 -0.00078397
C 12.40235391 27.22426995 20.53136190 0.00340314 0.00053365 0.00291654
C 15.40582143 23.97159907 21.83415286 0.00212618 0.00223207 -0.00488933
C 19.40822348 2.40394117 1.98719215 0.00331961 0.00669352 -0.00085216
C 22.47140239 29.17668725 3.06753828 0.00489291 0.00334924 0.00758083
C 19.52865238 2.48184511 6.52867013 0.00041543 -0.00118518 -0.00722205
C 22.65455139 29.13476843 7.86177558 0.00736631 -0.00121748 -0.00465110
C 19.54510850 2.14826792 11.08965950 -0.00171079 0.00220381 0.00330479
C 22.62360549 29.46338042 12.54993784 0.00257537 -0.00012721 -0.00754379
C 19.46093893 2.19322975 15.86507991 -0.00253897 0.00193738 -0.00651531
C 22.35483415 29.30550569 17.26818715 0.00087460 0.00032126 -0.00388207
C 19.06566854 2.27619581 20.73636675 0.00150611 -0.00691628 -0.00142535
C 22.23832072 29.19838335 22.04777503 -0.00529412 0.00234909 -0.00540089
C 18.83880255 8.82379824 1.59616604 0.00487432 -0.00292413 -0.00850739
C 21.78775056 6.09827807 3.17128835 -0.00487109 -0.00140451 0.00346165
C 18.59448817 9.09693336 6.55389317 0.00275714 0.00412601 -0.00475265
C 22.10754601 6.18585788 7.97859385 -0.00246680 0.00175731 -0.00378554
C 18.59563442 8.81681348 11.11486044 0.00133265 -0.00248316 0.00138069
C 21.99989836 5.75054585 12.44522530 -0.01508007 0.00739832 0.00129502
C 18.52831117 8.85311295 15.93567756 -0.00304530 -0.00336682 0.00446929
C 21.93361065 5.94551043 17.38945341 -0.00052969 0.00180759 -0.00295304
C 18.72182327 9.09062860 20.72076789 -0.00273594 0.00307501 0.00542243
C 21.76257603 6.21328601 22.01239488 0.00403465 -0.00390246 0.00353176
C 18.02042327 15.77949466 1.82268391 -0.00319809 0.00870355 -0.00035295
C 21.22613953 12.79590060 3.07008856 0.00453551 0.00022758 0.00158193
C 18.28395149 15.99856725 6.53617633 -0.00213444 -0.00898484 0.00818025
C 21.05495006 12.68839480 7.81384369 0.00962130 -0.00014764 0.00549486
C 18.27419337 15.70670683 11.25646989 0.00629682 0.00454804 0.00444875
C 21.45429036 12.55130075 12.57259410 -0.00000400 0.00083160 0.00298105
C 18.14809760 15.41638540 15.91869516 0.00596745 0.00219674 0.00020468
C 21.15163053 12.63283477 17.23200614 -0.00003197 0.01576964 0.00014199
C 18.05693385 15.69972130 20.62829997 -0.00026026 -0.00514423 0.00094143
C 21.25184359 12.84545326 21.93738842 -0.00019238 0.00179864 0.00798130
C 18.65227323 21.57205939 1.88658154 -0.00786897 -0.00292575 0.00081887
C 21.53349243 18.11640558 3.09338607 -0.00260873 -0.00094934 -0.00280718
C 18.49866101 21.44052315 6.71074570 0.00357881 0.00564827 -0.00664369
C 22.05458143 17.99585571 7.74832991 0.00187749 -0.00067427 0.00238960
C 18.85437571 21.30261540 11.38769364 -0.00048968 -0.00648629 0.00298710
C 21.97748179 18.22820793 12.49184287 0.00169496 -0.00016470 0.01043025
C 18.61737238 21.05737406 15.95734500 -0.00271876 0.00665933 -0.00145431
C 21.51735488 18.22207365 17.16703015 -0.00248573 -0.00214446 -0.00047447
C 18.58353498 21.24824148 20.57343180 -0.00315787 0.00203774 0.00205131
C 21.57360054 18.16544123 22.03638819 0.00123542 -0.00939295 -0.00003674
C 18.96348700 26.61566395 1.77690875 -0.00104943 0.00136998 0.00320810
C 22.28780479 23.76808474 3.18385810 -0.00345130 -0.00220917 -0.00522774
C 19.03033227 27.11021407 6.45934374 -0.00182978 -0.00159871 0.00391433
C 22.02225288 23.68010167 7.64231034 0.00054057 0.00414604 -0.00799426
C 18.88843934 26.68221332 10.96411570 0.00149733 -0.00649712 0.00019747
C 22.08335204 23.79656586 12.30888180 -0.00967834 -0.00752371 -0.00644145
C 18.62255403 26.66929302 15.81257573 0.00188887 -0.00051508 0.00185882
C 21.99506947 23.98206056 17.02687517 0.00348422 0.00269833 -0.00093505
C 19.04785826 26.65057871 20.50066867 0.00009313 -0.00483851 -0.00123922
C 22.18819725 23.87958000 22.00981096 -0.00422510 -0.00171564 -0.00250058
C 25.14088907 2.84114697 1.58591614 0.00779321 -0.00533013 0.00573307
C 28.08338045 0.08364518 3.01145454 0.00724870 -0.00145429 0.00643405
C 24.77982178 3.22869070 6.42628836 -0.00339629 -0.00031141 -0.00002638
C 28.27046389 0.15154910 7.55046585 0.00189017 0.00108633 -0.00260566
C 25.03281117 2.89905059 11.17415617 0.00206557 0.00242795 0.00412587
C 28.07360499 29.81454436 12.34974454 -0.00107817 -0.00162095 -0.00237950
C 25.08841116 2.83318907 15.87707654 -0.00066882 0.00320201 0.00414875
C 27.88014542 0.01907640 17.08085855 0.00443875 0.00786601 0.00342588
C 25.03341605 3.36861617 20.44911612 -0.00687848 -0.00566951 -0.00162474
C 28.32779905 0.08233694 21.91264653 0.00387387 0.00555140 0.00044179
C 24.27885189 9.52205262 1.67791391 -0.00045577 0.00218882 -0.00040101
C 27.72837184 6.42237263 3.21819292 -0.00138471 -0.00005362 0.00098008
C 24.25639947 9.88491244 6.34969116 -0.00222163 -0.00921748 0.00014222
C 27.77822556 6.74670999 7.87485256 0.00261460 -0.00713923 0.00315497
C 24.32390348 9.60965959 11.23526747 0.00161099 0.00931616 0.00356783
C 27.58329762 6.51998485 12.45679713 0.00746759 0.00471451 0.00348599
C 24.11069868 9.49424819 16.16696392 0.00029737 -0.00097199 -0.00773633
C 27.58729267 6.74150328 17.18043185 0.00428605 -0.00093439 -0.00460260
C 24.11875455 9.83439922 20.73718118 -0.00241979 0.00004191 -0.00583350
C 27.70891814 6.65034349 21.92364343 0.00515885 0.00451723 0.00137598
C 24.99723777 15.20877004 1.69276582 0.00877138 -0.00255712 -0.00556790
C 27.69993312 12.27858282 3.07260840 0.00752727 -0.00101508 0.00259888
C 24.70628456 15.25134416 6.59363976 0.00405449 0.00246184 -0.00024681
C 27.72846666 12.12552873 7.92726233 0.00118670 -0.00005644 0.00496126
C 24.90218749 14.95167222 11.29901339 -0.00388489 -0.00263089 0.00173415
C 27.75132508 11.71132007 12.61130889 0.00202011 0.00871200 -0.00222840
C 24.97268799 15.44660337 15.95109401 0.00269189 0.00260804 -0.00114447
C 27.90245258 12.18703949 17.30305002 0.00063499 -0.00594819 0.00131076
C 24.91152671 15.45224016 20.70400787 -0.00626318 -0.00526022 -0.00140689
C 27.89705684 12.19110324 21.90330419 -0.00143188 -0.00236486 -0.00586648
C 25.24119869 20.73651351 1.75674479 0.00586184 0.00450838 -0.00071982
C 28.45438416 17.72297362 2.96004487 0.00226716 0.00409171 0.00278777
C 25.19894802 20.42776300 6.43345740 -0.00892606 0.00220885 0.00338270
C 28.01280410 17.65687605 7.78349993 -0.00281014 -0.00076144 0.00320012
C 25.51064420 20.67789149 11.13085746 -0.00280305 0.00570785 -0.00150122
C 28.30969066 17.73674560 12.51249907 0.01027777 0.00087522 -0.00049540
C 25.23175322 20.78146953 16.03486189 0.00050734 0.00204791 0.00496658
C 28.55524883 18.19338322 17.15261043 -0.00078711 0.00304614 0.00531841
C 25.26092730 20.81613593 20.74647524 0.00241554 -0.00379478 -0.00953222
C 28.12916791 17.94906250 21.98352288 0.00046707 0.00714257 -0.00011206
C 25.82862502 26.45584549 1.72422676 -0.00145251 -0.00003222 -0.00678760
C 28.54457444 23.46939863 2.91771614 -0.00518597 -0.00556125 -0.00422413
C 25.74494868 26.31052515 6.40793406 -0.00323558 -0.00118558 -0.00112440
C 28.69152164 23.28676664 7.46682546 0.00311385 -0.00569713 -0.01100153
C 25.81133761 26.25206996 11.06221362 -0.01029953 0.00288822 0.00154331
C 28.94442802 23.52829427 12.57107402 -0.00627475 0.00612538 -0.00200102
C 25.60737440 26.19225756 15.79711621 -0.00768426 -0.00501420 0.00357226
C 28.95157379 23.53248921 17.34517840 -0.00151016 -0.00698058 -0.00732887
C 25.56439994 26.32589648 20.61292456 0.00040392 0.00623469 -0.00299349
C 28.71657396 23.55577240 21.90442227 0.00968041 0.00340495 0.00910771
N 0.25645388 4.11175552 0.71648525 -0.00063653 -0.00162327 -0.00013898
N 3.53544598 5.05197830 3.64895170 -0.00015494 -0.00261497 -0.00212016
N 5.48906038 2.35147240 0.95750572 0.00169275 0.00270655 -0.00234288
N 1.82389796 1.28866854 3.66425752 -0.00294949 0.00249345 0.00536999
N 0.31401648 4.41663107 5.68720674 -0.00220715 -0.00253060 -0.00110962
N 3.33498016 5.35231616 8.47902001 0.00210849 0.00994712 0.00279770
N 5.27155717 2.31512763 5.66216760 -0.00431293 0.00138675 -0.00055915
N 1.91522059 1.42789460 8.36636497 0.00135940 0.00678461 0.00332600
N 0.29517690 4.48682536 10.40006214 -0.00384239 0.00024740 -0.00374188
N 3.55948676 5.06373782 12.67386131 0.00569079 -0.00197165 -0.00414633
N 5.40603176 2.34782146 10.39431875 -0.00165461 0.00208827 -0.00548469
N 1.75664620 1.22490311 13.02438747 0.00521315 0.00244717 -0.00363144
N 0.47715457 4.09047638 15.01829619 0.00162399 0.00392415 0.00290210
N 3.66301015 5.12744929 18.11625107 -0.00242527 -0.00064865 0.00322304
N 5.10914144 2.41327549 15.08017685 -0.00231957 -0.00126657 -0.00535663
N 1.64530840 1.26906527 17.78372864 -0.00154464 -0.00882968 -0.00781558
N 0.35002616 4.43753169 19.68737059 0.00280460 -0.00734878 0.00139228
N 3.50153705 5.17067714 22.47316461 -0.00376832 0.00361665 -0.00174910
N 5.48856625 2.03389779 19.80654085 -0.00201603 -0.00057658 0.00368716
N 2.01628042 1.47310371 22.39845429 -0.00777173 -0.00042247 -0.00074523
N 0.70861401 10.23995143 0.91392066 -0.00146641 -0.00290439 -0.00003414
N 4.06995736 10.61065148 3.82013944 -0.00003469 0.00324196 0.00608889
N 5.95638743 7.95242718 0.86190528 0.00169611 -0.00227401 0.00360527
N 2.37049636 7.05854098 3.63202579 -0.00094375 0.00362198 -0.00021806
N 0.76388961 9.96305897 5.62121064 -0.00514894 -0.00189340 -0.00179938
N 3.92066524 10.66050883 8.32320537 0.00351803 -0.00478660 -0.00349707
N 5.73530669 7.82307817 5.77677701 -0.00351344 0.00103669 0.00123302
N 2.12875700 7.34408030 8.30963410 0.00302868 0.00341991 0.00587961
N 0.60533741 10.21096587 10.39862283 -0.00005975 0.00224494 -0.00016226
N 3.92664216 10.87491978 13.12956963 0.00504563 0.00550413 -0.00286118
N 5.75065706 7.84784151 10.29365813 -0.00499069 -0.00258069 0.00212704
N 2.64143581 7.04939773 13.22492936 0.00131149 -0.00232227 0.00410813
N 0.79601732 9.92933757 15.32079602 0.00318668 0.00123771 -0.00552730
N 3.85047259 11.10130301 17.91649870 0.00370454 -0.00089735 -0.00155314
N 5.67071089 8.01433642 14.94185452 0.00187176 0.00136650 -0.00517990
N 2.18766859 6.92361849 17.87086672 0.00231841 -0.00917999 0.00193344
N 0.56386869 10.08305255 19.72850260 -0.00474046 0.00093742 0.00977582
N 3.87865184 10.72199960 22.53292627 0.00215570 -0.00429666 -0.00142504
N 5.55243167 8.16007519 19.89825738 0.00212265 -0.00090542 0.00915193
N 2.07374688 6.97232904 22.59537222 -0.00164947 -0.00079090 -0.00427974
N 0.91533690 15.56727803 0.92980450 -0.00734894 -0.00074406 0.00619688
N 4.63851537 16.80012059 3.73963325 -0.00261951 -0.00196015 -0.00110110
N 5.94584233 13.83332730 1.10876891 0.00312111 -0.00389120 -0.00392384
N 2.86576957 12.62092944 3.74926495 0.00199490 0.00176964 -0.00360059
N 1.01202324 15.36674060 5.70031008 0.00674095 0.00445243 -0.00171022
N 4.49804871 16.52277576 8.49513294 -0.00377441 0.00520630 -0.00113461
N 6.04317225 13.63257285 5.89004939 0.00632582 0.00939396 -0.01000188
N 2.66276153 12.65121173 8.54146188 0.00464443 -0.00757161 0.00090972
N 0.77902385 15.81419985 10.54379710 0.00099885 -0.00626313 0.00111219
N 4.44525421 16.70328225 13.19958266 0.00137596 -0.00153875 0.00158338
N 5.94710981 13.54451921 10.60883888 -0.00023807 0.00171973 -0.00244684
N 2.55367289 12.72957211 13.18455857 0.00380911 -0.00268166 0.00335913
N 0.92716274 16.01874635 15.10864030 -0.00387656 0.00214253 -0.01302700
N 4.85167410 16.64881275 17.81055111 0.00234189 0.00533709 -0.00023862
N 5.80604173 13.82371668 15.00164050 -0.00501535 -0.00812033 0.00325306
N 2.69709908 13.07815762 17.97243518 -0.00126032 -0.00096397 -0.00352666
N 0.71322294 15.90143864 19.96796140 0.00764042 0.00318024 0.00335169
N 4.46557942 16.59821058 22.65082192 0.00285062 -0.00086757 0.00530266
N 6.19334269 13.48642671 19.78168452 0.00594765 0.00084476 0.00903347
N 2.79470459 12.74779820 22.65528491 0.00468107 0.00733543 -0.00044865
N 1.10483822 21.28530164 1.04233517 -0.00212722 -0.00208688 -0.00124302
N 4.07298119 23.39001476 3.88677376 0.00224756 -0.00349112 -0.00518403
N 5.33373719 20.04037386 1.10020442 0.00082168 0.00108550 0.00035039
N 2.74039061 18.17982204 3.63215400 0.00189341 0.00321461 -0.00522875
N 1.25748963 21.17215640 5.78967179 -0.00026510 -0.00265593 0.00545145
N 3.98120884 23.40095760 8.40270291 0.00419825 0.00514744 0.00157722
N 5.21547451 20.11280965 5.69127431 -0.00223598 0.00045359 0.00201565
N 2.87215143 18.14019190 8.50101453 0.00217121 -0.00397332 0.00765520
N 1.43670113 20.97533662 10.42954551 -0.00226018 0.00073112 -0.00429956
N 4.10617728 23.33825834 13.36579361 0.00071827 -0.00102116 -0.00266159
N 5.63013610 20.09206378 10.60704358 0.00235697 -0.00041739 -0.00300811
N 2.91243071 18.38593814 13.04679009 -0.00075534 0.00436403 -0.00179753
N 1.48241223 21.36425635 15.16265597 -0.00002058 -0.00136965 0.00159361
N 4.11382840 23.16194446 17.83057130 0.00223423 -0.00013167 0.00189933
N 5.34586174 19.91936313 15.38837655 -0.00185215 0.00192380 0.00213888
N 3.12997496 18.21655642 17.77289350 0.00517731 -0.00158400 0.00421637
N 1.53213377 21.13700072 19.81299909 -0.00054559 -0.00065058 -0.00296187
N 4.07127700 23.23496562 22.73986338 0.00295844 0.00418163 -0.00561373
N 5.45777900 20.19137024 19.92049284 -0.00313596 0.00588502 -0.00101358
N 2.53807466 17.87576726 22.52562035 -0.00573700 0.00550054 -0.00089340
N 0.92644957 27.76389352 1.05386617 0.00260128 -0.00488752 0.00437310
N 3.31547637 29.53559204 3.41980197 0.00012422 -0.00177895 0.00309638
N 4.66086184 26.77188999 0.57082875 0.00103465 -0.00515084 -0.00122532
N 2.06210903 24.41695740 3.62911655 -0.00134072 -0.00334110 -0.00045572
N 0.85095329 27.55888569 5.66048760 -0.00517412 -0.00671456 0.00423658
N 3.65206128 29.89913080 8.32063878 0.00127050 -0.00531671 0.01575445
N 4.73104178 26.72086476 5.39825055 0.00396527 -0.00287567 -0.00449559
N 1.99033666 24.55175720 8.44682736 0.00531026 -0.00893510 -0.00694833
N 1.24179836 27.55887903 10.24238793 -0.00051279 0.00261525 0.00456969
N 2.99920550 29.24174127 12.85889600 0.00168727 -0.00258042 -0.00034326
N 4.55438887 26.81478732 10.53884136 0.00136984 -0.00038115 0.00573851
N 2.15622086 24.43021382 12.98637256 -0.00150516 0.00022010 0.00179338
N 0.77830009 27.61651753 15.25326994 0.00730926 0.00720130 -0.00045047
N 3.31804485 29.64699040 17.55917872 -0.00047925 0.00223842 -0.00574876
N 4.85602702 26.77106996 14.88398358 -0.00110412 0.00325025 -0.00169242
N 2.23959311 24.56115472 17.84552780 0.00024041 0.00063824 -0.00077186
N 0.66272949 28.17850673 20.03358397 -0.00317270 0.00144688 -0.00488328
N 3.36543852 29.56896721 22.46314264 0.00210655 -0.00566475 0.00137616
N 4.80739882 26.45690536 19.81944952 -0.00468233 -0.00463413 -0.00200959
N 2.18623932 24.41128429 22.54725367 0.00180138 -0.00191728 0.00078139
N 7.06643980 4.00556828 1.00044283 0.00050673 0.00225926 -0.00160205
N 10.49941981 4.98117373 3.53622018 -0.00453559 -0.00387005 0.00039222
N 11.97042096 1.62238285 0.94951329 0.00087350 -0.00190247 0.00115670
N 8.62847391 1.27620709 3.72407691 -0.00028544 0.00049594 0.00043399
N 6.89177007 4.01586370 5.62638510 0.00324787 -0.00250574 -0.00242856
N 10.37022301 4.83011881 8.44523631 -0.00185186 0.00276636 -0.00205728
N 11.89381488 1.74912420 5.45470711 0.00101146 -0.00476491 0.00632630
N 8.57166266 1.22312098 8.37256253 0.00944373 0.00275555 -0.00074943
N 7.07567233 3.88371861 10.46658908 -0.00325153 -0.00063945 0.00885883
N 10.07388819 4.74446157 13.29998992 -0.00173566 -0.00211915 -0.00900727
N 11.97145831 1.87742281 10.71359704 0.00087095 -0.00219210 0.00416769
N 8.34486867 1.10578355 13.08169617 -0.00696661 -0.00219776 0.00639947
N 6.70287706 4.11279806 15.25647453 0.00376285 0.00516688 0.00004669
N 10.15252531 4.79002036 18.02124920 -0.00024259 0.00435858 -0.00223909
N 11.79683875 1.73857252 15.27634074 0.00601424 0.00427471 -0.00178457
N 8.29605225 1.04913980 17.78630706 0.00475767 0.00337849 -0.00217486
N 6.98595722 3.92528385 19.84865528 -0.00014580 0.00256076 -0.00041805
N 10.52340905 4.75531568 22.67937747 -0.00248304 -0.00242374 -0.00387058
N 11.70212206 1.93819055 19.74272960 0.00304052 0.00157671 0.00055689
N 8.54658905 1.08401502 22.50445152 -0.00199497 -0.00894223 -0.00121482
N 7.35363619 9.74068547 0.77650891 0.00041132 0.00163229 -0.00105149
N 10.60625182 10.82782071 3.83499856 -0.00024096 -0.00161587 0.00249989
N 12.35146132 7.96963657 1.01471919 -0.00289768 0.00554859 -0.00925926
N 9.24985179 6.81709289 3.61047432 -0.00024584 -0.00272311 0.00091594
N 7.15362259 9.59731443 5.63141419 0.00532457 0.00059078 -0.00082266
N 10.70007516 10.54020760 8.40768252 0.00764484 0.00028234 0.00293020
N 12.27780940 7.96276566 5.77906660 -0.00226824 -0.00016884 -0.00562289
N 8.97488315 6.62523561 8.48501928 0.00145197 0.00478420 0.00173181
N 7.08466178 9.68480708 10.35245858 0.00024738 -0.00292296 0.00005400
N 10.35349648 10.67529916 13.24848178 0.00002206 0.00536640 -0.00069325
N 12.05308076 7.63099028 10.47542517 0.00301506 0.00081156 -0.00217630
N 8.97422075 6.70626102 13.49927704 0.00311366 -0.00374100 0.00145628
N 6.85044101 9.85158781 15.44329557 0.00660296 -0.00092953 -0.00010502
N 10.77603719 10.48345014 17.90055677 0.00400820 0.00161428 -0.00016846
N 12.23520504 7.38250703 15.26621368 0.00760628 0.00313563 0.00621342
N 8.90824699 6.78229423 17.98728555 0.00203766 -0.00606183 -0.00472797
N 7.12227058 9.80092020 19.77333791 -0.00079437 -0.00289430 0.00480198
N 10.76026764 10.89406901 22.71317407 -0.00045398 0.00676931 0.00124849
N 12.34073586 7.44971516 20.01060686 -0.00655333 -0.00406318 -0.00187199
N 9.07370143 6.61684894 22.63774775 0.00483764 0.00176052 0.00534129
N 7.52145635 15.52898150 0.94063869 0.00164297 0.00385197 -0.00512382
N 10.14193970 17.44823709 3.93259701 -0.00183784 -0.00587716 0.00427603
N 11.56068893 14.08328421 1.23091446 -0.00047176 0.00279424 -0.00065921
N 8.99305380 12.39470897 3.88172024 -0.00506008 0.00202637 0.00213811
N 7.49478091 15.47820336 5.87768581 -0.00490900 -0.00303940 0.00293240
N 10.21462615 17.30346626 8.56433564 0.00041859 -0.00321164 -0.00029239
N 11.80396056 14.33729415 5.86562345 0.00620094 0.00618654 0.00055058
N 9.04814171 12.11807494 8.57533818 -0.00501128 0.00163031 -0.00418422
N 7.50582037 15.16804848 10.45722213 0.00232130 0.00117699 0.00101874
N 10.36572495 17.13479348 13.31184777 0.00132075 -0.00393674 0.00110031
N 11.63222632 14.15305475 10.52131860 -0.00038792 -0.00016477 -0.00141049
N 8.89525545 12.42920162 13.04150864 0.00325805 0.00145663 -0.00185981
N 7.62575035 15.10990389 15.12655327 0.00311023 0.00232093 0.00412414
N 10.64253422 17.54093598 17.90499530 -0.00129994 0.00232018 -0.00098731
N 11.91663385 13.88930404 15.19495935 0.00654359 0.00114563 -0.00797751
N 9.32525410 12.34172471 17.90356736 -0.00240531 0.00263417 0.00168899
N 7.82093875 15.04521582 19.91819125 0.00982055 0.00011679 -0.00687066
N 10.53087984 17.52388094 22.62441348 0.00708803 -0.00166699 0.00541161
N 11.81044472 14.03005142 19.78253369 -0.00061981 0.00541124 0.00459678
N 8.93590880 12.28569076 22.50986103 0.00426121 -0.00303259 -0.00006324
N 7.15539383 21.50887046 0.78435610 0.00456335 -0.00056701 -0.00003305
N 9.45097428 23.65446790 3.38956216 -0.00204234 0.00615046 0.00422279
N 11.08853754 20.67554549 1.17895760 0.00286503 0.00191337 0.00702083
N 8.26192612 18.77604366 3.87335692 0.00431912 -0.00587048 -0.00481512
N 6.93360397 21.71507975 5.82914833 0.00047828 -0.00185995 -0.00094597