2000
Time=84000.00000008 pbc="T T T" Lattice="31.12649830 0.00000000 0.00000000 0.00000000 30.03494753 0.00000000 0.00000000 0.00000000 23.72545840" energy=-12037.82883525 virial="-26.84830807 5.03880818 -24.73849351 5.03880818 -29.03601006 -0.12462219 -24.73849351 -0.12462219 0.11597163" stress="0.00087630 0.00017795 -0.00113358 0.00017795 0.00094992 0.00005015 -0.00113358 0.00005015 0.00242886" Properties=species:S:1:pos:R:3:vel:R:3
C 30.52457295 3.62598882 1.61530366 0.00127774 -0.00066024 -0.00021058
C 2.39519255 0.62644746 3.19048154 0.00525880 -0.00821659 -0.00027193
C 30.41538703 3.69726824 6.18647172 0.00212395 -0.00147376 0.00273865
C 2.51743448 0.59708401 7.79313265 -0.00507441 0.01187350 0.00295563
C 30.66538403 3.80172274 11.19627536 -0.00230511 0.00523936 -0.00742078
C 2.11264862 0.61744540 12.43756352 0.00203910 -0.00404150 0.00447111
C 30.44027145 3.82385939 15.85809874 -0.01321352 0.00642369 -0.00179816
C 2.66198666 0.63870258 17.32005681 0.00191780 0.00473399 -0.00120247
C 30.22673768 3.92373765 20.72006477 0.00001208 0.00123290 0.00054259
C 2.47432966 0.68899898 22.10701550 0.00361916 0.00374675 -0.00035734
C 30.82337819 9.00185841 1.75377503 -0.00074620 -0.00298621 0.00603865
C 3.08879457 6.55222497 2.85474346 -0.00851134 0.00074626 0.00552613
C 0.05037642 9.16213746 6.62609746 -0.00406604 -0.00092110 -0.00058459
C 2.83608190 5.91802224 7.69700451 -0.00203897 0.00311963 -0.00209721
C 30.84323060 9.33604418 11.47184008 -0.00542868 -0.00007683 0.00290983
C 3.03998470 6.09692220 12.51546916 -0.00071116 0.00265699 0.00037103
C 30.78478293 9.21225009 16.12656417 -0.00333078 0.00950952 -0.00252459
C 2.73577104 6.19666622 17.21476677 -0.00214532 -0.00140674 0.00511176
C 30.89281481 9.42128043 20.97224962 0.00357318 -0.00556737 0.00156802
C 2.98148738 6.38372057 21.81860461 0.00279368 0.00353960 0.00387940
C 0.21207895 14.61290742 1.76324545 0.00087016 0.00460382 0.00039631
C 3.51006699 11.59801513 2.97849444 -0.00191081 0.00167980 -0.00112415
C 0.18489723 14.70195148 6.56846961 -0.00872555 0.00565895 -0.00201798
C 3.13155708 11.67292472 7.95971601 -0.00284571 0.00200685 0.00397596
C 0.37734705 14.71168344 11.24651822 0.00074507 -0.01132369 -0.00010685
C 3.33214303 11.51481151 12.67327028 -0.00206629 0.00173588 0.00188525
C 0.27510298 14.90044854 15.91352899 0.00034455 0.00359308 0.00005984
C 3.40040250 12.06270567 17.41784066 0.00271129 -0.00102481 0.00128618
C 0.23629902 14.65076992 20.85856373 0.00374713 -0.00309535 -0.00142430
C 3.31245413 11.89627806 22.06796398 0.00475655 -0.00135171 -0.00230590
C 0.69860834 20.48866804 1.79140128 -0.00326315 -0.00193642 -0.00108167
C 3.34109117 17.31992407 3.00957718 -0.00195763 0.00109869 -0.00222087
C 0.51882761 20.52034498 6.47518184 -0.00647888 0.00006921 -0.00542358
C 3.58607022 17.22036250 7.76381065 -0.00517472 0.00328865 0.00111041
C 0.84829911 20.45459350 11.30924124 -0.00510470 0.00028785 0.00620874
C 3.75200168 17.35552305 12.52827241 -0.00181870 -0.00561996 0.00352129
C 0.64633117 20.33698850 16.05709523 -0.00045445 0.00448801 -0.00117354
C 3.97433670 17.62795673 17.24823643 0.00591991 -0.00346761 0.00155626
C 0.52416946 20.33270220 20.76741275 0.00652555 -0.01008368 0.00674177
C 3.43578295 17.45298528 21.85133092 0.00090066 0.00154576 -0.00853339
C 31.00414213 27.10147485 1.66671760 -0.00077942 0.00385682 0.00071042
C 2.46528360 23.93248348 2.88800363 -0.00495070 -0.00382108 -0.00215055
C 0.02988715 27.01391378 6.52317795 0.00122572 0.00183537 0.00282702
C 3.11031924 23.84823097 7.85103063 -0.00587966 0.00340238 0.00143492
C 0.05020616 26.58729006 11.17517598 0.00091631 -0.00085920 -0.00355066
C 3.27913471 23.92944657 12.67009771 0.00673830 -0.00252202 -0.00043697
C 0.13766658 26.87693889 16.02827126 0.00556538 -0.00114257 0.00294635
C 3.01621793 23.55607472 17.32880173 0.00381868 -0.00171183 0.00168164
C 30.86376129 27.12859763 20.58252800 -0.00151163 -0.00574423 -0.00062133
C 3.02953962 24.14998400 21.99348892 -0.00482017 0.00303341 -0.00507845
C 6.11222614 3.18971724 1.52816578 -0.00204131 0.00075734 -0.00854010
C 8.94357895 0.01966088 2.84941188 0.00040652 -0.00283342 -0.00446436
C 5.82707996 3.23798677 6.29490348 0.00374410 -0.00227027 0.00474830
C 8.95584830 29.99437299 7.45166317 -0.00305740 0.00163993 -0.00394908
C 6.24099688 2.90293638 11.26998040 0.00214099 0.00088236 0.00680326
C 9.23457175 30.02590074 12.46131422 -0.00286896 0.00046884 0.00305208
C 5.84330572 3.27820823 15.87107934 0.00502501 -0.00192938 -0.00000312
C 9.05887870 0.21353097 17.38526184 -0.00664750 0.01026123 -0.00140817
C 5.94429354 3.29536710 20.62358829 0.00077872 -0.00135378 -0.00129434
C 9.15730576 0.26933025 22.02316200 -0.00221241 0.01131618 0.00181190
C 6.75259424 8.64636522 1.55489151 0.00405112 -0.00511918 -0.00722202
C 9.34127727 5.88501410 2.91701879 0.00148747 0.00273617 0.00036032
C 6.37459184 8.84170994 6.43945174 0.00063949 -0.00496515 -0.00364802
C 9.54525169 5.83448074 7.82620296 -0.00741433 0.00036969 -0.00464547
C 6.37839844 8.53780385 11.20236879 0.00050855 -0.00090659 -0.00005742
C 9.56661688 5.82601605 12.52725420 -0.00041131 -0.00188542 0.00786967
C 6.34034314 8.79837134 16.07708549 -0.00424528 -0.00042994 0.00102559
C 9.83406179 5.96985063 17.15873956 -0.00732774 -0.00134538 0.00652434
C 6.43423666 8.96191344 20.71327238 -0.00294852 -0.00555728 -0.00195018
C 9.57727558 5.89178989 21.87945203 0.00108920 -0.00075503 0.00318110
C 6.93873225 14.32663289 1.77601179 0.00147897 -0.00064528 0.00007621
C 10.10382176 11.50962266 2.98842584 0.00635090 0.00420556 0.00701281
C 6.79848016 14.52950841 6.60629458 0.00073894 -0.00897033 0.00317309
C 10.07187551 11.48492901 7.72557474 0.00219226 0.00127907 -0.00246041
C 6.92593489 14.38030905 11.26555621 0.00045362 0.00084017 -0.00154959
C 10.06479567 11.40327278 12.67409561 0.00014037 0.00467620 0.00268384
C 6.98073247 14.44012666 15.91872068 0.00297910 -0.00501872 0.00591620
C 9.73911257 11.59143919 17.25506336 0.00138823 -0.00204792 0.00248813
C 6.92378974 14.57388505 20.75360942 0.00511376 -0.00101187 0.00423074
C 9.93889612 11.45524796 21.94551873 0.00152041 0.00204372 0.00020550
C 5.94842247 20.97049523 1.72055741 0.00311519 0.00923866 0.01224503
C 9.20688744 18.10722756 3.05306360 -0.00308150 0.00060058 -0.00665047
C 6.05690737 20.91471706 6.21851272 -0.00358830 0.00181062 0.00455044
C 9.32049560 17.59213192 7.87339088 0.00342953 -0.00127201 -0.00112915
C 6.34602967 20.93790676 11.12267994 -0.00286409 0.00434523 -0.00741391
C 9.22794152 18.00478876 12.51906742 -0.00127100 -0.00392463 -0.00782246
C 6.34732260 20.92765688 16.17715679 -0.00095766 -0.00786131 -0.00137993
C 9.46155035 18.14440235 17.24418256 -0.00296915 -0.00476301 0.00120568
C 6.36391507 20.84823315 20.80284131 -0.00177561 -0.00289632 -0.00832821
C 9.51440824 18.05125965 21.97250072 0.00046148 -0.00057920 -0.00205065
C 5.61904978 27.52597473 1.76295270 0.00310240 -0.00740143 -0.00368168
C 8.37267608 24.36782382 3.10806941 0.00045178 0.00190490 -0.00232256
C 5.60019635 27.71435823 6.33808828 -0.00069200 -0.00619126 -0.00535295
C 8.81556090 24.56572829 7.58886510 0.00112376 0.00226390 0.00364775
C 5.77518560 27.48018738 11.15107845 -0.00588262 -0.00602471 -0.00141195
C 8.85063548 24.52166308 12.42533881 0.00367972 -0.00309310 -0.00319054
C 5.60472945 27.52576219 15.87669750 0.00571828 0.00188350 -0.00243278
C 8.69238402 24.70151471 17.28183118 0.00525326 0.00683953 0.00302226
C 5.53670529 27.81866970 20.84116778 -0.00425264 0.00093556 -0.00054035
C 8.84004710 24.83400688 21.87663565 0.00161942 0.00886906 -0.00125830
C 12.52940081 2.81370853 1.67450509 0.00018303 -0.00089926 0.00156263
C 15.76613746 29.79455250 2.88677935 -0.00375270 0.00382734 -0.00892766
C 12.52532105 2.65987876 6.39880346 0.00059646 -0.00160252 0.00121517
C 15.74489990 29.62720482 7.64600631 -0.00031515 0.00180030 -0.00475871
C 12.48864079 2.52682514 11.35897945 -0.00185315 0.00747845 -0.00298565
C 15.69731657 29.79456847 12.44258652 0.00034430 0.00719841 0.00673450
C 12.57650016 2.77827281 15.96112357 -0.00415661 0.00674288 -0.00620685
C 15.83678728 29.99065548 17.20592840 0.00075577 -0.00271743 0.00002276
C 12.44875507 2.94560699 20.66095458 -0.00102691 0.00287803 0.00689286
C 15.71459602 29.76597939 21.92846620 0.00306782 0.00032918 -0.00180947
C 13.08225424 8.54309341 1.76874276 0.00270230 0.00105098 -0.00148246
C 15.98192269 5.20993852 2.92487439 0.00126099 0.00452460 0.00478709
C 13.13794257 8.54789311 6.37388022 -0.00440607 -0.00560293 -0.00517058
C 15.74661426 5.14398333 7.77205335 -0.00003368 0.00172864 -0.00317896
C 12.96248452 8.34583337 11.23122905 -0.00217558 -0.00256653 -0.00586347
C 15.78068048 5.30309257 12.55692738 -0.00261459 -0.00462128 0.00040289
C 13.29153539 8.35182836 15.94644968 0.00181961 0.00091483 -0.00518212
C 16.17704171 5.76939370 17.27420639 -0.00301037 -0.00956627 0.00724719
C 13.05855989 8.52697981 20.77448380 0.00753515 -0.00225375 -0.00478784
C 16.08031924 5.45149720 21.98949819 0.00523191 0.00484063 0.00591761
C 12.63146441 14.83523234 1.84378301 -0.00354508 -0.00055790 0.00053364
C 15.70516174 12.04520918 3.18618401 0.00314327 -0.01047285 0.00373433
C 12.20028887 14.87243382 6.52175596 0.00378865 0.00387785 0.00007873
C 15.62658236 11.98657502 7.91343790 -0.00500483 -0.00081047 -0.00424697
C 12.61539551 15.20933258 11.33895345 0.00315889 -0.00739169 -0.00218802
C 15.50070498 11.92606601 12.74289283 -0.00412035 0.00065065 -0.00740803
C 12.73158556 15.23545405 16.09412213 -0.00295032 -0.00817161 -0.00075594
C 15.56923786 12.14372725 17.39394744 0.00104249 0.00097061 -0.00374058
C 12.47065711 15.12479747 20.83402892 0.00810900 0.00409478 -0.00151456
C 15.02449357 12.10667137 22.32953224 0.00124371 0.00268205 0.00488342
C 11.85369933 21.54993617 1.67380215 -0.00433176 -0.00305188 0.00689942
C 15.10202394 18.52494059 3.05300772 -0.00304273 -0.00042697 0.00120481
C 11.78764954 21.51776075 6.42102325 -0.00396808 0.00029209 0.00358161
C 14.90884962 18.70960649 7.82668427 -0.01205417 -0.00162576 -0.00088648
C 11.90100354 21.55472022 11.17572474 -0.00825142 0.00114622 0.00192999
C 14.84182435 18.91530460 12.36695489 -0.00017053 -0.00225987 0.00638407
C 11.79558328 21.73372081 15.68686840 0.00496322 -0.00217953 0.00078083
C 15.12561926 18.56750146 17.37887429 -0.00236860 -0.00201395 0.00446892
C 11.99482821 21.52234693 20.56627405 -0.00181761 -0.00123579 0.00002414
C 15.04187442 18.22477183 22.02373457 -0.00160872 -0.00482703 -0.00144144
C 12.26474689 27.27431098 1.71844770 0.00289440 -0.00519548 0.00201627
C 15.36715735 24.01527635 3.02116942 0.00095331 0.00156915 -0.00145305
C 12.12595507 26.73465191 6.31302799 -0.00286387 -0.00445231 -0.00388572
C 15.58506508 24.07822500 7.71053031 0.00393916 -0.00590986 0.00140614
C 12.39603546 26.99347410 10.95027768 -0.00530893 -0.01076285 -0.00610494
C 15.68170069 24.27330740 12.40811599 0.00288389 -0.00225395 -0.00295405
C 12.26991484 27.08522137 15.85794608 0.00235464 0.00476476 -0.00386522
C 15.38947337 24.05388149 17.20752925 0.00608089 0.00902330 0.00447651
C 12.41487054 27.35071781 20.61825500 0.00044028 0.00103866 -0.00165147
C 15.32456099 24.08850944 22.02397786 -0.00043922 0.00159292 0.00595808
C 19.37563375 2.30065795 1.72352022 0.00256364 -0.00582096 -0.00322406
C 22.26197815 29.42406736 2.98986626 -0.00744340 0.00082075 0.00366657
C 19.08445269 2.47782390 6.39413838 -0.00589579 -0.01079981 -0.00329174
C 22.69923138 29.63053260 7.74014364 -0.00316590 -0.00199098 0.00227087
C 19.08859023 2.56067509 10.99754432 -0.00041375 -0.00041081 -0.00052774
C 22.33505910 29.52432310 12.53944397 -0.00244481 0.00080517 -0.00519427
C 19.13414836 2.50566459 15.88459729 0.00118105 -0.00417292 -0.00128793
C 22.39838081 29.82722729 17.23856737 -0.00255033 0.00330218 0.00205884
C 19.30258661 2.19932531 20.79942450 0.00053438 -0.00264556 0.00022197
C 22.55546968 29.48912914 21.91221985 -0.00214823 0.00896482 0.00331619
C 18.53672288 8.90541467 1.67791058 -0.00348531 0.00382415 -0.00608822
C 21.93895700 6.15404121 2.87804949 -0.00194987 0.00031057 -0.00322021
C 18.57985318 8.56307783 6.76570545 -0.00755326 0.00822729 0.00259719
C 21.61879655 5.90569582 7.52777366 -0.00978327 -0.00052495 -0.00770767
C 18.37057310 8.87195960 11.29017663 0.00131378 -0.00479737 -0.00449419
C 21.90206527 6.08315961 12.53719097 -0.00335057 0.01275254 0.00272150
C 18.77195768 9.12287672 16.00131332 -0.00673945 -0.00295206 -0.00053031
C 21.71597343 6.28498387 17.42750857 -0.00484743 0.00074594 -0.00397173
C 18.68842121 9.05398043 20.99739112 0.00126325 0.00544053 0.00187624
C 21.80000568 5.97432720 22.19254348 0.00636458 0.00753627 0.00501040
C 17.97364066 15.64956884 1.80959670 -0.00014953 0.00362430 -0.00179129
C 20.86369987 12.66648424 3.10722639 -0.00266854 0.00082104 0.00723011
C 18.29819303 15.54319044 6.59482970 -0.00417686 0.00245689 0.00646401
C 21.16203157 12.48370752 7.84522112 -0.00996988 0.00095232 -0.00266292
C 17.99773784 15.80198375 11.19877180 -0.00162531 -0.00536827 -0.00657481
C 20.94724411 12.51426226 12.60531690 -0.00196224 0.00091977 0.00039144
C 17.82764803 15.68473253 15.83772565 0.00263888 0.00390461 -0.00277298
C 21.12512199 12.59410811 17.37088676 0.00147046 -0.00309960 0.00174891
C 18.30420363 15.78845395 20.59828646 0.00170795 0.00221695 -0.00081346
C 21.41331019 12.77875166 22.25854227 -0.00270974 0.00570733 -0.00552781
C 18.41529249 21.12830726 1.69592742 -0.00046426 0.00518726 -0.00047660
C 21.58889894 18.10334588 2.87320237 0.00521117 0.00193132 -0.00739413
C 18.85623683 21.24103541 6.17959992 0.00003091 -0.00232287 -0.00677517
C 21.73516817 17.98051369 7.68714975 0.00429048 -0.00782666 -0.00243679
C 18.70244594 21.33252809 11.07725365 0.00058162 0.00460676 -0.00884699
C 21.54185274 18.15283612 12.45317069 -0.00011762 0.00158604 -0.00315101
C 18.26420295 21.55245499 15.96806391 -0.00205949 0.00103032 -0.00188493
C 21.65982397 18.15459252 17.19931160 -0.00240361 -0.00018767 -0.00282943
C 18.69302308 21.38477490 20.73616229 -0.00416156 0.00602558 -0.00063850
C 21.79309056 18.16153441 21.76127359 0.00136252 -0.00844606 0.00177383
C 18.74369298 26.79355646 1.55478440 0.00233785 0.00363467 -0.00179221
C 21.99691207 23.87619082 2.85302786 -0.00614911 -0.00360491 0.00506015
C 18.91350114 26.89233269 6.16116096 -0.00840509 -0.00035684 -0.00076011
C 22.07333533 23.94566721 7.59644450 0.00271333 0.00286397 -0.00081292
C 19.06131976 26.89568536 11.10090437 0.00134054 0.00059862 0.00456436
C 22.01935131 24.04100078 12.36200212 -0.00304392 0.00482202 -0.00016065
C 18.86255622 27.03216367 15.93494887 0.00505867 -0.00183521 0.00481228
C 21.84589631 23.89362793 17.20384347 0.00055206 0.00278929 -0.00065060
C 18.61193014 26.69048150 20.73335160 0.00587236 -0.00006373 -0.00420709
C 22.00990978 23.86584721 22.08281954 0.00028340 0.00504553 0.00345049
C 24.85505045 2.93388430 1.81074347 -0.00071696 -0.00103357 -0.00306832
C 27.84961963 29.99660398 2.99421441 0.00380973 -0.00071460 -0.00415412
C 24.85055764 3.32446130 6.56969114 -0.00570117 0.00288618 0.00139797
C 28.16994924 0.19207187 7.70657909 0.00665231 0.00422159 0.00321377
C 24.98872641 2.99193084 11.18799853 0.00430390 -0.00647323 0.00083696
C 28.18039974 29.98543175 12.54730576 0.00510480 0.00120941 0.00421166
C 25.00795679 2.97113154 15.93762712 0.00289656 -0.00390256 -0.00051526
C 27.91722060 0.08333156 17.42006692 0.00581341 -0.00235405 -0.00159657
C 24.88894451 3.34053858 20.76264225 -0.00093726 -0.00528573 -0.00676043
C 27.96425035 0.26566972 22.11175657 -0.00326110 -0.00260088 -0.00452588
C 24.36627348 9.64786877 1.71876728 0.00009192 -0.00534315 -0.00167274
C 27.35833082 6.86251245 3.01451844 -0.00479372 -0.01037611 0.00099459
C 24.00248567 9.65286885 6.32005629 -0.00254271 0.00860344 -0.00161279
C 27.28796027 6.55687332 7.62925115 0.00495554 0.00217876 0.00250876
C 24.24511252 9.68029671 11.13226633 0.00150246 -0.00690416 -0.00721356
C 27.34274498 6.98989625 12.52445187 -0.00178968 -0.00198258 -0.00005111
C 24.26985225 9.63962447 16.02933257 0.00410314 -0.00190196 -0.01146197
C 27.30423631 6.76194838 17.26830550 0.00505111 -0.00018145 -0.00437625
C 24.32166265 9.79077085 20.80732474 -0.00116174 -0.00285556 0.00071385
C 27.24021846 6.71211071 22.17915561 -0.00761008 0.00481609 0.00791304
C 24.75858049 15.48687410 1.88014714 0.00134828 0.00353397 0.00454579
C 27.86434913 12.06122441 3.10364859 0.00107726 0.00202898 0.00240221
C 24.66090530 15.20200869 6.58184096 -0.00135790 -0.00387645 0.00367605
C 27.72572862 11.92637400 7.83474419 -0.00782353 0.00550635 0.00099671
C 24.70956379 15.32327969 11.21238054 0.00369724 -0.00560842 -0.00375764
C 27.66300644 12.39040091 12.45478906 -0.00498522 0.00019565 0.00033512
C 24.64620250 14.99530555 15.92785202 -0.00373648 -0.00661941 0.00615801
C 27.85294240 12.38795318 17.52942847 0.00223203 0.00588156 0.00068253
C 24.82781728 15.23495137 20.62359576 -0.00093975 -0.00461840 -0.00095631
C 27.56135078 12.53585068 22.02192460 0.00140082 0.00342124 -0.01028885
C 25.16030208 20.86609219 1.79598541 -0.00288422 -0.00344540 0.00444312
C 28.50105928 17.61280441 3.19580768 0.00019223 0.00590050 -0.00491552
C 25.49457744 20.96380173 6.38319246 -0.00385929 -0.00505543 0.00065623
C 28.23157840 17.90008377 7.99445146 0.00075839 0.00026102 -0.00157059
C 25.26290388 20.86692454 11.30010494 -0.00647690 0.00754454 -0.00067318
C 28.36641795 17.80867359 12.70918743 -0.00012950 0.00031761 -0.00065150
C 25.16662149 20.63934742 15.97921399 0.00850311 0.00717196 -0.00244129
C 28.34911127 17.75586610 17.26148382 0.00390951 -0.00130838 0.00302299
C 25.48508506 21.08516990 20.75757178 0.00432722 0.00095699 0.00444388
C 28.26932917 17.84199536 22.00678109 0.00288454 0.00333801 -0.00154438
C 25.46933443 26.44281195 1.56244875 0.00112352 -0.00169534 -0.00444421
C 28.75601799 23.52708505 2.76914771 0.00065876 0.00095179 0.00981040
C 25.51815362 26.37553553 6.37009433 -0.00339711 -0.00040487 0.00905015
C 28.72244883 23.32011842 7.86169775 0.00250986 0.00041881 -0.00994808
C 25.76800669 26.55407210 11.18902637 0.00258739 -0.00301070 -0.00156898
C 28.71451523 23.21686131 12.52262682 0.00246266 0.01101222 0.00772756
C 25.59629697 26.47814431 15.89837081 -0.00167883 -0.00274370 -0.00331100
C 28.47328491 23.18772871 17.20853415 -0.00617396 -0.00233418 -0.00184829
C 25.43764181 26.21615117 20.58989678 0.00509910 -0.00174548 0.00068336
C 28.69967434 23.49471015 21.93431219 0.00252523 0.00878807 0.00936161
N 0.21824305 4.52509819 0.96487931 0.00290622 -0.00111945 -0.00183118
N 3.67798790 5.53342912 3.54209980 -0.00065068 0.00326666 -0.00077659
N 5.44760321 2.18112060 0.81706201 0.00136056 0.00199861 0.00392990
N 1.78216816 1.43445109 4.01747627 -0.00113457 -0.00428355 -0.00960431
N 0.01930459 4.56561476 5.42126473 0.00474069 0.00056464 -0.00131051
N 3.60816499 5.02471148 8.38353580 -0.00029673 0.00014736 -0.00245728
N 5.11669043 2.26396649 5.60594339 0.00310312 -0.00219411 0.00669491
N 1.84173414 1.55010207 8.44607255 -0.00282732 0.00404586 0.00411980
N 0.45529527 4.29670938 10.37630514 -0.00188673 -0.00044787 -0.00221268
N 3.70734164 5.15791622 13.28129588 0.00040894 0.00384672 0.00545727
N 5.30627903 2.20630535 10.59838897 0.00030408 -0.00046963 0.00110655
N 1.49256828 1.52460721 13.26009430 -0.00187849 0.00245871 0.00032110
N 0.27621948 4.39870465 15.10115649 0.00238483 0.00111488 0.00384130
N 3.40956614 5.30489918 18.02186562 -0.00364388 0.00195059 -0.00446839
N 5.23669426 2.44862282 15.00992815 -0.00228681 0.00038535 0.00014499
N 1.76822836 1.39438212 18.06938906 -0.00141887 -0.00764652 -0.00918406
N 30.98474905 4.82245801 20.07741459 0.00128604 -0.00171238 0.00050267
N 3.50664539 5.31922899 22.49363253 -0.00261343 -0.00291712 -0.00360468
N 5.09663967 2.54582448 19.92224730 -0.00355050 0.00395013 -0.00178049
N 1.59861508 1.44106341 22.89296690 0.00104323 0.00424481 -0.00151618
N 0.56139937 9.81379861 1.14958195 0.00341565 0.00220880 0.00075026
N 4.16384031 10.71306572 3.74382731 0.00290711 -0.00199551 0.00006316
N 5.85175915 7.92631268 0.81142205 -0.00323262 0.00209612 0.00168089
N 2.43899135 7.41896491 3.73166444 0.00000971 -0.00197110 0.00021373
N 0.84281321 10.02980594 5.93449377 -0.00090154 -0.00221353 -0.00145221
N 3.79527992 10.76003203 8.68019480 -0.00111016 -0.00540348 0.00245478
N 5.87317898 7.78488401 5.73938100 -0.00078188 -0.00402320 0.00202131
N 2.26180056 6.82678560 8.48043906 0.00151908 -0.00094247 -0.00331737
N 0.54368642 9.90058385 10.59409783 0.00318145 -0.00697933 0.00250834
N 3.75285860 10.53640128 13.55212734 0.00204972 -0.00638754 -0.00116331
N 5.52642665 7.85490739 10.40592000 -0.00764605 0.00447218 0.00398965
N 2.40214419 7.02517056 13.26762527 0.00111174 -0.00333117 -0.00552438
N 0.71366890 9.80959952 15.47764655 -0.00229612 0.00034332 -0.00132620
N 3.91043306 11.01598847 18.07748895 0.00452070 0.00881049 0.00940631
N 5.65674612 7.98801325 15.24063162 -0.00839369 -0.00704959 0.00090976
N 2.19933509 7.24184551 17.82156207 -0.00078892 0.00389996 0.00480160
N 0.65860546 10.07158165 20.20525405 -0.00111197 -0.00464980 0.00322092
N 3.75531900 10.82925784 22.70849847 0.00179399 0.00070132 -0.00451205
N 5.65066912 8.11019662 20.02344231 0.00004416 0.00357036 -0.00307913
N 2.57824017 7.40594511 22.61281438 0.00361338 0.00412605 0.00046448
N 0.95037835 15.42377080 0.98110090 -0.00068969 -0.00869238 -0.00143895
N 4.09540368 16.55218115 3.76757135 0.00824974 -0.00546531 0.00518123
N 6.07334648 13.42643970 1.18273241 0.00676315 0.00279877 0.00046134
N 2.70905985 12.49796228 3.71441354 -0.00194179 0.00052254 -0.00380116
N 0.89013607 15.56748928 5.79046073 0.00191100 0.00701104 -0.00342885
N 4.41741804 16.51781724 8.57659923 0.00087192 -0.00153382 0.00456628
N 5.92728292 13.63812234 5.95739201 -0.00085864 0.00185555 -0.00504656
N 2.43240608 12.68840744 8.60565757 -0.00352111 -0.00044619 0.00513630
N 0.86918381 15.76315816 10.58944630 -0.00983543 -0.00239876 0.00519570
N 4.30145179 16.39255189 13.20659607 0.00602252 -0.00198237 -0.00007198
N 6.11077722 13.46357168 10.61614431 0.00211511 0.00080014 -0.00147622
N 2.72442763 12.50203481 13.29818297 -0.00846052 0.00023371 -0.00022640
N 1.09052701 15.71077725 15.21190720 -0.00708278 0.00064938 0.00086325
N 4.70361487 16.72808974 17.95526553 0.00034884 -0.00115585 -0.00602845
N 6.23519451 13.57074002 15.19081964 -0.00067843 0.00166667 -0.00393372
N 2.79578313 13.05231231 18.18165302 -0.00219441 0.00079033 -0.00554495
N 0.96671804 15.64553950 20.25782738 -0.00524550 0.00502490 0.00288018
N 4.42573069 16.66885314 22.27910512 0.00558416 -0.00519847 0.00011194
N 6.09652118 13.66680539 20.09086937 -0.00222876 0.00570197 -0.00415260
N 2.70676820 12.89978312 22.83048261 -0.00627696 0.00140714 0.00236068
N 1.44165473 21.19815611 0.91210620 0.00222741 -0.00977973 0.00081932
N 3.64625556 23.27335577 3.17810075 0.00022334 0.00365820 0.00233587
N 5.16579325 20.03050103 0.99871399 0.00316859 0.00071644 0.00391367
N 2.45177854 18.06738832 3.74056189 0.00032417 -0.00595045 0.00396592
N 1.43658967 21.16618384 5.64329113 -0.00038048 -0.00077207 -0.00223315
N 4.20305945 23.50631538 8.65002660 0.00082038 -0.00344322 -0.00044044
N 5.29149377 19.99185853 5.57358874 -0.00124677 -0.00095223 -0.00241425
N 2.77936112 18.13897367 8.30115225 -0.00077502 0.00330493 -0.01129997
N 1.62177794 21.12903871 10.39964113 0.00214043 -0.00720786 -0.00415745
N 4.31244083 23.53810723 13.43727626 -0.00030101 -0.00087692 0.00044447
N 5.59142590 20.01597991 10.47646815 0.00569751 0.00136733 -0.00291360
N 3.00527295 18.21526120 13.30486507 -0.00044746 0.00084575 0.00324245
N 1.46704982 21.21828447 15.43441375 -0.00476004 -0.00370384 0.00043521
N 4.02543321 22.98709414 17.99094606 0.00284827 0.00031145 -0.00106184
N 5.47428209 20.26249312 15.45347569 0.00158962 0.00256252 0.00333440
N 3.14125364 18.40160520 17.92546705 0.00226356 -0.00707146 -0.00614315
N 1.43055018 21.07825733 20.11189825 -0.00073255 0.00466258 0.00196155
N 3.98771540 23.76490732 22.86313028 -0.00366373 -0.00011844 0.00130541
N 5.55791105 19.97760494 20.11021214 0.00159062 0.00176309 0.00421039
N 2.65758287 18.06022989 22.72819287 0.00032207 -0.00032843 -0.00566473
N 0.88894009 27.75159138 0.98237809 0.00413914 0.00014140 0.00063193
N 3.27553718 29.83242982 3.81616131 -0.00393603 0.00057884 -0.00512803
N 4.87096804 26.80669178 0.84601527 -0.00361156 0.00205732 -0.00276038
N 1.84684600 24.64085217 3.90982763 -0.00383962 -0.00520736 0.00017077
N 0.91755461 27.75485396 5.79879435 0.00592069 -0.00330525 -0.00789127
N 3.21927743 29.77931767 8.60455525 -0.00336702 -0.00162351 0.00005557
N 4.82663674 26.87183479 5.66658167 -0.00250402 0.00098328 0.00133196
N 2.19131825 24.57183139 8.50309073 -0.00567129 -0.00262833 -0.00019973
N 0.69274230 27.55623955 10.44751126 0.00185718 -0.00085179 -0.00178527
N 3.08010993 29.91284770 13.02887700 0.00006124 -0.00287361 0.00350519
N 4.75451712 26.74512722 10.65773787 -0.00158449 0.00415978 0.00238858
N 2.18257989 24.33666892 13.39877472 0.00040478 0.00424583 0.00120696
N 0.87911010 27.71466805 15.24161360 -0.00306201 -0.00415297 -0.00226146
N 3.58197260 29.93662855 17.96289736 0.00408486 0.00486910 0.00358517
N 4.63745385 26.79895462 15.23092632 -0.00323654 0.00044947 0.00522775
N 2.09830063 24.11700846 18.14347041 0.00080970 0.00027181 -0.00212981
N 0.74498101 27.72748517 19.96683185 0.00450264 0.00125537 0.00043527
N 3.30167885 29.82816362 22.77474689 -0.00105418 -0.00265923 0.00135531
N 4.66489833 26.96453880 20.22064453 -0.00155978 0.00068922 0.00145456
N 1.91889865 24.69041209 22.61903944 0.00145355 0.00452106 0.00422660
N 6.93533757 4.02997251 0.87168871 -0.00084369 0.00313435 0.00017823
N 10.04552684 4.82068204 3.40174890 0.00728527 -0.00329962 0.00646760
N 11.75425248 1.97118842 0.94821943 0.00095668 0.00111981 -0.00123638
N 8.33406403 1.07294419 3.43340765 -0.00110486 -0.00441576 0.00100544
N 6.66510811 3.98673743 5.62852367 0.00046801 -0.00147435 -0.00353491
N 10.07826903 4.84532540 8.59606106 0.00606942 -0.00029389 -0.00750211
N 11.44886023 2.13416158 5.67376657 -0.00624285 -0.00216750 -0.00033616
N 8.23284795 0.96800605 8.10134447 -0.00010547 -0.00039300 -0.00317121
N 6.70950944 3.92365906 10.53120729 -0.00751980 0.00292222 -0.00295925
N 10.14936238 4.78918016 13.20925521 0.00063641 0.00100442 -0.00133515
N 11.93090099 1.53990306 10.53029877 0.00182178 0.00712199 0.00106446
N 8.47265851 0.79861079 13.32585219 -0.00430945 -0.00071973 0.01016978
N 6.70147351 4.16605858 15.31064826 -0.00386462 -0.00583979 0.00515760
N 10.32049782 4.97268334 17.92275252 0.00238457 0.00164083 0.00466925
N 11.93433348 1.93784572 15.21009477 0.00472130 -0.00627357 0.00390719
N 8.33145566 1.12663360 18.04416672 0.00679204 0.00124162 0.00843613
N 7.06968325 3.83795559 19.98624251 0.00063457 0.00238846 -0.00090923
N 9.83367606 4.75425968 22.64235724 0.00039774 0.00031877 0.00507120
N 11.84349085 1.92485859 19.97246963 0.00480105 -0.00147260 -0.00073883
N 8.62093159 1.27972975 22.72758256 -0.00140976 -0.00111518 0.00646366
N 7.35537845 9.60942933 0.82612673 0.00368136 -0.00141219 0.00069286
N 11.10175255 10.79896801 3.67710772 0.00730844 0.00104935 0.00081082
N 12.21803879 7.75073501 1.06140869 0.00082880 -0.00349470 -0.00060649
N 8.93631802 6.76638331 3.83214178 0.00256843 0.00124897 -0.00253123
N 6.92579385 9.84679265 5.80870229 0.00332298 -0.00409115 -0.00157642
N 10.80891224 10.55686494 8.40572456 0.00323449 -0.00292647 0.00026452
N 12.44335572 7.69038374 5.60757584 -0.00160762 0.01084864 0.00188368
N 9.01468687 6.93181897 8.49029031 0.00526158 0.00324045 0.00203991
N 7.39338777 9.25336467 10.54654970 -0.00322565 -0.00264043 -0.00716146
N 10.72095111 10.48876558 13.42782171 -0.00044368 -0.00287733 0.00594192
N 12.07194977 7.51416575 10.62072805 -0.00570168 -0.00325761 -0.00211472
N 8.82609733 6.69035441 13.30946877 0.00264191 -0.00380803 0.00000872
N 7.34659556 9.51595909 15.29848791 0.00028373 -0.00004885 0.00116808
N 10.55673064 10.80371779 17.95255192 0.00421910 0.00250062 -0.00140945
N 12.37537512 7.58858497 15.30689256 -0.00416915 0.00059024 0.00061390
N 8.98041508 6.80257626 17.78903088 0.00459265 -0.00562383 0.00008208
N 7.12385550 9.75315528 19.94265387 0.00067557 0.00051290 0.00002397
N 10.55301796 10.54381364 22.77715036 -0.00368278 -0.00631436 0.00038367
N 12.35280795 7.64190758 19.99596018 -0.00166792 0.00817820 -0.00646190
N 9.04472710 6.93790371 22.48272270 0.00039860 0.00254142 0.00618422
N 7.47554203 15.25376559 0.99400616 0.00781205 0.00089902 -0.00250470
N 10.17347763 17.44647512 3.69756773 0.00255417 0.00809820 0.00104751
N 11.69632790 14.08044111 1.16683943 0.00163278 -0.00006855 -0.00179742
N 9.20987972 12.01966506 3.86065465 -0.00418750 0.00749388 0.00095804
N 7.42443751 15.40965697 5.73703733 0.00059436 0.00576050 0.00775331
N 10.24359514 17.11186766 8.72576065 0.00175909 -0.00142575 0.00202981
N 11.74958653 13.99775502 5.62672533 -0.00328354 -0.00114878 -0.00513007
N 9.31669192 12.29839010 8.47874356 0.00567120 -0.00238726 0.00154657
N 7.55489334 15.18818099 10.41751736 -0.00041208 -0.00593470 0.00922500
N 10.23362665 17.42241715 13.26328934 0.00018899 0.00662919 0.00114700
N 11.99839621 14.23056121 10.59835287 -0.00293382 0.00443964 0.00037566
N 9.33275426 12.22933243 13.42612934 0.00592173 0.00657151 -0.00554758
N 7.83848622 15.21819900 15.23848115 0.00045107 0.00043522 -0.00241017
N 10.56758901 17.62238511 17.82968507 -0.00594616 0.00265902 0.00754341
N 12.07167614 14.15110649 15.42294533 -0.00345856 0.00135167 0.00348894
N 9.00009635 12.53933684 18.00856593 0.00167453 0.00796257 -0.00143443
N 7.76320637 15.24656836 19.93330790 -0.00065768 0.00532410 -0.00224622
N 10.68004499 17.52834160 22.53566208 -0.00773269 -0.00371558 -0.00836627
N 11.62747334 14.36019567 20.00970906 -0.00653719 0.00285602 -0.00001548
N 9.00686355 12.22092459 22.64570304 -0.00189067 0.00112355 -0.00022188
N 6.81896894 21.65408683 1.05400972 0.00176588 -0.00083372 -0.00076178
N 9.41186511 23.68468305 3.72990637 -0.00190156 -0.00560946 0.00271938
N 10.98675572 20.96093732 0.81262805 0.00001717 0.00054156 -0.00160877
N 8.14922584 18.39526416 3.80628689 0.00828975 0.00209377 0.00077240
N 6.94358308 21.64216412 5.52167307 -0.00172400 -0.00155872 -0.00310353