2000
Time=21999.99999999 pbc="T T T" Lattice="31.12189775 0.00000000 0.00000000 0.00000000 29.98677446 0.00000000 0.00000000 0.00000000 23.65048031" energy=-12041.43569183 virial="-30.26449286 -26.70623204 -38.11933329 -26.70623204 -46.95126096 10.16214875 -38.11933329 10.16214875 -48.07774604" stress="0.00083214 -0.00122846 -0.00163595 -0.00122846 -0.00008889 0.00045529 -0.00163595 0.00045529 0.00040014" Properties=species:S:1:pos:R:3:vel:R:3
C 30.65017343 3.69891145 1.62008271 -0.00799841 0.00051522 0.00170428
C 2.83921017 0.62416264 2.91430604 -0.00184404 -0.00050699 -0.00967944
C 30.69852758 3.54032266 6.39957828 -0.00695041 0.00019675 0.00203650
C 2.49640610 0.60147604 7.77423436 0.00048564 -0.00279112 -0.00275623
C 30.50155875 3.80328048 11.10134824 0.00176764 -0.00614687 0.00069683
C 2.66598203 0.68225596 12.42204263 -0.00148835 -0.00114745 0.00042831
C 30.74040443 3.65019149 15.75828384 0.00638094 0.00183550 0.00155768
C 2.51453083 0.47763084 17.22254158 0.00680831 0.00182317 -0.00202558
C 30.52922133 3.79745665 20.51190115 -0.00066108 -0.00520947 0.00128690
C 2.64784820 0.88197024 21.86250520 -0.00262287 -0.00359119 0.00138305
C 30.99824661 9.34730309 1.64521066 0.00187268 0.00007212 -0.00402589
C 3.12485549 6.26854650 2.92141256 -0.00218315 -0.00153552 -0.00087060
C 31.01650885 8.99681142 6.26936471 0.00057076 -0.00203752 -0.00244712
C 3.00221529 6.27448274 7.70766252 0.00555111 0.00072013 0.00438307
C 30.94527162 9.20741733 11.29332895 0.00224097 0.00079162 -0.00109018
C 3.09431400 6.24692083 12.41098609 -0.00275674 -0.00317027 -0.00409931
C 0.06391581 9.07919097 15.82322692 0.00091010 -0.00680436 0.00368703
C 2.89097887 6.19562791 17.00925603 0.00083411 -0.00561825 0.00021705
C 31.08622708 9.14263400 20.68860996 -0.00033477 -0.00239595 0.00536553
C 3.14531958 6.37836616 21.89415981 -0.00423317 -0.00246318 0.00290286
C 0.32019883 14.74655482 1.72079502 0.00309017 0.00287810 -0.00545445
C 3.69775520 12.06042362 3.01858965 -0.00288585 0.00096934 -0.01050602
C 0.20544871 14.61559090 6.38487033 -0.00297316 0.00718656 -0.00067906
C 3.19871116 11.74665525 7.77506121 0.00076739 0.00333337 -0.00799068
C 0.08928829 14.69237460 11.30739574 -0.00694005 -0.00478543 -0.00425535
C 3.20006656 11.96654759 12.58008382 -0.00646239 0.00040792 -0.00806717
C 0.24751562 14.84527015 15.98788059 -0.00815783 0.00046402 0.00236211
C 3.46689434 11.66350096 17.25550218 0.00042848 -0.00608487 -0.00232557
C 0.10638227 14.58858751 20.57414407 0.00412987 0.00232714 -0.00182302
C 3.49851174 11.94647388 21.96371255 0.00579666 -0.00311720 -0.00270814
C 0.51163800 20.49862747 1.79215334 0.00502788 0.00121793 0.00037735
C 3.86963073 17.66851990 3.09629971 -0.00102470 0.00330194 -0.00140273
C 0.45260915 20.26419355 6.46510166 -0.00065826 -0.00343612 0.00155466
C 3.68840356 17.18534004 7.69430671 -0.00076565 0.00428110 -0.00260545
C 0.59588062 20.13832488 11.18955213 -0.00421135 0.00436416 0.00584038
C 4.00257805 17.49242952 12.57467970 -0.00063970 -0.00143595 0.00057299
C 0.63724506 20.44025068 15.72321395 0.00034396 -0.00010786 0.00563997
C 3.73443891 17.47487148 17.20526498 -0.00078876 0.00205446 0.00257835
C 0.72255756 20.47256196 20.65206216 0.00010207 -0.00428360 0.00315507
C 3.54140834 17.45376359 21.94340583 -0.00029928 0.00062291 -0.00872284
C 0.08638955 27.32569128 1.75984588 -0.00595251 0.00029426 -0.01215008
C 3.06778978 23.83405088 3.11666263 -0.00281330 0.00155323 0.00083230
C 30.82301039 27.12174108 6.50478201 -0.00413756 -0.00569077 0.00596075
C 3.28511829 23.83832716 7.67145409 0.00284069 0.00751249 -0.00040403
C 0.05515734 26.85292579 11.28304818 -0.00553405 -0.00271617 -0.00376413
C 3.00476065 24.09572411 12.53521029 0.00457709 0.00444789 0.00204230
C 31.09448288 27.09016636 15.96114482 0.00425097 0.00258630 -0.00497006
C 2.95952491 23.89738814 17.17726127 0.00700636 -0.00043597 0.00765429
C 30.87213323 27.25454129 20.71477799 -0.00355033 0.00535950 -0.00010984
C 2.95679434 24.11678005 22.03257641 0.00195937 0.00707819 -0.00688864
C 6.09241837 3.17709741 1.65794965 -0.00128720 0.00128996 -0.00362029
C 9.19481766 0.07091873 3.12123075 0.00235941 -0.00105806 0.00080815
C 6.03642798 3.04581232 6.45684240 -0.00164031 -0.00463151 0.00049409
C 8.98546483 0.00030122 7.71788541 -0.00026466 0.00157349 -0.00110154
C 6.09574390 3.18753997 11.06199939 -0.00282502 -0.00533220 0.00584195
C 9.05516378 0.08799243 12.64738796 0.00668365 0.00361693 -0.00149033
C 5.93667527 3.12736485 15.80194299 -0.00242599 -0.00026349 0.00183408
C 8.93093547 29.92074526 17.40796350 0.00200080 -0.00470247 0.00058644
C 6.15895984 3.18350514 20.62130042 0.00306985 0.00222691 -0.00394232
C 9.10849827 0.05936451 21.99694592 0.00044514 0.00407841 0.00416397
C 6.48895749 8.88560447 1.70723022 0.00645596 -0.00127584 -0.00543470
C 9.40418219 5.85623823 2.94099852 -0.00224112 -0.00308722 -0.00437572
C 6.59103315 8.87422244 6.37897134 0.00097001 -0.00299617 -0.00371800
C 9.41705103 5.64636439 7.63306503 0.00293207 0.00180629 0.00066764
C 6.64099697 8.78274840 11.14521239 0.00218383 -0.00008169 0.00271337
C 9.76464662 5.77935341 12.44798705 -0.00223185 0.00769426 0.00492801
C 6.85533027 8.66062677 15.73125314 0.00881985 -0.00265404 0.00320272
C 9.48187190 5.73032556 17.14428340 -0.00016320 -0.00304246 0.00421057
C 6.53832422 8.74195706 20.46603833 0.00839174 -0.00308581 0.00009627
C 9.84391345 5.63353785 21.80289682 -0.00164372 0.00212722 0.00255551
C 6.88615104 14.46107025 1.78231818 -0.00207369 -0.00086954 -0.00365389
C 9.84305248 11.23753461 2.91034568 -0.00049753 0.00289422 0.00002053
C 6.81972545 14.42927709 6.50079859 0.00292868 0.00262269 -0.00501201
C 9.77277811 11.52229909 7.61350856 0.00027889 0.00636631 -0.00348645
C 6.90470795 14.37147796 11.24739101 0.00596935 0.00340709 0.00246192
C 10.18899051 11.42612388 12.40335583 0.00127285 -0.00146202 -0.00163967
C 6.87843452 14.27519084 15.96529190 -0.00257918 -0.00224633 -0.00162006
C 10.11725787 11.36380633 17.23616649 -0.00380332 0.00731920 0.00136326
C 6.59557016 14.45028448 20.49518334 0.00651249 -0.00396453 -0.00118618
C 9.74500116 11.50974082 21.94723578 0.00105693 -0.00413480 -0.00242906
C 6.08586714 20.83278410 1.68633664 -0.00842755 0.00169489 0.00087650
C 9.28452579 18.09099220 3.08007783 0.00530638 -0.00443681 -0.00997956
C 6.26467130 21.01563226 6.61196192 -0.00091603 0.00311031 0.00182957
C 9.32502269 17.89289794 7.78634905 -0.00703889 0.00223294 -0.00055119
C 6.22095566 20.95577958 11.05275966 0.00851272 -0.00451762 0.00537041
C 9.43929575 17.96316909 12.49435288 0.00490329 -0.00289441 -0.00063919
C 6.22545192 20.92731520 16.05879138 -0.00521709 0.00220747 0.00062320
C 9.10560325 17.77767281 17.14465506 0.00574739 -0.00734020 0.00331894
C 6.21037858 21.10445447 20.59960113 0.00062822 -0.00125161 -0.00370182
C 9.24427387 17.98174945 21.92036587 -0.00828081 0.00460135 -0.00040942
C 5.60726062 27.47112849 1.74108106 -0.00121371 -0.00152702 -0.00186701
C 8.65371130 24.43952272 2.91293716 -0.00309247 0.00302226 0.00597045
C 5.25856686 27.40162058 6.48182999 0.00000254 0.00355262 -0.00190503
C 8.65444032 24.64978564 7.53362269 -0.00611073 0.00452598 0.00699365
C 5.41971938 27.66406775 11.15362275 -0.00402024 -0.00700544 0.00049741
C 8.76546757 24.57354767 12.41033858 0.00207779 0.00602483 0.00030092
C 5.45205720 27.36510187 15.85792707 -0.00081543 0.00041897 -0.00326452
C 8.73613885 24.37383854 17.16609325 0.00196820 0.00392463 0.00463012
C 5.60520741 27.51581611 20.60623956 -0.00800178 0.00421479 0.00054396
C 8.68201417 24.33097749 21.93431082 -0.00402131 0.00554471 -0.00253768
C 12.58597182 2.74629285 1.69039586 -0.00366058 -0.00469690 0.00189010
C 15.69980533 29.65900180 2.97247156 0.00004556 0.00467646 -0.00214659
C 12.46127909 2.71614350 6.51033504 0.00070401 0.00097258 0.00162010
C 15.59846664 29.55805617 8.08517188 0.00007928 0.00521413 0.00248097
C 12.39571648 2.42256760 11.16299738 -0.00504414 0.00229662 0.00130014
C 15.85261325 29.96114410 12.64967503 0.00304720 0.00130625 -0.00085539
C 12.58609681 2.71832663 16.14687851 0.00475088 -0.00205756 0.00296902
C 15.70757398 29.92032700 17.19103763 0.00933021 0.00492720 -0.00269619
C 12.46682254 2.74933917 20.75220979 0.00275290 0.00251545 -0.00232747
C 15.75577846 29.93797051 21.95752584 -0.00079929 0.00317495 0.00386067
C 13.18497444 8.42152780 1.54739667 -0.00054215 -0.00095345 -0.00534072
C 16.16673323 5.46705785 3.09173896 -0.00195394 -0.01410302 0.00188409
C 13.10027014 8.48511153 6.40011185 -0.00328909 -0.00200638 -0.00214198
C 16.05715717 5.44388708 7.81978063 -0.00148413 -0.00615596 -0.00346529
C 13.09409477 8.52731548 11.10264176 0.00032181 0.00467590 0.00524036
C 15.99256291 5.31065122 12.47961451 0.00506568 0.00084402 -0.00316062
C 13.01058980 8.53166911 15.83340337 0.00205048 0.00142463 -0.00266402
C 15.89637553 5.56029678 17.27735915 -0.00218033 -0.00302898 -0.00099232
C 13.27163286 8.42040369 20.45966018 0.00249181 0.00355383 0.00588242
C 16.05208430 5.32291510 21.96932115 0.00704884 -0.00117944 0.00136325
C 12.50305317 14.98144067 1.69171926 -0.00221382 0.00017515 -0.00236098
C 15.48488523 12.09981665 3.10765397 0.00757529 -0.00700026 -0.00471288
C 12.37756723 15.33128859 6.31654930 0.00236897 -0.00039772 -0.00142398
C 15.40497019 12.25820178 7.67830111 -0.00745561 0.00235292 -0.00121660
C 12.61590442 15.19492955 11.00698605 -0.00617599 0.00128940 -0.00722812
C 15.67465211 12.22865857 12.38489189 0.00264014 -0.00742074 -0.00331930
C 12.42149105 15.16352400 15.90598415 -0.00152864 -0.00121549 -0.00671517
C 15.23430934 11.96207384 17.11508472 -0.00021778 0.00533152 -0.00159868
C 12.28603946 15.06606876 20.66726375 0.00129079 -0.00069533 0.00179367
C 15.57191290 11.99341180 21.94490997 0.00017191 -0.00118512 0.00460561
C 11.75279496 21.40908576 1.95170085 -0.00135691 0.00524203 -0.00307042
C 15.23357767 18.89644606 2.89500873 0.00099590 -0.00045043 0.00501017
C 11.77053083 21.52677093 6.51970089 -0.00701968 -0.00031481 0.00014972
C 15.18641957 18.57730341 7.63490981 -0.00023581 0.00461763 0.00089511
C 12.09786274 21.40507987 11.23919685 -0.00058393 0.00378988 0.00133636
C 15.25177485 18.61117178 12.38875381 -0.00102193 -0.00688036 0.00471712
C 11.98757850 21.37546332 16.05154196 -0.00032302 0.00124678 -0.00130701
C 15.09642195 18.69481487 17.15998283 0.00117688 0.00130645 -0.00013206
C 11.82430575 21.41284980 20.71547998 -0.00751592 0.00076749 -0.00260465
C 14.71968454 18.34695411 21.92682951 0.00729246 -0.00323367 0.00379465
C 12.36443386 27.11025624 1.66753605 0.00328897 0.00609536 -0.00349497
C 15.75897100 24.21791769 3.20472955 -0.00238076 0.00136503 0.00254265
C 12.22255621 27.15081330 6.42117059 0.00158047 0.00209842 0.00354718
C 15.29089001 24.03708549 7.80715262 -0.00035888 -0.00264080 -0.00587191
C 12.11591913 27.03528858 11.33141249 0.00204765 0.00087092 0.00443100
C 15.37889572 24.30684720 12.42510063 0.00344194 0.00418687 0.00062300
C 12.25948126 27.22975158 15.96663951 -0.01053511 -0.00036712 -0.00235926
C 15.15607891 24.12701982 17.31574733 0.00386340 -0.00479997 0.00484114
C 12.17889211 27.01408687 20.76064826 0.00225580 0.00030639 0.00458407
C 15.36077962 24.00104862 22.00894859 0.00513273 -0.00063892 -0.00015579
C 19.31519070 2.40837948 1.87648394 0.00277826 0.00347939 0.00797720
C 22.56002980 29.24881647 2.84459212 0.00259630 -0.00069112 -0.00035504
C 19.27894019 2.44939960 6.53781541 0.00348720 -0.00286481 0.00295348
C 22.18409893 29.52768007 7.64193056 -0.00368371 -0.00224322 0.00291318
C 19.24133799 2.31504283 11.35558214 0.00408130 -0.00246601 0.00127774
C 22.27045296 29.43758242 12.44734357 -0.00200073 -0.00242716 -0.00151909
C 19.11168084 2.46556061 15.87919666 -0.00063086 -0.00605406 0.00775301
C 22.21240757 29.35073124 17.24872289 0.00662808 -0.00357058 0.00918580
C 19.23059088 2.26102895 20.43384361 -0.00287407 -0.00438765 0.00021449
C 22.65705560 29.58521657 21.82117165 -0.00058875 -0.00380147 0.00151111
C 18.78495783 9.32604810 1.69077323 -0.00053364 -0.00056520 0.00285296
C 21.71140051 6.09609017 2.88061698 -0.00840388 0.00008127 0.00254306
C 18.70717264 9.00721758 6.35838145 0.00523404 0.00016655 0.00612496
C 21.72221134 5.85721848 7.93799982 0.00102133 0.00143670 0.00025132
C 18.82863518 8.90978579 11.03616374 0.00359449 -0.00222839 -0.00154575
C 21.73935903 5.74356077 12.46795597 0.00034672 0.00099353 -0.00135817
C 18.53797710 9.04275504 15.85581160 -0.00324911 0.00071172 -0.00098875
C 21.57297063 6.10646175 17.41705746 0.00078201 -0.00252947 0.00133325
C 18.48263941 8.98038332 20.69878371 0.00680001 0.00305020 0.00127231
C 21.71028069 5.95962446 22.07685862 -0.00251619 0.00076566 0.00168071
C 17.93092308 15.80381011 1.73163805 0.00126355 0.00308943 -0.01046039
C 21.15559455 12.43427218 3.09278366 0.00181641 -0.00309844 0.00462642
C 17.97972556 15.74729528 6.39542112 -0.00227800 -0.00145571 0.00229900
C 21.30727164 12.62531361 7.78401069 0.00374808 -0.00107991 0.00136149
C 18.25612014 15.40117402 11.23213750 0.00365838 -0.00007114 0.00741099
C 20.90032086 12.34023846 12.55202254 0.00453331 -0.00567573 -0.00290398
C 17.98638392 15.59764013 15.94171046 -0.00114420 0.00117297 0.00163562
C 21.05068454 12.42220132 17.40594698 0.00046916 0.00495984 -0.00044627
C 18.00083954 15.47228749 20.49897947 0.00237304 -0.00287506 -0.01189507
C 21.02683008 12.67233412 22.13007714 -0.00302727 -0.00072340 0.00032198
C 18.60838958 21.31232477 1.61074748 -0.00484101 0.00381631 0.00145482
C 21.46539746 18.02029051 3.07471388 -0.00224444 -0.00496740 -0.00499998
C 18.49639891 21.43501623 6.33511788 0.00353237 0.00170619 -0.00200713
C 21.40422542 18.15183642 7.81612231 -0.00111785 0.00235291 0.00048054
C 18.40833012 21.41655367 11.14243052 0.00252976 0.00234532 -0.00270178
C 21.89460617 18.16722638 12.54481540 -0.00061721 0.00825233 0.00221979
C 18.49852727 21.35378823 15.90126445 -0.00125533 -0.00195974 0.00284678
C 21.62653613 17.96118663 17.21174361 0.00209693 -0.00095444 -0.00521685
C 18.72216243 21.17857250 20.69230544 0.00328661 -0.00229934 -0.00418289
C 21.70467430 18.24071699 21.94990300 0.00228298 -0.00138056 0.00783916
C 18.85700241 26.75255936 1.62421302 0.00503126 -0.00576737 -0.00270469
C 22.25515367 23.84975291 2.93806210 -0.00153464 0.00586189 -0.00023368
C 18.84260474 26.86171226 6.33038536 -0.00861843 -0.00191382 0.00189859
C 21.99909386 23.91228908 7.72432063 0.00052406 0.00047088 -0.00041467
C 18.89485683 26.81284190 11.14706586 0.00136615 0.00350599 0.00361166
C 22.04394900 24.02111194 12.49302160 0.00109844 0.00175675 -0.00461150
C 18.89882648 26.76349984 15.89560739 -0.00019447 0.00054657 0.00280938
C 21.87651365 23.80460881 17.24710442 0.00484901 0.00330026 0.00496032
C 18.81044123 26.64783920 20.64550119 0.00359115 -0.00121875 0.00216035
C 22.31854306 23.86134200 21.83724958 0.00013772 -0.00110186 0.00164159
C 24.92802178 3.24684617 1.72892592 -0.00341697 -0.00309390 -0.00084935
C 28.02964079 0.13335057 3.04619715 -0.00246815 0.00252995 0.00357147
C 24.84024916 3.20967721 6.38431474 -0.00585285 0.00608981 -0.00168205
C 28.24490781 29.85661884 7.84841466 -0.00337542 -0.00821739 -0.00131884
C 24.81752365 2.95559905 11.09996210 -0.00386205 0.00373964 -0.00126201
C 27.74667298 0.08106048 12.47994916 0.01022198 -0.00524341 0.00355130
C 24.90404184 3.21657878 15.85835618 -0.00048581 -0.00031672 -0.00447343
C 27.98156882 0.29225314 17.04569904 0.00779429 0.00149665 -0.00632498
C 24.86868315 3.15060491 20.62317061 -0.00163460 -0.00713079 0.00082428
C 27.99814342 0.52358474 21.70752252 -0.00310761 0.00881911 -0.00202679
C 24.47364880 9.59204372 1.69466347 0.00158185 -0.00173936 0.00578157
C 27.54369361 6.67069514 2.97483496 0.00184094 -0.00012560 0.00264398
C 24.14094923 9.35982271 6.47880689 0.01070254 -0.00165542 -0.00117321
C 27.45797396 6.73861750 7.75414455 -0.00007477 0.00353294 -0.00143625
C 24.20251304 9.62530071 11.21356177 -0.00470435 -0.00073452 0.00296579
C 27.29960530 6.47369803 12.51040779 -0.00484473 -0.00534371 0.00970896
C 24.10197895 9.50386699 15.88289608 -0.00246499 0.00364406 0.00180490
C 27.49481721 6.67007008 17.22777515 -0.00144372 -0.00679897 0.00295185
C 24.05926368 9.59410255 20.75916592 -0.00249629 -0.00024562 -0.00005879
C 27.28458125 6.74950610 21.90803544 -0.00132440 0.00268797 0.00941512
C 24.59041912 14.98689895 1.69659686 0.00186688 -0.00710907 -0.00666028
C 27.81837643 12.21293673 2.96302751 0.00175020 -0.00049697 -0.00100903
C 24.73683552 15.05577589 6.60094516 0.00361681 -0.00251860 -0.00425892
C 27.83737453 12.17474510 7.85681484 0.00004031 -0.00171926 -0.00191817
C 24.74337508 15.17575095 11.25947787 0.00569576 0.00109134 0.00972805
C 27.98168071 12.27032125 12.45942920 -0.00094133 0.00397918 0.00118610
C 24.95878011 15.01768640 16.02995480 -0.00156461 0.00115457 -0.00243137
C 27.77953894 11.98254530 17.02365226 -0.00440165 0.00069497 -0.00328489
C 24.65565979 15.23281804 20.57285450 -0.00271215 0.00045259 0.00041464
C 27.74489458 12.17976516 21.88837720 0.00452911 -0.00000645 -0.00181653
C 25.29186143 20.53974435 1.55883872 -0.00409392 -0.00260719 0.00557425
C 27.93536490 17.61297750 3.01539841 -0.00254762 0.00196763 -0.00214509
C 25.08007967 20.59467183 6.45035403 0.00138470 -0.00109335 -0.00407255
C 28.11929604 17.89926246 7.83671547 0.00471833 0.00236780 -0.00113825
C 25.03633808 20.97977759 11.11516265 -0.00235834 -0.00019246 -0.00696020
C 28.05773267 17.61993548 12.61891950 0.00015397 -0.00335117 -0.00151263
C 25.10542357 20.73714952 15.75097983 0.00261739 -0.00526024 0.00043925
C 28.00044468 17.80311585 17.20617625 0.00143398 -0.00312604 0.00059261
C 25.14358258 20.81733443 20.52456892 0.00119218 0.00107616 -0.00142047
C 28.24775096 17.78833381 21.88168307 -0.00803449 -0.00143843 0.00374271
C 25.67571420 26.41486605 1.71413083 0.00125672 0.00721697 0.00358834
C 28.49183820 23.41223456 3.10620025 0.00063018 -0.00110977 -0.00084818
C 25.62115568 26.48217839 6.61684164 0.00089991 0.00407686 0.00112189
C 28.71243810 23.42016003 7.82784342 -0.00457407 -0.00300075 -0.00147738
C 25.63052052 26.58709511 11.16612024 -0.00757779 0.00045676 -0.00679028
C 28.53381469 23.37778190 12.48979378 -0.00205620 -0.00086160 -0.00090293
C 25.70226353 26.36964266 15.94150280 0.00409796 0.00406995 0.00325791
C 28.55157212 23.31510730 17.10087189 -0.00494761 0.00480247 0.00327046
C 25.34259132 26.48333470 20.43377119 0.00083725 0.00534839 -0.00088403
C 28.63860099 23.47755229 21.99205127 0.00285310 0.00088902 -0.00001519
N 0.13325286 4.75165400 1.06088827 0.00752993 0.00194630 -0.00049153
N 3.50463084 5.19100991 3.62357579 -0.00387139 -0.00194841 -0.00015014
N 5.31027202 2.54864967 0.76364419 -0.00413968 0.00529342 0.00035047
N 1.75745484 1.24210948 3.66069131 -0.00068292 -0.00023911 0.00109273
N 0.32892212 4.43715158 5.72788321 0.00154327 -0.00072782 -0.00026019
N 3.40769995 5.30249865 8.53301317 0.00000403 0.00617054 -0.00138229
N 5.23408149 2.36121717 5.65089526 0.00024109 -0.00214609 0.00406861
N 1.54847154 1.40428151 8.38155931 -0.00259420 0.00033545 -0.00302549
N 0.07108128 4.72361737 10.39688230 -0.00570378 -0.00699051 -0.00352804
N 3.63384683 5.31682956 13.19181585 0.00063912 -0.00168554 -0.00152715
N 5.27151272 2.32672490 10.37361993 -0.00242945 -0.00093137 0.00055976
N 1.86572743 1.45005075 13.19499615 0.00167384 -0.00192393 0.00143125
N 0.39535627 4.45637240 15.05359903 0.00163879 -0.00027535 -0.00273836
N 3.67902683 5.30342451 17.71341194 -0.00175261 0.00218539 0.00208880
N 5.23596768 2.33471903 14.97857274 -0.00132609 -0.00281339 0.00001779
N 1.76731892 1.31078977 17.89789082 -0.00260017 0.01052157 -0.00387091
N 0.44065356 4.47665277 19.86342354 -0.00219794 0.00375732 -0.00159001
N 3.97622994 5.48071677 22.45297269 0.00663543 -0.00006306 0.00201626
N 5.19940665 2.48780752 19.94220554 0.00278233 0.00237898 0.00130849
N 1.98430117 1.81534708 22.62182990 0.00028708 -0.00093143 0.00094113
N 0.50173420 10.33561633 0.95088405 -0.01068519 -0.00019081 0.00220194
N 4.23018030 10.96446154 3.58129299 -0.00639187 0.00872732 0.00224191
N 5.68197535 7.95094873 1.14598972 -0.00339246 -0.00147401 -0.00410365
N 2.42804612 7.16992757 3.65791868 -0.00316874 -0.00195094 0.00608905
N 0.60181332 9.98631954 5.51530265 0.00519537 -0.00445208 0.00067197
N 3.93803718 10.86381591 8.57388423 0.00116458 0.00471845 0.00214450
N 5.93999904 7.91854548 5.64670060 -0.00094242 -0.00101015 -0.00125496
N 2.36769038 7.33673084 8.27545366 -0.00035692 -0.00418201 0.00068021
N 0.66684141 9.97630915 10.59535401 -0.00168342 -0.00051247 0.00591847
N 4.00860731 11.07919506 13.14650709 -0.00065288 -0.00225086 0.00303488
N 5.70484643 8.08420792 10.43924462 -0.00084536 0.00092793 -0.00271433
N 2.64206069 7.32761744 13.00090761 0.00244836 -0.00890114 -0.00035190
N 0.75035213 10.04991467 15.10790047 0.00216761 0.00185203 0.00686445
N 4.04454775 10.75956500 18.04270270 -0.00111923 -0.00168757 0.00298993
N 5.90950254 8.00129403 15.02463271 -0.00537989 -0.00036114 -0.00826562
N 2.21845520 7.13500764 17.76182250 -0.00044844 -0.00635071 -0.00119916
N 0.71083964 10.13041046 20.07979865 -0.00240065 -0.00136458 0.00249885
N 4.38564942 11.11767969 22.61362444 -0.00664344 0.00075634 0.00440729
N 5.91305177 7.73537207 19.73133989 -0.00526368 -0.00745619 -0.00096253
N 2.48186318 7.20893373 22.78540288 -0.00079610 -0.00021257 -0.00553810
N 1.15569432 15.64557973 1.09825104 0.00007708 -0.00031257 0.00057227
N 4.68525058 16.82933513 3.83799717 -0.00105294 0.00164702 0.00237849
N 5.99785091 13.76601087 1.04123575 0.00157796 -0.00222101 0.00221936
N 3.05378396 12.99325470 3.86536402 0.00299787 -0.00345903 0.00002522
N 0.76837167 15.56803332 5.67421898 -0.00641126 0.00091684 -0.00081407
N 4.55476452 16.54843516 8.45558141 0.00285884 0.00129448 -0.00392824
N 5.92082907 13.74046921 5.62359743 -0.00035768 0.00399429 0.00192674
N 2.56373075 12.75014026 8.45867812 0.00113082 -0.00268975 0.00107077
N 0.83139605 15.64326031 10.64254361 -0.00520436 0.00006309 -0.00097891
N 4.81051057 16.68903595 13.32355227 0.00471653 0.00057207 0.00185597
N 5.93794170 13.71242875 10.54520641 0.00077850 0.00765920 -0.00402755
N 2.59768328 12.89093401 13.45445538 0.00284267 0.00754120 0.00749651
N 0.96626401 15.61025518 15.12686730 0.00557823 0.00367417 -0.00197816
N 4.54346884 16.69749814 17.90741084 -0.00143387 0.00275458 -0.00078206
N 6.29317843 13.34734563 15.19061535 0.00323957 0.00557035 -0.00521745
N 2.70288306 12.65370688 17.94403743 -0.00154858 0.00200384 0.00116258
N 0.79761428 15.54626274 19.87751224 -0.00359331 -0.00026199 -0.00361196
N 4.66129894 16.75737718 22.50834023 -0.00119458 0.00214944 0.00128538
N 5.82693053 13.60654540 19.70119765 -0.00737742 -0.00493223 0.00092629
N 2.78900263 12.79314147 22.76142435 -0.00072718 -0.00241566 0.00838047
N 1.45548246 21.16924847 1.11503211 -0.00156747 -0.00242330 0.00008780
N 4.19039237 23.44943614 3.79591647 0.00565871 -0.00388370 -0.00069924
N 5.25717293 20.03559282 0.97770479 0.00184105 0.00782355 -0.00222458
N 3.06775275 18.35279149 3.95202690 0.00035885 0.00806839 0.00535729
N 1.34371710 21.14342458 5.92265243 0.00453476 -0.00162383 0.00553636
N 4.34454732 23.60676600 8.49764015 0.00030298 -0.00675006 0.00323400
N 5.31163768 20.22031135 5.91895179 -0.00440166 -0.00137132 -0.00075666
N 2.83023395 18.02553779 8.31186954 -0.00136661 -0.00413246 0.00204815
N 1.29963161 21.11593194 10.53846392 -0.00045855 0.00055399 0.00196005
N 4.07139183 23.67862975 13.22761102 -0.00575542 0.00599082 -0.00537781
N 5.33442592 20.37254362 10.22109758 0.00271455 0.00056199 -0.00144436
N 2.90586651 18.12044733 13.15569307 0.00507406 0.00235505 0.00150038
N 1.40324952 21.23592273 14.97324352 0.00223213 -0.00365118 0.00356692
N 4.03822836 23.28309771 17.71417968 0.00023562 0.00103204 -0.00198957
N 5.42887418 20.12622879 15.37377674 0.00312265 0.00371338 0.00386138
N 2.84432279 18.14920491 17.97112694 0.00278686 0.00157916 0.00099099
N 1.43821661 21.30132644 19.82539010 0.00319199 0.00373077 -0.00432814
N 4.02111443 23.61296798 22.72266078 -0.00101868 0.00500278 0.00140571
N 5.27144438 20.43404336 19.94053165 0.00187946 0.00082271 -0.00485100
N 2.71183010 18.06521153 22.81516725 0.00415471 0.00145438 0.00277545
N 0.79773495 28.19857225 0.95485005 0.00420657 -0.00015608 -0.00338300
N 3.70714419 29.85665544 3.59276321 -0.00123521 -0.00245739 -0.00165263
N 4.77509746 26.82492229 0.90638508 0.00169714 -0.00081290 0.00069076
N 2.07161819 24.15169150 3.92880085 -0.00785552 -0.00070148 -0.00360472
N 0.51475824 27.84765014 5.69016841 -0.00663301 0.00572009 0.00769670
N 3.10209233 29.65447381 8.49612259 -0.00156286 0.00383161 0.00000643
N 4.60600108 26.62343956 5.62816384 -0.00246882 0.00158238 -0.00652265
N 2.10971898 24.30082449 8.25088963 0.00159362 -0.00345954 -0.00255671
N 0.95316706 27.59899051 10.53376131 0.00288611 -0.00157304 0.00573502
N 3.34758265 29.71553928 13.18442755 -0.00663184 0.00559392 -0.00064473
N 4.49986971 27.00235792 10.42785642 -0.00017352 -0.00194934 0.00138033
N 2.00173332 24.60046016 13.34936457 0.00303980 0.00308915 -0.00779792
N 0.70545078 27.78391020 15.13598021 0.00107131 0.00403675 -0.00149135
N 3.19435474 29.54915914 18.00900590 -0.00381857 -0.00427543 -0.00161857
N 4.57877895 26.66743284 15.09554063 0.00425732 -0.00266290 0.00025663
N 2.08128247 24.51784170 17.99490839 -0.00411516 -0.00174614 -0.00061546
N 0.63553841 27.97265908 19.97288703 0.00176818 0.00359072 0.00169850
N 3.21718553 29.73679337 22.46417803 0.00156977 0.00349578 0.00142804
N 4.88289404 26.65332468 19.84274937 0.00285377 0.00338091 -0.00413737
N 1.93408726 24.60886496 22.82853045 0.00222763 0.00025115 0.00161490
N 6.85864720 4.20108940 1.13087491 -0.00012500 -0.00403722 -0.00114984
N 10.11272794 4.83078549 3.53028522 0.00343764 0.00033481 0.00069502
N 11.95940294 1.86780549 0.94444495 -0.00430750 0.00443783 -0.00342980
N 8.46936391 0.99407199 3.79432812 -0.00567220 -0.00034263 0.00102466
N 6.96234478 3.80132827 5.71720599 -0.00246699 -0.00707897 -0.00190872
N 10.04594091 4.66453454 8.36371896 0.00613746 0.00213695 0.00701532
N 11.66249574 1.90432767 5.79893347 0.00639632 -0.00338019 0.00277084
N 8.49321413 0.96620437 8.54163326 -0.00682188 -0.00013315 0.00354068
N 6.75392749 4.11414783 10.20287908 0.00543431 0.00254838 -0.00025528
N 10.28469371 4.72941956 13.15979362 -0.00188790 -0.00728153 -0.00207342
N 11.55461150 1.64140128 10.40543563 -0.00348674 -0.00483464 -0.00371812
N 8.44072509 1.16959063 13.25117712 -0.00777087 0.00299691 0.00145651
N 6.75804569 4.01275026 15.16889268 -0.00110090 0.00014600 0.00096379
N 9.93267896 4.82765792 18.02340356 -0.00349904 0.00159431 -0.00043980
N 11.58139316 2.06287294 15.49441216 -0.00270635 -0.00708141 -0.00922086
N 8.60323343 0.93962803 18.24266055 0.00454951 -0.00882727 0.00252085
N 6.83791643 4.14992841 19.87073720 -0.00691092 -0.00023345 -0.00793523
N 10.33392589 4.62086358 22.58795566 -0.00422909 0.00400344 0.00212304
N 11.73239107 1.85316895 20.07035445 -0.00268807 -0.00182062 0.00209286
N 8.51266359 1.00001855 22.70462563 0.00318373 -0.00355200 0.00462664
N 7.40241709 9.47644372 0.92976433 0.00832378 0.00308921 0.00132508
N 10.67588424 10.55677109 3.72025155 -0.00494614 -0.00173457 0.00466604
N 12.34515702 7.65768524 0.74144690 0.00213223 -0.00279439 -0.00205501
N 8.78734234 6.69302935 3.81024083 -0.00315073 -0.00169215 0.00162272
N 7.25983719 9.80982400 5.70868908 0.00257643 0.00483241 0.00411972
N 10.73487690 10.85016066 8.25466217 -0.00321716 -0.00275847 -0.00076590
N 12.53593403 7.47844449 5.64814034 -0.00108432 0.00532013 0.00028585
N 8.74351684 6.59924657 8.38465258 0.00531754 0.00072552 0.00231649
N 7.32150848 9.69131267 10.34111556 0.00201020 -0.00021074 -0.00536324
N 11.12881996 10.74249489 13.09075351 0.00190155 0.00036017 0.00126158
N 12.13938144 7.92921180 10.37955585 0.00121541 0.00121153 -0.00059344
N 9.07114355 6.65972813 13.23032520 0.00024117 0.00232769 -0.00217489
N 7.93279695 9.11949822 15.02101681 -0.00167963 -0.00267858 0.00024037
N 10.85020979 10.54203759 18.07819915 -0.00002389 -0.00126704 -0.00197140
N 12.16880404 7.56666373 15.24446649 -0.00307642 -0.00086012 0.00949180
N 8.98569312 6.88922161 17.79401988 -0.00049578 0.00252019 -0.00499532
N 7.17044244 9.66627314 19.69877734 -0.00370511 -0.00205963 -0.00117901
N 10.50264105 10.64203363 22.65199664 0.00019729 -0.00525368 -0.00424171
N 12.44492943 7.59899376 19.73040987 -0.00253781 0.00098612 0.00184921
N 9.28983637 6.65399886 22.46571203 -0.00570780 0.00125099 -0.00196185
N 7.67642792 15.32974443 1.07988483 -0.00247064 0.00172528 0.00640714
N 10.16504550 17.36591998 3.82459458 0.00565062 -0.00910046 0.00254480
N 11.50715399 14.37541268 0.98032006 -0.00009736 -0.00400310 0.00464339
N 8.94359224 12.05620011 3.56122059 0.00845419 0.00004263 0.00344165
N 7.84388549 15.03501167 5.89572975 -0.00579033 -0.00133585 -0.00135672
N 10.43657273 17.46214398 8.42581088 0.01007471 0.00252653 0.00167777
N 11.65818667 14.54044389 5.49528023 -0.00196500 0.00024777 -0.00219092
N 8.92833736 12.27492139 8.39511278 0.00005296 0.00249040 0.00593466
N 7.66677058 15.22033859 10.51080418 -0.00308257 -0.00011908 0.00579027
N 10.60092940 17.53045886 13.09772820 0.00147664 -0.00027994 0.00206094
N 11.72235053 14.48398999 10.37396959 0.00045051 0.00139094 -0.00022432
N 9.34943267 12.19295546 13.21951869 -0.00439037 0.00591095 0.00140180
N 7.65195247 15.22667244 15.33954087 -0.00497986 -0.00168596 0.00075357
N 10.10998469 17.35786680 17.94376197 0.00358505 -0.00279912 -0.00037919
N 11.56118053 14.33687504 15.24288037 0.00316734 0.00376936 0.00000819
N 9.25001886 12.15551435 17.92191678 0.00076233 0.00209023 -0.00444559
N 7.43036459 15.30381724 19.84550234 0.00174111 0.00708591 -0.00158718
N 10.24676287 17.43948569 22.65463089 0.00633135 -0.00020215 -0.00139668
N 11.70623829 14.27489012 19.75172371 -0.00158923 -0.00346636 0.00093780
N 8.67471005 11.96304804 22.64913673 -0.00289820 0.00307099 -0.00436025
N 6.87913139 21.63357052 0.93103555 -0.00104449 -0.00403458 -0.00160827
N 9.47734424 23.70821783 3.69456060 0.00399945 0.00440785 0.00227790
N 10.87528685 20.49254146 1.38498689 0.00209766 0.00264052 0.00486233
N 8.31105799 18.64156254 3.97819423 -0.00711726 0.00057261 0.00192605
N 7.06148019 21.71270700 5.76687572 -0.00314444 0.00197422 -0.00371464