2000
Time=72000.00000007 pbc="T T T" Lattice="31.27788221 0.00000000 0.00000000 0.00000000 29.76524759 0.00000000 0.00000000 0.00000000 23.63568595" energy=-12043.79729068 virial="-45.10537091 3.13073463 -3.16279156 3.13073463 -46.90272695 8.48114781 -3.16279156 8.48114781 -18.15590153" stress="0.00003123 0.00019800 -0.00020213 0.00019800 0.00002442 0.00034878 -0.00020213 0.00034878 0.00178062" Properties=species:S:1:pos:R:3:vel:R:3
C 30.76116211 3.40364399 1.71183198 -0.00452653 0.00590224 -0.00105952
C 2.52627432 0.24762891 2.97728270 -0.00616191 -0.00280311 0.00588979
C 30.83113634 3.50752461 6.39611137 0.00361920 0.00453293 -0.00489050
C 2.59070853 0.60063433 7.71132111 -0.00604590 -0.00044909 -0.00126362
C 30.63688852 3.70999766 11.09859010 0.00393007 0.00266971 -0.00311910
C 2.58173738 0.92752505 12.45047093 -0.00314886 -0.00066746 -0.00055482
C 30.74221216 3.65772594 16.06805170 0.00737934 0.00218357 -0.00425195
C 2.45197189 0.67230019 17.11096724 -0.00081312 0.00953534 -0.00058579
C 30.62366898 3.74808864 20.76146314 -0.00231758 0.00244440 0.00394826
C 2.77443940 0.60908473 21.91106949 0.01070128 0.00274226 -0.00099826
C 31.09581026 8.96198967 1.94128369 0.01291635 -0.00810546 -0.00022380
C 2.91137251 6.52318692 2.98875464 -0.00379056 -0.00240630 0.00798233
C 30.82731393 9.05239641 6.60674185 -0.00280017 -0.00304696 -0.00419608
C 2.85384258 6.20134171 7.81765056 0.00373922 -0.00148426 -0.00228054
C 31.15538471 9.26868978 11.20079065 0.00000726 -0.00113064 0.00291765
C 2.75417118 6.22251284 12.66504971 0.00011598 0.00318451 0.00022366
C 31.13654216 9.37218741 16.09446480 0.00214817 0.00409540 -0.00412935
C 2.86872440 6.30770725 17.19064803 -0.00057060 -0.00077645 -0.00383523
C 30.96211151 9.30013902 20.85790932 -0.00731827 0.00220971 -0.00104848
C 3.06600843 6.04053203 21.86875046 0.00499748 -0.00204983 -0.00355125
C 0.23577277 14.58624485 1.70900949 0.00435688 -0.00115710 0.00259136
C 3.36478176 11.62475736 3.06239841 -0.00238336 0.00043831 0.00144301
C 31.27376552 14.52899035 6.34910354 0.00419012 0.00337540 0.00372405
C 3.17044403 11.66636103 7.72921190 0.00116267 0.00317757 0.00058348
C 0.16546604 14.68222154 11.12611693 -0.00287521 -0.00325798 0.00067567
C 3.54662860 11.91524362 12.47534544 0.00304293 0.00236087 0.00320014
C 0.16286908 14.46806798 15.80364500 -0.00030886 0.00003809 -0.00515396
C 3.48499624 11.87682951 17.24414898 -0.00101191 -0.00081333 -0.00374649
C 0.23244522 14.74726707 20.77868409 0.00284961 0.00204754 -0.00510226
C 3.13904914 11.52924258 21.90026405 -0.00124534 -0.00241037 -0.00560932
C 0.65886075 20.00881898 1.77671055 -0.00249630 0.00964827 -0.00121253
C 3.73930801 16.97434392 3.09414851 0.00030692 0.00463826 0.00610225
C 0.46920782 20.22654070 6.61823355 -0.00453630 0.00530179 0.00459168
C 3.53789077 17.35618266 7.68591249 0.00460297 0.00142375 -0.00115153
C 0.73936100 19.93001645 11.18744634 0.00435478 0.00653080 -0.00496632
C 3.76785893 17.29840515 12.44873154 0.00064199 0.00161334 0.00030422
C 0.82092063 20.24354197 16.03372313 -0.00045978 0.00325144 -0.00723145
C 3.81493156 17.51399583 17.25404136 -0.00060827 0.00268497 -0.00394591
C 0.56736463 20.62377634 20.72352256 -0.00664796 -0.00717581 -0.00301961
C 3.86122410 17.42245228 22.04414505 0.00345502 -0.00009061 0.00213847
C 0.01073215 26.92004824 1.93948381 -0.00080109 0.00199220 0.00413916
C 3.11096935 23.67702856 3.05066454 -0.01430328 -0.00021957 0.00428183
C 0.09956545 26.49736359 6.46648930 -0.00133696 -0.00240797 -0.00293507
C 3.18644308 23.70067383 7.73391683 0.00148602 0.00152882 0.00465702
C 31.09128915 26.68200082 11.05001398 -0.00339275 -0.00617288 0.00808582
C 3.01605838 23.55764876 12.46500939 -0.00700804 -0.00358922 -0.01077707
C 0.19693335 26.91325521 15.85221485 0.00022437 0.00533574 -0.00664665
C 3.18356071 23.94593873 17.20811171 -0.00703723 0.00174132 0.00097454
C 31.23067532 27.12340254 20.52519425 -0.00115430 -0.00133967 -0.00190325
C 2.67240275 23.88555513 21.87321816 0.00524341 0.00453532 -0.00187307
C 5.92369751 3.26321106 1.74518800 -0.00092560 -0.00079261 -0.00145867
C 9.11500623 29.71597439 3.09781104 0.00653086 0.00055831 -0.00104156
C 5.97361696 3.21191340 6.35428986 0.00345243 0.00242936 0.00065281
C 8.96977962 29.73762623 7.69924564 0.00240431 -0.00733879 0.00237829
C 6.07701496 3.22218070 10.95435501 0.00031992 -0.00014010 0.00253471
C 9.03315754 0.13369814 12.47668923 0.00072538 0.00372059 0.00214483
C 6.16175680 3.41225244 15.80476222 -0.00904022 -0.00060807 -0.00359089
C 9.39292323 0.09771458 17.11251739 -0.00373058 -0.00077243 0.00273332
C 6.25326333 3.24145327 20.48974554 -0.00198073 -0.00150245 -0.00427647
C 8.96408349 29.71998038 21.95113709 0.00558670 0.00186936 0.00131208
C 6.42419515 8.61739531 1.78990677 0.00639059 0.00614201 0.00801698
C 9.75740364 5.60902742 3.09364973 -0.00029681 -0.00376416 0.00085150
C 6.46819460 8.90894585 6.49103786 0.00002761 -0.00106295 0.00280979
C 9.58599271 5.89759158 7.78691087 -0.00417931 0.00193470 0.00422624
C 6.74877665 8.78080494 11.09979736 -0.00040417 -0.00136999 -0.00322695
C 9.59844780 5.81212493 12.56434671 0.00044729 -0.00174756 -0.00236255
C 6.31160944 8.86734131 15.84179375 0.00246495 -0.00426873 -0.00638700
C 9.50944562 5.72246458 17.31447081 -0.00457347 -0.00341068 0.00146224
C 6.40859090 8.57680978 20.65490472 -0.00060449 0.00197888 -0.00159143
C 9.53603462 5.82098007 22.07035320 0.00216716 0.00488884 -0.00529681
C 7.04993761 14.12083880 1.73169532 0.00298542 -0.00083949 0.00693136
C 10.05925479 11.31150491 2.99373179 -0.00516632 0.00427669 0.00849824
C 6.91356663 14.18697071 6.65915483 -0.00115815 -0.00052194 0.00392112
C 10.31333590 11.38621356 7.80961940 -0.00382278 0.01038893 -0.00099173
C 7.11086821 14.14738568 11.13881000 0.00673978 -0.00662568 0.00098022
C 10.10267598 11.25768235 12.53351006 0.00001638 0.00066772 0.00497774
C 7.17763526 14.37180742 15.80170704 0.00316788 0.00086941 -0.00586902
C 9.93874372 11.35628379 17.27537034 -0.00177596 0.00444619 -0.00227026
C 6.83307914 14.37552656 20.60460611 0.00451355 0.00097093 0.00199071
C 9.89685268 11.30783394 21.85989448 -0.00421913 0.00088551 0.00005755
C 6.12727753 20.72764094 1.58033959 -0.00705863 -0.00343777 0.00403184
C 9.38380431 18.18731887 2.93702540 0.00498822 0.00962939 0.00526116
C 6.14580574 20.42985524 6.34883060 -0.00111426 -0.00065941 -0.00075634
C 9.39707743 17.76859169 7.77602414 -0.00031820 0.00330799 -0.00533934
C 6.11309630 20.79362934 11.24599552 -0.00429630 0.00309438 -0.00329260
C 9.36887452 17.87674653 12.53684071 0.00103205 0.00340449 0.00166307
C 6.23527851 20.92588173 15.80510868 0.00078919 0.00529089 -0.00071284
C 9.65523081 18.09656277 17.20587707 -0.00274930 -0.00406794 -0.00532187
C 6.29754241 21.20406160 20.61706310 -0.00062170 0.00202694 0.00590255
C 9.36361882 18.00161411 21.79502682 0.00792663 0.00050603 0.00026689
C 5.59097214 27.18213293 1.68063103 -0.00131709 0.00250201 -0.00251725
C 8.85424638 24.09450776 3.02684245 0.00197769 -0.00657912 -0.00274068
C 5.80385851 27.21206792 6.36086023 -0.00522576 -0.00346724 -0.00094224
C 8.82885864 24.27712851 7.66849626 -0.00623065 0.00596543 -0.00141373
C 5.52129074 27.51566877 11.07946255 0.00141763 -0.00761153 0.00493004
C 8.73040304 24.36961499 12.45273410 0.00613107 -0.00472872 0.00251492
C 5.57628080 27.58961037 15.77864703 -0.00123126 -0.00138263 0.00178673
C 8.97202531 24.38535321 17.06352703 0.00063883 0.00374973 0.00140612
C 5.62961074 27.38946644 20.54162854 0.00059263 -0.00228851 -0.00972621
C 8.91782376 24.38909555 21.84146955 0.00238620 0.00085844 0.00210123
C 12.53869293 2.68439038 1.69021628 0.00385067 -0.01474825 -0.00446474
C 15.68977290 29.76106703 3.15780836 0.00449849 0.00090565 -0.00435130
C 12.54926307 2.92661188 6.50853381 0.00442948 -0.00587703 0.00014342
C 15.90649734 29.63076225 7.79962733 -0.01145772 -0.00181666 -0.00129330
C 12.74035005 2.78350560 11.04237435 -0.00301249 -0.00562194 0.00015927
C 15.87755130 29.57210729 12.41036513 0.00182481 0.00039135 -0.00435148
C 12.75887620 2.64788894 15.73063413 -0.00389881 0.00556585 0.00962215
C 16.08118118 29.59308634 17.03396037 -0.00730525 -0.00024389 0.00038672
C 12.45166221 2.77057349 20.73265745 0.00447874 0.00201376 0.00278503
C 15.77500340 29.36089718 21.89003492 0.00151741 -0.00082650 0.00124159
C 12.84052849 8.47803835 1.54863060 -0.00177490 0.00702628 -0.00016748
C 16.17617311 5.52723284 3.11907197 0.00333069 -0.00695390 -0.00139510
C 12.94712944 8.68133757 6.58532815 0.00006669 0.00206221 -0.00563635
C 16.17359231 5.38112807 7.84136532 0.00030494 -0.00440984 0.00624577
C 13.37992722 8.65275077 11.19030259 0.00100408 -0.00523261 0.00419091
C 16.28212343 5.23520499 12.48900978 0.00158041 -0.00296368 0.00365792
C 13.26966592 8.49362229 15.86584709 0.00530007 0.00033488 0.00181027
C 16.12630054 5.37592044 17.15864991 -0.00397462 -0.00819113 -0.00503358
C 13.03373948 8.23576872 20.67222359 0.00085026 -0.00605528 0.00267871
C 15.79710647 5.03169505 21.81742974 -0.00043040 -0.00054970 0.00355017
C 12.79265230 14.88246408 1.54505692 -0.00051926 0.00507729 -0.00366894
C 15.73413573 11.93798590 2.74654962 -0.00636919 -0.00814438 -0.00226165
C 12.68981921 15.32929841 6.43793687 -0.00059601 0.00475280 0.00267345
C 15.69324539 12.12853556 7.82510959 -0.00080434 0.00034578 0.00506322
C 12.58420686 15.00783338 11.19654131 0.00591548 0.00189653 0.00579703
C 15.66641545 11.66073637 12.42730226 -0.00042560 -0.00059057 0.00509736
C 12.51522370 14.80110969 15.80395818 -0.00191789 0.00399316 0.00141833
C 15.51766468 11.81598208 17.19709848 0.00097019 0.00573415 0.00376710
C 12.51491997 15.06455624 20.49983936 0.00222470 0.00835249 0.00218384
C 15.66475230 12.02634614 21.88157632 0.00328519 0.00038842 -0.00215261
C 11.92586367 21.16482188 1.50992890 -0.00361269 -0.00242883 -0.00843147
C 15.09495849 18.40255191 2.87623178 -0.00326305 -0.00116044 0.00264968
C 11.63690460 21.35366784 6.47034034 -0.00794286 0.00121119 0.00456569
C 15.37917902 18.41623956 7.61927502 0.00057020 0.00096664 0.00233782
C 11.75582286 21.33039874 11.23642004 -0.00188348 -0.00278997 -0.00617873
C 15.31238402 18.41753189 12.41508563 0.00180274 0.00295126 -0.00163559
C 12.18085799 21.51695296 15.83821527 0.00782490 -0.00105984 -0.00456191
C 15.14736527 18.26017388 17.07100928 0.00364404 -0.00028758 -0.00009190
C 11.99529562 21.51382886 20.52990071 -0.00096945 0.00694242 -0.00226486
C 15.22174141 18.40982157 21.86261624 -0.00097206 0.00210568 -0.00149721
C 12.11998642 26.78273389 1.55480578 0.00215387 0.00418206 0.00109222
C 15.49261479 24.12979070 3.13263419 0.00227156 0.00133169 0.00308340
C 12.39317483 26.76280908 6.33479561 0.00339885 0.00193898 -0.00156064
C 15.12984014 23.88959616 7.72134240 -0.00761789 -0.00205002 0.00354820
C 12.22413474 27.05265971 10.97134032 0.00376383 -0.00258043 -0.00683322
C 15.24920005 23.86310509 12.29085459 -0.00079471 0.00250537 -0.01010789
C 12.29839447 27.12011202 15.72362018 0.00037194 -0.00704800 -0.00247226
C 15.54439834 24.18547863 16.97185209 0.00074242 -0.00156017 0.00275916
C 12.60898386 27.08032602 20.37225260 -0.00884803 -0.00156311 -0.00517643
C 15.48965678 23.74479712 21.97219662 0.00057320 0.00682470 -0.00075725
C 19.33595999 2.25938377 1.68906480 0.00120917 -0.00639585 -0.00058474
C 22.70049007 29.41989491 3.00653833 -0.00573639 0.00098946 -0.00252100
C 19.37977171 2.47778379 6.41354793 0.00379174 0.00138347 0.00069074
C 22.36198863 29.08908635 7.81513671 0.00803868 -0.00217409 -0.00209760
C 19.42369287 2.14659478 11.08683219 0.00510670 -0.00198816 0.00188112
C 22.20399743 29.01462367 12.34935808 0.00188047 -0.00352146 -0.00251837
C 19.24254528 2.40319523 15.84158589 -0.00419267 0.00222889 -0.00112207
C 22.61661459 29.31836463 17.12862796 0.00332882 -0.00076314 -0.00065128
C 19.42033388 2.28590573 20.66497661 0.00111813 -0.00322439 -0.00103977
C 22.46461251 29.38282217 21.67483250 0.00500621 -0.00150853 -0.00322273
C 18.64449630 9.02265999 1.75585894 0.00336336 -0.00082179 0.00645847
C 22.18874722 5.68127506 3.11163686 0.00526568 0.00156631 0.00312366
C 18.55622428 8.77119820 6.43098859 0.00008030 -0.00276197 -0.00516051
C 21.87716903 5.76560726 7.82020287 0.01367200 0.00141206 -0.00434539
C 18.90848921 8.90151691 11.14935572 -0.00155684 -0.00491081 0.00242630
C 21.78324240 5.68010261 12.66935922 0.00418097 0.00735806 -0.00512938
C 18.87527543 8.98174424 15.95449574 0.00270793 0.00343616 0.00188568
C 22.01387500 5.83737289 17.32142595 0.00209975 0.00621251 -0.00392110
C 18.59995285 8.95321295 20.51753542 -0.00495907 -0.00253059 0.00020034
C 21.76082361 5.78974065 21.94429197 0.00165964 0.00211200 -0.00041199
C 17.99998452 15.54337908 1.65059313 0.00216996 0.00394342 -0.00062497
C 21.25827301 12.46667426 3.01239611 0.00158622 0.00211659 -0.00769762
C 18.07965205 15.21688945 6.44887094 -0.00429189 0.01170610 -0.00378982
C 21.38992491 12.40312012 7.67211123 -0.00182811 0.00092416 0.00405785
C 18.23750120 15.37868540 11.11207580 -0.00169059 -0.00331799 0.00051178
C 21.56262477 12.15006833 12.40736297 -0.00016820 0.00175456 -0.00486989
C 18.17650061 15.46376785 15.85037809 -0.00672961 0.00031222 0.00532693
C 21.60812406 12.63978345 17.24020983 -0.00132845 0.00103286 0.00012715
C 18.13553889 15.28204483 20.63055676 -0.00388213 0.00110950 -0.00258711
C 21.19203563 12.46981861 21.91579987 -0.00449215 0.00097501 -0.00274717
C 18.64878407 21.06562755 1.68630487 0.00032990 0.00650714 0.00279617
C 21.42650473 18.08354389 2.95724000 0.00147258 0.00357984 -0.00060610
C 18.29906631 21.22093627 6.29005099 -0.00477393 0.00349898 0.00766067
C 21.51656907 18.15270062 7.60074269 -0.00162477 0.00842840 0.00302950
C 18.60463307 21.25750464 11.29452021 0.00115372 -0.01176804 -0.00300161
C 21.70645222 18.06591806 12.37171041 0.00022773 0.00082611 -0.00160323
C 18.75247266 21.13204975 15.71385621 0.00426243 -0.00333697 -0.00534961
C 21.62394074 18.23267997 17.15809477 -0.00264070 0.00248495 -0.00211528
C 18.74392220 21.04124581 20.71546342 0.00387470 -0.01131726 0.00614568
C 21.51795776 17.87614699 21.95007555 0.00070128 0.00215515 0.00092375
C 19.08519016 26.82485031 1.50736491 0.00322125 -0.00308904 -0.00646272
C 21.99660962 23.55498376 2.95634187 0.00048342 0.00169990 -0.00861608
C 18.83888621 26.82849294 6.41420599 -0.00019326 -0.00569114 0.00291998
C 21.91301366 23.40590632 7.59655208 -0.00201548 0.00097291 -0.00830962
C 18.92738515 26.40993318 10.98029214 -0.00350171 0.00361823 0.00096733
C 21.73557080 23.58646900 12.39219877 0.00846197 -0.01011338 0.00897354
C 19.05720477 26.50697772 15.90894984 0.00038676 0.00409656 -0.00262885
C 22.14176092 24.04571326 17.23424702 0.00164062 0.00604056 -0.00587756
C 18.83161441 26.41483775 20.62304525 -0.00249124 0.00239496 -0.00169659
C 22.14298108 23.60739583 22.08680702 0.00279899 -0.00162196 0.00100831
C 24.88458691 2.86393992 1.70550280 -0.00558361 0.00571581 0.00195686
C 28.11154223 29.67413872 3.20821006 0.00053445 0.00189304 0.00191003
C 25.08360332 2.75934053 6.65626967 -0.00543707 -0.00202666 0.00234248
C 27.96700576 29.65862367 7.75817321 -0.00207598 -0.00289123 0.00282836
C 24.90182131 2.82782169 11.24559247 0.00491956 -0.00224449 0.00315809
C 28.51684118 0.14146875 12.61137708 0.00056169 -0.00316568 -0.00108429
C 25.07282028 2.99410016 15.96173774 0.00094746 0.00140875 0.00079417
C 28.01747786 0.08694183 17.39488415 -0.00134490 0.00110890 -0.00351809
C 25.17806375 3.02058172 20.74572214 0.01157420 -0.00163771 -0.00254129
C 28.28357034 0.24543211 22.08218184 0.00671787 0.00569934 0.00607572
C 24.07761187 9.53272919 1.90761297 0.00305511 -0.00412755 -0.00515078
C 27.36487863 6.26493110 3.04170145 0.00631151 0.00089557 0.01052737
C 24.33985202 9.34959217 6.47779453 -0.00136891 -0.00086623 -0.00250420
C 27.43747909 6.55729596 7.76674690 -0.00204652 -0.00171825 -0.00146457
C 24.36625762 9.51565278 11.13950698 -0.00073164 0.01025277 0.00647803
C 27.49226663 6.46942447 12.55611806 -0.00495753 -0.00149788 0.01409217
C 24.52175906 9.28207742 16.14266710 0.00351615 -0.00434762 0.00296277
C 27.41957560 6.39728183 17.33999072 0.00291154 -0.00397696 -0.00980484
C 24.37770922 9.68764104 20.68203067 -0.00121065 -0.00299271 0.00328014
C 27.83095605 6.47487569 22.11077364 0.00122232 0.00504205 -0.00117845
C 24.76110824 15.19051142 1.72058871 -0.00618762 0.00262049 -0.00144901
C 27.80362343 11.74302656 2.92108195 0.00192020 0.00955628 0.00402824
C 25.06235677 15.09127092 6.35221033 0.00440842 -0.00334421 -0.00013194
C 27.86278549 12.09822206 7.89009439 -0.00193648 0.00322966 0.00622572
C 24.70232228 15.12916551 11.17224632 0.00971424 0.00024237 0.00434405
C 27.91330237 12.17516848 12.52478515 0.00400234 -0.00854493 0.00266595
C 24.74122615 15.06498358 15.87934609 0.00413834 -0.00355090 -0.00656801
C 28.07972762 12.26477186 17.28420395 -0.00036687 -0.00128766 -0.00290545
C 24.92474936 15.05695610 20.67184369 -0.00127570 0.00193685 0.00176590
C 28.01246001 12.07866292 22.01982860 0.00184225 0.00623777 -0.00703325
C 25.20088038 20.65596956 1.85972842 -0.00230341 -0.00125545 -0.00414564
C 28.36506620 17.72298247 2.97373527 0.00618035 0.00186834 0.00053857
C 25.13401070 20.13004230 6.33302976 0.00422644 -0.00396200 -0.00322564
C 28.30258584 17.72094195 7.74426992 0.00515813 0.00222579 -0.00048974
C 25.24090765 20.84950589 11.18547731 0.00293813 0.00338694 -0.00752493
C 28.28416111 17.63774605 12.32246638 0.00136964 -0.00104324 0.00082809
C 25.09444586 20.75635334 15.82731994 -0.00080239 0.00539589 -0.00345463
C 28.36640316 18.03062316 17.06459228 -0.00184693 -0.00355375 0.00250245
C 25.25802850 20.61985184 20.64578248 0.00519151 -0.00272747 0.00523094
C 28.47226301 17.61235865 21.97361911 -0.00720463 -0.00386476 0.00112262
C 25.56812916 26.13958897 1.84042367 -0.00543439 0.00444698 -0.00315180
C 28.73762671 23.18683634 3.16716130 -0.00129717 0.00120167 0.00141469
C 25.36207238 26.16407130 6.45227595 0.00436494 -0.00104869 0.00072679
C 28.81619079 23.21236138 7.87831694 0.00502152 -0.00437184 0.00222864
C 25.62944483 26.25985738 11.09125611 -0.00078273 -0.00697245 -0.00157119
C 28.88691010 23.15118783 12.43559091 -0.00294851 0.00585083 -0.00816981
C 25.85865269 26.19421994 15.72022777 0.00037027 0.00335700 0.00129768
C 28.82559177 23.57104151 17.31538789 -0.00624036 0.00151394 -0.00400985
C 25.47841800 26.21773597 20.34673232 -0.01021951 0.00296158 0.00045383
C 28.82722620 23.31180181 21.96949387 -0.00429751 0.00319523 -0.00408113
N 0.24833152 4.13820289 0.83444793 0.00176318 -0.00075173 0.00474238
N 3.72987300 5.65179471 3.72194083 0.00422232 0.00161299 0.00000386
N 5.28715739 2.26110239 1.03608316 -0.00073701 0.00676150 0.00481950
N 1.78036641 1.15568862 3.68821913 0.00166988 -0.00181718 -0.00876724
N 0.47441488 4.05095854 5.61173284 0.00024105 0.00342004 0.00034917
N 3.53052454 5.26549478 8.56979057 -0.00039599 0.00237017 -0.00311863
N 5.34738462 2.09287429 5.75169784 -0.00514585 -0.00305475 -0.00498251
N 1.66695255 1.17459291 8.55205153 -0.00817966 -0.00248579 0.00603155
N 0.29681574 4.43991166 10.41025534 0.00132285 -0.00479621 0.00457558
N 3.52110300 5.37748319 13.39151962 0.00605052 -0.01033771 0.00115350
N 5.30837291 2.44386398 10.21735539 0.00031312 -0.00170046 -0.00291178
N 1.52232974 1.48842954 13.09579890 -0.00212279 -0.00037209 -0.00576845
N 0.23877661 4.50977611 15.34364335 -0.00334127 -0.00454246 0.00464807
N 3.53361851 5.35380510 17.84865643 0.00028032 0.00141473 0.00112137
N 5.30370347 2.56424227 15.11062630 0.00378111 -0.00453360 0.00193387
N 1.57877107 1.50055945 17.85045887 -0.00065106 -0.00315687 -0.00376338
N 0.21432029 4.52338676 20.12723592 -0.00326198 0.00374089 -0.00471022
N 3.75431568 5.01723628 22.51162494 0.00649402 -0.00648302 -0.00159583
N 5.19454974 2.61318868 19.83861267 0.00457367 -0.00011997 -0.00131230
N 2.20880001 1.47994698 22.75907577 -0.00332018 -0.00386928 0.00675783
N 0.49126922 9.94916530 1.28463591 -0.00313274 -0.00508326 0.00399250
N 4.16571138 10.74049430 3.70731298 0.00419685 0.00050794 -0.00035151
N 5.55932942 7.94577479 0.98451828 0.00488659 0.00047289 0.00200108
N 2.24475345 7.42504180 3.72004795 0.00745732 -0.00093415 0.00186545
N 0.37086651 9.89402861 5.94020750 0.00214900 -0.01006505 0.00118810
N 3.67828260 10.62982090 8.54104068 0.00226192 -0.00139897 0.00587239
N 5.76771438 7.84979167 6.06408162 -0.00142705 0.00424680 -0.00511132
N 2.22382596 7.15006566 8.58771743 -0.00311606 0.00207861 0.00053009
N 0.58357036 10.12282516 10.41842898 0.00532404 0.00602833 -0.00149064
N 4.04998666 10.94254049 13.25214340 0.00144357 -0.00517694 -0.00764145
N 5.83903349 8.17510400 10.32869622 -0.00362832 -0.00092993 0.00125211
N 2.15288188 7.30579603 13.25922481 0.00528153 -0.00644223 0.00377833
N 0.59258475 10.16595068 15.24369149 -0.00642579 -0.00536171 0.00722241
N 3.97714997 10.78670507 17.92598712 0.00202970 0.00167591 0.00239018
N 5.46696419 8.10112366 15.07825530 -0.00705542 -0.00202509 0.00244712
N 2.28172459 7.31551846 17.89204451 0.00138561 -0.00518148 0.00405295
N 0.56057359 10.08658905 20.07179674 0.00635560 0.00979480 -0.00402682
N 3.88435382 10.60779098 22.54791485 -0.00045900 -0.00932356 0.00511844
N 5.48080761 7.77234872 20.03731021 0.00153347 -0.00593568 0.00379610
N 2.54824905 6.91985616 22.71953103 -0.00234310 -0.00729285 0.00255815
N 0.98366844 15.53440701 0.93169518 -0.00135120 0.00118766 0.00454374
N 4.57279934 16.08819839 3.79086958 -0.00111065 0.00185321 -0.00487734
N 6.23881326 13.35122047 0.91469678 0.00014877 -0.00006948 -0.00724613
N 2.56032013 12.46450142 3.73873683 0.00154649 -0.00267011 -0.00121066
N 0.69988439 15.41643325 5.53368810 -0.00836656 -0.00995468 0.00203134
N 4.36257525 16.57207667 8.40352373 -0.00520597 -0.00263094 0.00516130
N 6.23288422 13.23375006 5.99847887 -0.00305476 0.00205444 0.00881812
N 2.80661725 12.80105893 8.41095360 0.00078088 0.00385371 0.00088638
N 0.87159479 15.49944394 10.33291994 0.00051774 0.00236311 -0.00269318
N 4.77987046 16.62026048 13.03970569 -0.00413001 -0.00121922 0.00157157
N 6.18266840 13.51321975 10.43182926 0.00331034 -0.00092691 0.00412239
N 2.87543288 12.93195549 13.07380142 0.00011479 0.00418885 -0.00174795
N 1.01011611 15.34673297 15.16206078 0.00336964 -0.00631473 -0.00298232
N 4.63030133 16.69555868 18.00593353 0.00116980 0.00032479 -0.00191110
N 6.46678111 13.48445844 15.05459504 -0.00512689 -0.00067909 0.00032361
N 2.92174159 12.78730768 18.17141668 0.00291822 -0.00039409 0.00019307
N 1.10053635 15.59580315 20.14802338 -0.00306265 -0.00652728 0.00584616
N 4.63653141 16.53875848 22.77530779 -0.00624441 0.00307501 0.00296001
N 6.09248678 13.61240189 19.75654985 0.00129883 -0.00371354 -0.00625644
N 2.47758263 12.44612525 22.61021613 -0.00036208 -0.00059682 -0.00502080
N 1.20216716 21.01211722 1.08842820 -0.00967853 -0.00001640 0.00683316
N 4.32992521 23.20123443 3.65304022 0.00506545 0.00281355 -0.00347495
N 5.21936573 20.13193870 0.87259158 0.00181213 -0.00163871 -0.00102741
N 2.73608885 17.52971306 3.82210860 0.00253997 0.00468833 -0.00384010
N 1.35295193 20.95573689 5.95312384 0.00017817 -0.00225527 -0.00583387
N 4.20449282 23.04877338 8.37616719 -0.00059485 0.00817415 -0.00388013
N 5.18170091 19.83138902 5.57120584 0.00576837 0.00452592 -0.00330130
N 2.68885243 18.24425001 8.35928051 -0.00228518 0.00012252 -0.00224835
N 1.50661521 20.75135417 10.44786807 0.00567531 -0.00370974 -0.00121835
N 3.99833317 23.29758758 13.36503008 -0.00403154 0.00582668 -0.00010807
N 5.44066464 19.79995873 10.57582817 -0.00728306 -0.00435482 0.00187334
N 2.97524010 18.04407476 13.36856394 0.00730554 0.00670462 0.00149284
N 1.54924787 21.08461610 15.29857391 -0.00139798 0.00447590 -0.00428593
N 4.24100077 23.52789265 17.95729940 0.00407973 0.00267435 0.00071870
N 5.58127254 19.90895760 15.20086710 0.00066971 -0.00122567 -0.00046419
N 3.05105158 18.34173552 17.95847597 -0.00286641 -0.00348525 -0.00156873
N 1.43726200 21.30322185 19.93496953 0.00163186 -0.00256541 0.00292703
N 3.76272105 23.36595036 22.44137500 0.00319800 0.00086307 -0.00360629
N 5.58892081 20.27109319 19.92878839 0.00253075 -0.00140856 -0.00735545
N 2.82401327 17.99845133 22.75285573 0.00028004 0.00186225 0.00153566
N 0.91335475 27.51306274 1.21340764 -0.00031247 0.00189906 -0.00203547
N 3.32707924 29.22644683 3.73230615 -0.00260708 -0.00381533 -0.00227946
N 4.95885410 26.22669009 0.91269181 -0.00127708 0.00343435 -0.00536561
N 2.24960527 24.30691678 3.88023979 -0.00443144 -0.00398629 -0.00618327
N 0.73978013 27.54483479 5.86803297 0.00315206 -0.00031336 0.00213793
N 3.44396557 29.51629316 8.36166174 0.00070814 -0.00009434 0.00152551
N 4.82803584 26.52284558 5.85524979 -0.00212869 0.00063585 -0.00638182
N 2.14184553 23.98094365 8.56877421 0.00155089 0.00245548 -0.00005478
N 0.67594200 27.37730361 10.24205083 0.00432764 0.00015170 -0.00102962
N 3.41143284 0.21577717 13.25954665 0.00390831 -0.00083354 -0.00666021
N 4.84221752 26.56729594 10.45853346 -0.00456999 0.00186910 0.00259918
N 1.99132531 24.30427947 13.01049643 0.00441404 -0.00193934 0.00161620
N 1.00956131 27.66939671 15.05245604 0.00529660 -0.00210164 -0.00091225
N 3.35502479 0.02008588 17.82510048 0.00922965 0.00073794 -0.00138559
N 4.85418502 26.73938929 15.01185990 -0.00335456 0.00567425 -0.00307873
N 2.17380757 24.53712949 17.87083819 -0.00329901 -0.00235181 -0.00424638
N 0.64205848 27.99625551 19.77753634 0.00530232 0.00650233 -0.00602327
N 3.51163583 29.37588228 22.49749963 0.00755974 -0.00064117 0.00169143
N 4.71934843 26.68361683 19.81651553 0.00645015 -0.00208016 -0.00593784
N 1.70518635 24.45408051 22.70093272 -0.00430005 0.00235652 -0.00361517
N 6.85656404 4.00025527 1.09786652 0.00403902 -0.00204617 -0.00553828
N 10.45422147 4.67073235 3.81260003 0.00376008 0.00208767 0.00246444
N 11.90012234 1.74331668 1.07015509 0.00144637 -0.00597577 0.00022090
N 8.42677885 0.86516573 3.81204386 -0.00245463 -0.00239983 -0.00213805
N 6.67856783 3.99090936 5.49761782 -0.00867951 0.00030785 0.00342426
N 9.98930241 4.97845560 8.65568716 0.00054407 0.00032454 0.00173608
N 11.76744576 2.00787422 5.86481242 -0.00299638 0.00591849 0.00700910
N 8.62262934 1.01463163 8.49760545 0.00063788 0.00388893 0.00341162
N 6.85814603 4.16467138 10.22375568 0.00290605 -0.00078386 -0.00542824
N 10.39525255 4.99167061 13.30842792 -0.00339861 0.00520555 0.00775063
N 11.99793646 1.99263266 10.25425772 -0.00676900 -0.00170298 -0.00409373
N 8.48662164 1.14977973 13.15726064 0.01093164 -0.00243747 0.00091943
N 6.92105025 4.23539902 15.01083517 -0.00182951 0.00307902 0.00054857
N 10.08888325 4.70715711 17.96960330 0.00486229 0.00025606 0.00458299
N 12.04218827 1.75438799 15.01514863 -0.00238758 -0.00138927 0.00624942
N 8.76487599 0.97455574 17.91777044 0.00027819 0.00537403 0.00114725
N 6.96650323 4.04423481 19.65882297 -0.00168641 -0.00414978 -0.00122288
N 10.25550524 4.90327937 22.74059860 0.00304327 0.00367408 0.00148390
N 11.96804227 1.71578695 19.99505223 0.00005601 0.00504291 -0.00428399
N 8.54456499 0.97409868 22.76075431 -0.00288551 0.00091557 0.00118412
N 7.11067895 9.57009935 1.18770357 0.00134054 0.00063300 0.00826736
N 11.12176235 10.90206933 3.69183648 0.00115712 -0.00227523 0.00315925
N 12.29192276 7.43895492 0.93384793 0.00139584 -0.00082546 0.00529693
N 8.99884882 6.46458287 3.83041319 0.00375081 -0.00066530 0.00231685
N 7.17664403 9.51591506 5.54162688 -0.00393958 -0.00045293 0.00033093
N 11.11520642 10.68603155 8.61010851 0.00201556 0.00128941 0.00128242
N 12.26617217 7.71335580 5.86261872 -0.00273516 0.00317333 -0.00024610
N 8.89957385 7.00722854 8.39856124 -0.00303272 -0.00470044 -0.00270608
N 7.80124519 9.49994603 10.46609455 -0.00304243 -0.00686399 -0.00150127
N 10.80420959 10.54380285 13.42481832 0.00118756 0.00140351 -0.00152589
N 12.63079573 7.68049777 10.69250735 0.00145053 -0.00229061 0.00266992
N 8.95094595 6.83170821 13.18541593 -0.00034463 0.00498901 -0.00590519
N 7.13210482 9.71402786 15.18093159 0.00184378 0.00256959 -0.00009263
N 10.93972707 10.72299599 17.96143207 -0.00443057 0.00893163 0.00193702
N 12.51066046 7.56835379 15.21770701 -0.00178004 0.00011116 -0.00039931
N 8.76462243 6.65379683 18.09984270 -0.00401050 -0.00107542 0.00326339
N 7.12062722 9.34100589 19.78772531 -0.00111105 -0.00387775 -0.00448721
N 10.68695036 10.51161364 22.60244235 0.00355166 -0.00577178 0.00141950
N 12.06767030 7.56051005 20.00005030 0.00120974 0.00141448 0.00091869
N 8.79480650 6.64342958 22.87941604 0.00388608 -0.00342850 0.00092740
N 7.95938712 14.95309778 1.16117838 -0.00256746 -0.00190049 -0.00009826
N 10.39181669 17.54077201 3.60004781 -0.00355266 0.00184400 -0.00161078
N 11.74903030 14.26291117 0.94889450 0.00322652 0.00058553 0.00108590
N 9.19637343 12.08281870 3.74924507 0.00582016 -0.00536972 0.00325381
N 7.69050048 15.06147263 5.85985134 0.00629413 0.00560815 0.00489377
N 10.43191189 17.20673229 8.47312528 -0.00223959 0.00112232 0.00279449
N 11.74124821 14.50691760 5.89352674 0.00212737 -0.00148612 0.01021168
N 9.40732862 12.15089745 8.51430434 -0.00142719 0.00268211 0.00029661
N 7.91114817 15.08331127 10.51568162 0.00396900 -0.00137320 -0.00421272
N 10.43038478 17.20788950 13.11517311 -0.00159240 -0.00338670 0.00381543
N 11.51869949 14.40492140 10.60046871 -0.00137061 -0.00006954 -0.00311681
N 9.23262431 12.18089925 13.10682129 0.00350083 -0.00522664 0.00408170
N 7.90882482 15.28147123 15.14643731 0.00058227 -0.00276224 0.00025124
N 10.58140677 17.32574675 17.82612155 -0.00292157 0.00393611 -0.00031718
N 11.51702133 14.14678985 15.14141967 -0.00339312 -0.00279675 0.00489589
N 9.19555004 12.25622027 17.93519424 -0.00099493 -0.00180030 -0.00722415
N 7.63456092 15.28854993 20.09296427 0.00074353 -0.00119237 0.00278754
N 10.21486993 17.16309317 22.47699992 -0.00309790 0.00276383 -0.00559001
N 11.54658752 14.40114746 19.75671841 0.00481806 0.00579446 0.00069017
N 9.16096299 12.20323572 22.56591834 0.00504520 0.00438297 0.00334531
N 6.82220266 21.69620136 0.95916943 -0.00033954 -0.00367899 -0.00448195
N 9.82295320 23.35223421 3.63106249 0.00291123 0.00432597 -0.00582537
N 11.07683763 20.51738569 0.70856680 -0.00241790 -0.00083397 0.00292478
N 8.38649089 18.60345956 3.78657691 0.00733105 -0.00140639 -0.00067498
N 6.80663612 21.50064747 5.79625946 -0.00353267 -0.00567510 0.00105085