2000
Time=95999.99999999 pbc="T T T" Lattice="31.04875906 0.00000000 0.00000000 0.00000000 29.93726759 0.00000000 0.00000000 0.00000000 23.68481114" energy=-12041.74299538 virial="11.11801381 -5.05324650 0.84130546 -5.05324650 14.36884761 5.85612905 0.84130546 5.85612905 -70.24804676" stress="0.00272497 -0.00022798 0.00002159 -0.00022798 0.00280140 0.00027457 0.00002159 0.00027457 -0.00048905" Properties=species:S:1:pos:R:3:vel:R:3
C 30.57626257 3.54255727 1.65488945 0.00141873 -0.00008174 0.00201607
C 2.33925532 0.74719258 3.05712917 0.00056726 -0.00658153 -0.00248385
C 30.33458612 3.49885490 6.38689840 -0.00440529 -0.00041842 0.00164560
C 2.58459940 0.64588501 8.02988485 -0.00066480 0.00525928 -0.00439836
C 30.56613817 3.92680050 11.23056558 0.00238145 -0.00284037 -0.00271262
C 2.62323696 0.85510797 12.57829178 0.00172562 0.00345713 -0.00411007
C 30.40219859 3.64027784 16.02373700 -0.00516809 -0.00168652 -0.00071859
C 2.62673319 0.58024924 17.20989418 -0.00141192 0.00302727 0.00378754
C 30.28658836 3.52729448 20.63147858 -0.00668817 0.00228735 0.00163767
C 2.68030012 0.55597347 21.63009925 -0.00384827 0.00292565 -0.00158922
C 30.96894739 9.03775791 1.63996644 -0.00057144 -0.00496307 -0.00075400
C 2.95275124 6.19683003 3.08871805 -0.00185666 0.00162140 -0.00139121
C 30.74419028 8.99046539 6.36961950 -0.00528127 -0.00337447 0.00139166
C 2.76816218 6.11308885 7.56072611 0.00247979 -0.00687728 -0.00661611
C 30.69848056 9.27488528 10.98621665 0.00459635 0.00254589 0.00094140
C 2.77993132 6.44057201 12.49866229 -0.00783848 -0.00239461 -0.00113890
C 30.91171012 9.18488802 15.71267022 0.00324581 0.00199221 0.00630815
C 2.82599798 6.12280448 17.17364954 0.00335822 -0.00036628 0.00414558
C 30.92290273 9.20880440 20.52606658 0.00598355 0.00450181 -0.00483394
C 2.92927727 6.05330665 21.90670591 -0.00046585 -0.00522265 0.00593454
C 0.03951371 14.56595294 1.79515872 -0.00140501 -0.00354347 0.00161598
C 3.57066487 11.54542532 2.96623683 -0.00040807 0.01329554 -0.00898164
C 0.11795905 14.65657638 6.48798844 0.00006797 0.00077665 -0.00450085
C 3.27371614 11.67532674 7.68727244 0.00038500 -0.00059858 0.00229800
C 0.11107632 14.73002734 11.11873452 0.00097159 -0.00474169 -0.00627899
C 3.47195986 11.91037059 12.59189215 -0.00390440 0.00363300 0.00241899
C 0.15894103 14.68109931 15.93853961 -0.00041325 -0.00729301 -0.00230846
C 3.06422912 11.73917266 17.27405404 -0.01022398 -0.00493468 0.00107297
C 0.06413469 14.82447489 20.58789952 0.00062049 0.00581074 0.00226881
C 3.30239930 11.78976346 21.91366550 0.00021150 -0.00423209 0.00201204
C 0.71870657 20.38679823 1.67051772 -0.00060939 0.00324535 -0.00010171
C 3.63906443 17.27357031 3.07210904 0.00021918 -0.00524650 0.00035823
C 0.57087390 20.27682564 6.37734369 0.00684884 0.00333567 0.00386763
C 3.83318044 17.45265675 7.82560645 -0.00433111 0.00358442 0.00291478
C 0.63571824 20.45734981 10.95965593 0.00650341 -0.00481338 0.00023883
C 3.53696836 17.63225720 12.45949659 -0.00346623 -0.00009235 0.00037433
C 0.79434753 20.40945215 15.88785656 -0.00407371 0.00229400 -0.00318025
C 3.87058381 17.62063238 17.26430673 0.00398530 -0.00674765 0.00085365
C 0.64212836 20.17547961 20.65878194 -0.00168839 -0.00196323 0.00214814
C 3.63187269 17.27174992 21.92133354 0.01108240 0.00356845 0.00092907
C 30.99000245 27.26126338 1.64797189 0.00015746 -0.00271256 -0.00557640
C 3.35024291 23.88047175 3.06846115 0.00260619 -0.00699121 0.00106435
C 30.99172549 26.98145947 6.33471468 -0.00277515 0.00044525 0.00951722
C 2.95520490 23.88690580 7.81221076 0.00891839 0.00059001 0.00695337
C 31.02964596 26.85600119 11.05541326 0.00225308 -0.00299660 -0.00294610
C 3.14273812 24.24765218 12.41263998 -0.00418364 -0.00425268 0.00128796
C 0.37829485 27.17582696 15.99370334 0.00165611 0.00057777 -0.00084809
C 3.37401813 23.85708800 17.08668535 0.00172786 0.00389088 -0.00097997
C 0.22966335 27.02149925 20.66230209 -0.00140705 -0.00254798 0.00080685
C 3.07029644 23.79294466 21.96950793 -0.00131718 -0.00364770 0.00443753
C 5.93073164 3.37146265 1.35006046 0.00168361 -0.00432880 -0.00215867
C 9.08890954 0.06148572 2.94694322 0.00293781 0.00148065 0.00412705
C 6.08865211 3.27128061 6.34804302 0.00073130 0.00496237 -0.00191833
C 8.97426080 0.12926943 7.58370754 0.00389297 0.00228194 0.00128558
C 6.28844591 3.07483746 11.23452073 0.00640238 -0.00579068 -0.00212896
C 9.13689505 0.05318102 12.12039750 -0.00420569 0.00932695 0.00301080
C 5.75045133 3.31153875 15.66795743 -0.00123684 -0.00487779 0.00111394
C 9.06648778 0.31572780 16.94059367 0.00297259 -0.00290056 -0.00355894
C 6.26623429 3.32887685 20.43901961 0.00087266 0.00591595 0.00504028
C 9.07409946 0.51841293 21.85908144 0.00108280 -0.00172248 0.00008749
C 6.40270959 8.76257312 1.64039829 0.01145942 0.00144723 -0.00145791
C 9.44012931 5.85373257 3.00232465 -0.00573730 -0.00494746 -0.01161288
C 6.30049703 8.61893584 6.55793977 -0.00001929 -0.00258660 0.00418406
C 9.51799707 6.01717277 7.80304048 -0.00265771 -0.00459232 0.00286411
C 6.21726197 8.71513747 11.15928375 -0.00022644 0.00189460 0.00257899
C 9.46296602 5.67836474 12.37053699 0.00252305 -0.00496513 0.00024598
C 6.35372704 8.88837861 15.76702874 -0.00007456 0.00733787 0.00367069
C 9.50279031 6.06262142 17.05908872 0.00145968 -0.00252014 0.01121480
C 6.18869593 8.49301313 20.63718062 -0.00031614 -0.00553094 0.00073460
C 9.81341057 5.97132408 21.98063063 0.00027673 -0.00034497 -0.00164791
C 7.04253069 14.28682734 1.73389636 -0.00029938 -0.00203097 -0.00121414
C 9.82637439 11.32779721 3.17495031 -0.00153908 0.00051496 0.00812490
C 6.74532501 14.27086673 6.33393768 0.00185366 0.00550182 0.00035072
C 9.95848920 11.42122930 7.87198647 -0.00054895 -0.00039787 0.00283774
C 6.74838668 14.52463007 11.15239745 -0.00008695 0.00171686 -0.00034998
C 9.84630495 11.40103314 12.48291665 0.00082903 0.00934615 -0.00485167
C 6.57020313 14.52412589 15.94679708 0.00456882 0.00317979 0.00123567
C 9.63781505 11.25882991 17.21769457 0.00528928 -0.00419332 0.00117243
C 6.88803798 14.45440175 20.76006854 0.00080111 0.00044530 -0.00112651
C 9.87849545 11.15731065 22.12289535 -0.00307421 -0.00031610 0.00257036
C 6.37369264 20.80667909 1.68326328 -0.00047303 -0.00231291 0.00287949
C 9.27857054 17.96837155 3.05807361 -0.00402707 0.00768243 0.00391660
C 6.05236796 20.91917215 6.46759029 0.00013923 -0.00032163 0.00153948
C 9.19354246 17.95808429 7.66990239 0.00296578 -0.00153549 0.00088341
C 6.27922711 21.03867667 11.17968144 0.00059556 0.00279570 0.00049063
C 9.37170786 17.89815226 12.55545859 0.00081455 0.00245315 0.00351172
C 6.44468190 20.87164899 15.82165653 -0.00570008 -0.00453574 -0.00673042
C 9.35733558 17.98610659 17.30214471 -0.00035440 -0.00008090 0.00090908
C 6.19576547 21.00168659 20.67201284 0.00365496 -0.00232511 -0.00124160
C 9.22767130 17.97744630 21.97958032 0.00257011 0.00077816 -0.00105078
C 5.52108201 27.57386853 1.59905106 -0.00207006 0.00407921 -0.00412512
C 8.75712011 24.60376809 2.98262173 0.00095922 0.00905375 0.00760426
C 5.46954874 27.41251702 6.38037895 -0.00219124 -0.00162373 -0.00271557
C 8.50183264 24.56185036 7.66581869 0.00062675 -0.00052986 0.00021955
C 5.35574832 27.63479199 11.14573323 -0.00094453 -0.00005745 0.00348756
C 8.79257546 24.60074902 12.34905942 0.00191515 0.00187683 0.00449065
C 5.72426758 27.44189023 15.66569274 0.00182125 0.00402921 0.00146458
C 8.92232570 24.79112580 17.07757326 0.00110039 0.00375714 -0.00555712
C 5.76082393 27.45336966 20.52575660 0.00534320 0.00392786 -0.00111575
C 8.80185742 24.57635050 21.84170375 -0.00148706 -0.00058524 -0.00625870
C 12.40888072 3.02324131 1.73484697 0.00286615 -0.00518033 -0.01158868
C 15.56994403 29.53328889 3.11228123 -0.00392631 0.00153543 0.00178144
C 12.64344149 2.60830467 6.43054707 0.00235598 -0.00540096 -0.00955771
C 15.78486457 0.08747825 7.80977218 -0.00015541 -0.00129867 0.00394202
C 12.63274454 2.92050463 11.11722513 0.00356862 -0.00143178 0.00323215
C 15.66103812 29.68787127 12.54905021 0.00239069 -0.00337212 0.01058214
C 12.52731843 2.85711945 15.85364137 0.00279458 -0.00220936 0.00277308
C 15.90455344 29.79265407 17.31913898 0.00726635 0.00471580 -0.00328203
C 12.68953137 2.94205371 20.72672538 0.00480861 -0.00436483 0.00221173
C 15.62240162 29.62585175 21.94543403 -0.00160657 0.00236122 -0.00661229
C 12.95630335 8.16370499 1.78928338 0.00218380 -0.00204353 -0.00089233
C 16.32693027 5.68404118 2.99239251 0.00870598 0.00058683 -0.00745497
C 12.82469742 8.16664039 6.43569575 0.00427417 -0.00186828 -0.00242953
C 15.97762019 5.62365174 7.83339544 0.00027700 0.00052675 -0.00354942
C 12.94749729 8.33257580 11.38944515 0.00430282 0.00610020 0.00111687
C 16.22620868 5.36522649 12.67845601 -0.00803765 0.00564446 0.01150868
C 13.05331032 8.39287617 15.93759522 -0.00942554 0.00367622 -0.00310193
C 15.99068554 5.31456174 17.28475519 -0.00172753 0.00292099 0.00389353
C 13.13963804 8.36036373 20.59685215 -0.00224661 -0.00216881 -0.00329910
C 16.33537448 5.38465253 21.84204053 0.00236697 0.00401597 -0.00232530
C 12.43578627 14.73115075 1.87336875 -0.00394175 0.00203499 0.00333931
C 15.35681939 11.75209314 3.25118422 -0.00517362 -0.00087206 -0.00654887
C 12.56195840 14.94769960 6.55948503 0.00150623 -0.00292144 -0.00260178
C 15.36425085 12.22196050 7.91256964 0.00218038 0.00552100 0.00777864
C 12.53706544 15.15180773 11.29623624 -0.00258118 -0.00549904 0.00812625
C 15.24721492 12.10041728 12.60531818 0.00051036 0.00227901 0.00217325
C 12.15672785 15.05252383 15.85235964 -0.00390376 -0.00403573 0.00006454
C 16.06340359 12.06493706 17.31386540 -0.00272790 0.00361890 -0.00020134
C 12.37866899 14.69676999 20.51243599 -0.00878256 -0.00887341 0.00045133
C 15.60444718 11.93232543 22.09995974 0.00026314 0.00241876 -0.00982768
C 11.88549721 21.48441863 1.74729614 0.00028159 -0.00194440 0.00572806
C 15.03723528 18.44423067 2.99018067 0.00237758 -0.00064236 -0.00167494
C 11.58340383 21.68935966 6.39749313 0.00350095 0.00256436 0.00224664
C 14.80417322 18.37886726 7.71744568 -0.00083664 -0.00083520 0.00256965
C 11.98540707 21.64460700 11.14435062 0.00005985 0.00237437 -0.00167554
C 14.94315109 18.54568264 12.66152423 0.00003655 0.00300158 0.00666542
C 11.83082211 21.56974366 16.09476224 0.00236656 -0.00398008 -0.00224194
C 15.04417554 18.61167400 17.41492221 0.00042541 -0.00303915 0.00093668
C 11.68286934 21.67812250 20.71442838 -0.00401062 0.00309789 -0.00020767
C 15.15183276 18.57009991 21.99991516 0.00358714 0.00436976 0.00269646
C 12.09351819 27.05373584 1.67056631 -0.00121181 0.00276216 -0.00728133
C 15.23155747 24.17175234 3.08233670 0.00458465 0.00036657 -0.00745808
C 12.14427004 27.15197122 6.52092318 -0.00764189 0.00071156 0.00566053
C 15.64151996 24.26665200 7.71176015 0.01147776 0.00100357 -0.00113538
C 12.34491042 27.01894159 11.18427811 0.00104047 0.00293300 0.00009721
C 15.43803931 23.86274309 12.51385165 -0.00189700 -0.00205032 0.00509633
C 12.31519787 27.19803728 15.93487196 0.00235718 -0.00201439 0.00148022
C 15.24730262 24.14909423 17.43043270 -0.00223317 -0.00066712 -0.00150678
C 11.95753080 27.63143936 20.78687691 0.00319702 -0.00529668 0.00171590
C 15.14468130 23.94036136 22.07584830 -0.00144237 0.00752622 0.00475102
C 19.34806354 2.52045955 1.91227475 0.00661383 -0.00526269 0.00712119
C 22.43587557 29.28476603 3.01372269 -0.00176850 -0.00284857 -0.00454497
C 19.06384191 2.53383105 6.74095787 -0.00304630 0.00404050 0.00665968
C 22.24727551 29.46042649 7.84564655 -0.00178854 0.00324719 -0.00077042
C 19.17675361 2.20672151 11.29444191 0.00091285 -0.00376508 0.00291787
C 22.22240927 29.39268176 12.67067948 0.01003363 -0.00711512 0.00227577
C 19.09852852 2.24340883 16.17232506 -0.00879606 -0.00118234 -0.00032970
C 22.25270197 29.15187079 17.17764580 -0.00326107 -0.00523188 -0.00169568
C 19.32088419 2.04160642 20.75183457 -0.00390825 -0.00272120 -0.00439012
C 22.08957451 29.34118687 21.70656668 -0.00210197 0.00142908 0.00237684
C 18.78271512 8.91461436 1.68153902 0.00065793 -0.00531474 0.00490574
C 21.84638716 6.16087546 3.09009146 -0.00158427 0.00023133 -0.00177023
C 18.26248377 8.92916997 6.66076966 0.00288254 0.00455427 -0.00206302
C 21.48837798 6.01838750 7.80684968 -0.00252306 -0.00588684 -0.00934178
C 18.43419487 9.09094520 11.47610179 0.00200109 -0.00489036 0.00190689
C 21.75259805 5.77255669 12.53595994 0.00671458 0.00189845 0.00075098
C 18.95765969 8.89947397 16.12785808 0.00342503 -0.00206919 0.00362528
C 22.01706432 6.11805125 17.28032850 -0.00787964 -0.00249718 -0.00395427
C 18.67771069 9.08690765 20.68470688 0.00652536 -0.00795296 -0.00415519
C 21.79754363 5.88842588 22.17637080 0.00888918 0.00000809 -0.00375699
C 17.99210900 15.55594122 1.85718344 0.00047348 -0.00633736 0.00218908
C 20.72700171 12.42424707 3.20252720 -0.00499903 -0.00519203 0.00327415
C 18.07785722 15.68639350 6.54207377 -0.00248729 0.00012869 0.00116278
C 21.07796532 12.47319229 7.81074342 -0.00437927 -0.00467174 0.00452048
C 18.05838173 15.51994342 11.22865389 -0.00203017 -0.00334548 0.00601509
C 20.96059677 12.56232869 12.53091894 0.00332563 0.00178187 -0.00565758
C 17.94329668 15.73361835 16.08591443 -0.00499387 0.00239083 -0.00362633
C 21.06552376 12.44466314 17.17268863 -0.01024992 0.00187317 -0.00237423
C 17.84756063 15.44931280 20.84667901 -0.00914627 0.00171444 0.00337350
C 21.29365363 12.59796122 21.88004430 -0.00051882 0.00409140 0.00015306
C 18.34951155 21.07515639 1.76359835 -0.00127350 -0.00066065 0.00034287
C 21.32210968 18.27804983 3.02641384 0.00024834 0.00244803 0.00320272
C 18.74363526 21.16059063 6.57582634 -0.00021614 -0.00411691 0.00226621
C 21.45023583 18.05856376 7.58625965 -0.00060733 0.00642243 0.00076387
C 18.67940490 21.10488272 11.14470096 -0.00196426 0.00287213 -0.00254397
C 21.72236309 18.03779258 12.62675187 0.00563623 0.00058815 0.00304492
C 18.60837497 21.09845289 15.86106202 0.00131075 0.00231163 0.00025504
C 21.64791475 18.04896674 17.36540514 0.00336852 -0.00114515 0.00280725
C 18.28006958 21.11314316 20.67108978 -0.00203640 -0.00224687 -0.00135975
C 21.59282175 18.24117357 22.05192494 -0.00888259 0.00587014 0.00863337
C 18.95082619 26.57536039 1.73308904 -0.00092901 0.00377722 -0.00437963
C 21.86850526 23.90686809 3.08427373 0.00352745 0.00452057 -0.01349758
C 19.06821863 26.84085102 6.59927363 -0.00169788 -0.00893677 0.00038029
C 22.22729959 23.98728979 7.85250072 -0.00080538 0.00419861 0.00466584
C 18.87569382 26.57969946 11.28504457 -0.00053497 -0.00379129 0.00350843
C 22.11830194 23.97290148 12.39461979 0.00481827 0.00238572 -0.00262949
C 18.76503331 26.51847571 15.97546720 -0.00126707 0.00104295 -0.00406609
C 22.01555526 23.63188860 17.30845456 0.00530093 -0.00323778 -0.00211896
C 18.64531757 26.20286804 20.78688918 0.00118399 -0.00257283 0.00026534
C 22.17435174 23.91509157 21.94911048 0.00570525 0.00243234 0.00396595
C 24.58594041 3.25483862 1.74864431 0.00363665 -0.00260980 -0.00172812
C 27.78962421 0.04882889 2.72672219 -0.00272874 -0.00590980 -0.00176612
C 24.72756527 2.85742836 6.46847374 -0.00204159 0.00595634 -0.00097213
C 27.96776671 0.19412436 7.67064531 -0.00435404 0.00465367 0.00462801
C 24.94239631 2.98831548 11.22772996 -0.00152474 -0.00115931 -0.00065963
C 28.10163991 29.90994122 12.41125125 0.00055428 0.00794396 -0.00452835
C 25.00572821 2.86553335 15.85523136 0.00582727 -0.00829840 -0.00743665
C 28.15136936 29.88523297 17.16722294 -0.00068765 0.00408220 0.00353370
C 24.90576552 2.98247417 20.73069074 -0.00049782 -0.00194710 0.00320904
C 27.85269770 0.27141647 21.81055929 0.00160711 0.00613773 0.00223261
C 24.15146105 9.73501710 1.86446226 0.00116444 -0.00400171 -0.00736068
C 27.20950098 6.50976515 3.12217566 0.00313008 0.00411860 0.00551182
C 24.04149881 9.50677723 6.57576797 -0.00406969 0.00319946 -0.00124912
C 27.05116531 6.51026586 7.88511112 -0.00081095 0.00020140 -0.00316722
C 23.93249199 9.33849081 11.19813524 -0.00487972 -0.00380464 -0.00276304
C 26.91294456 6.57375131 12.67284718 -0.00190808 0.00440782 0.00095919
C 23.88671926 9.60208002 16.00254970 -0.00743884 0.00105932 0.01091371
C 27.35732458 6.60453747 17.36593860 0.00183435 -0.00435633 -0.00107849
C 24.24272434 9.53052019 20.73598225 -0.00074147 0.00010937 -0.00368224
C 27.53453781 6.62315226 22.05442684 -0.00653694 0.00189985 0.00302096
C 24.53606191 15.08963666 1.79917439 -0.00174651 -0.00032192 0.00159458
C 27.83497151 11.99574075 3.08155597 0.00766883 -0.00179565 -0.00168301
C 24.47253090 15.05332657 6.55407212 -0.00132326 0.00046319 0.00271347
C 27.54783383 12.09372652 7.86535868 0.00024568 0.00353665 -0.00169009
C 24.51449038 15.32129111 11.15329837 0.00833395 -0.00127082 0.00153879
C 27.52024330 12.14408946 12.39117924 0.00460792 0.00159445 0.00055502
C 24.73125286 15.15212890 15.81004098 0.00051753 -0.00142708 -0.00059003
C 27.69516440 12.00984577 17.11874065 -0.00636866 0.00249351 -0.00254562
C 24.78949837 15.09671205 20.63873182 0.00857363 0.00258099 -0.00253893
C 27.65430388 12.04266462 21.99410559 -0.00247286 0.00351908 0.00099312
C 25.08644271 20.87983716 1.78577816 -0.00627423 -0.00210762 0.00302763
C 28.23908028 17.75484588 3.02032122 -0.00522220 -0.00056212 -0.00234243
C 25.03916218 20.52169432 6.37896077 -0.00012788 0.00076764 -0.00108383
C 28.20934443 17.86898242 7.78862660 0.00427231 -0.00008112 -0.00197836
C 25.01730035 20.73538637 11.05641572 -0.00006547 -0.00064778 0.01395009
C 28.32430073 17.81337334 12.50129979 -0.00631804 -0.00191443 -0.00449685
C 25.16699192 20.77936334 15.78960389 -0.00583764 0.00206522 -0.00133316
C 28.22231232 17.96276062 17.31341606 0.00266355 0.00102219 -0.00497955
C 25.12260885 20.87017115 20.57801659 -0.00310982 -0.00135227 -0.00668007
C 28.13467604 17.65735043 21.95448277 0.00079000 -0.00222698 -0.00141387
C 25.54102668 26.47281597 1.48356650 0.00193896 -0.00811736 0.00083976
C 28.53891820 23.48367366 2.85435343 -0.01307014 0.00078816 -0.00192752
C 25.48146155 26.30006291 6.41367210 0.00083444 0.00258359 -0.00390434
C 28.46692257 23.29551596 7.52074566 -0.00580364 -0.00295272 0.00370930
C 25.62992735 26.64847369 11.05577681 0.00635324 0.00605564 -0.00115981
C 28.67963267 23.39487253 12.57646228 -0.00334680 0.00295290 0.00044766
C 25.63439973 26.37878296 15.80378934 -0.00562618 -0.00818606 -0.00302767
C 28.77409196 23.75545901 17.27409307 0.00115689 -0.01049665 0.00655983
C 25.63241408 26.36680556 20.56232684 0.00167129 -0.00114125 -0.00576588
C 28.47349836 23.44844948 21.83441193 0.00702790 -0.00087936 0.00094002
N 0.40884851 4.22047370 0.93797452 -0.00518169 0.00606727 0.00144895
N 3.52032924 5.11627943 3.66611887 -0.00051685 0.00187577 0.00259582
N 5.15845877 2.46290560 0.72953711 0.00259189 0.00167395 -0.00201679
N 1.58515901 1.46778252 3.87715639 -0.00077928 -0.00131224 0.00461157
N 0.05197675 4.41276554 5.70783572 0.00407311 -0.00145882 0.00147443
N 3.22599672 5.06933117 8.33282371 0.00101787 -0.00108441 -0.00448805
N 5.17441147 2.50629936 5.69844737 0.00165548 0.00411408 0.00318483
N 1.66766091 1.30687389 8.74904084 -0.00649814 -0.01060635 -0.00120640
N 0.34085317 4.64097767 10.44611073 -0.00224035 0.00260598 0.00264334
N 3.31896507 5.47188704 13.18039463 0.00176135 -0.00028860 -0.00075777
N 5.28554393 2.31014333 10.61727152 0.00566772 0.00566431 0.00287254
N 1.65336228 1.47009865 13.31309255 -0.00091033 -0.01110853 -0.00180583
N 0.11060579 4.47769077 15.26020375 -0.00150891 -0.00430492 0.00630518
N 3.32058051 5.10565590 17.92596417 0.00049749 -0.00111385 -0.00044994
N 5.11062123 2.38940285 14.96844389 0.00932775 0.00137660 -0.00284838
N 1.91811037 1.39108577 18.07955200 0.00067595 0.00022560 0.00171858
N 0.07477851 4.40211496 19.99055622 -0.00079983 0.00040477 0.00308506
N 3.81036565 5.33500262 22.62388838 0.00930393 0.00078758 0.00173444
N 5.50287955 2.46850294 19.70058710 0.00217714 0.00070630 0.00053059
N 1.90504670 1.51508868 22.24769450 0.00284355 0.00184561 0.00407645
N 0.58603431 9.84229466 0.82950056 0.00220123 -0.00096730 -0.00029698
N 4.17923040 10.49167859 3.60460521 0.00028257 0.00187255 0.00521464
N 5.48916646 7.99926670 0.99584945 -0.00256961 -0.00020772 0.00250876
N 2.34352715 7.15819109 3.84950907 0.00214084 -0.00036466 -0.00312372
N 0.63832319 9.93094742 5.98891247 0.00673770 0.00195715 -0.00053521
N 3.96972283 10.73768530 8.37458740 -0.00138819 0.00434010 -0.00227167
N 5.63118108 7.68835763 5.81132762 -0.00241158 -0.00083177 0.00061484
N 2.50645418 7.28373909 8.21316451 -0.00233969 0.00297872 -0.00753696
N 0.54905467 10.06426150 10.28785988 0.00321335 0.00734983 -0.00202491
N 3.92545907 10.91332303 13.31672969 -0.00376793 0.00035055 -0.00474702
N 5.36260148 7.87068450 10.60236159 0.00619409 0.00095898 -0.00722738
N 2.30312728 7.45165878 13.31563701 -0.00846010 0.00685310 -0.00306119
N 0.49653367 10.18112441 15.09809727 -0.00329723 -0.00317660 0.00332876
N 3.71207934 10.76386905 17.99263628 -0.00118083 -0.00258355 -0.00360641
N 5.53241839 7.95965620 15.23309537 -0.00272619 0.00641830 -0.00228189
N 2.06232379 7.02195389 17.79316465 -0.00257450 0.00060934 0.00112523
N 0.68658198 9.94135362 19.81343200 -0.00342481 -0.00357334 -0.00242120
N 4.14597945 10.89216950 22.53522222 -0.00271316 -0.00552363 -0.00757455
N 5.34429342 7.87787850 19.80512163 0.00410231 -0.00359947 -0.00257380
N 2.23483859 6.99637806 22.64237616 0.00078098 0.00280746 -0.00065301
N 0.79607790 15.43813164 1.10861455 0.00096479 -0.00087447 -0.00740754
N 4.27198937 16.38417426 3.79416909 0.00478108 0.00261750 -0.00479314
N 6.15642329 13.59884512 0.94784878 0.00275972 0.00487709 0.00168322
N 2.74161942 12.23262603 3.72695647 0.00145364 0.00080718 -0.00436680
N 0.81153644 15.43464324 5.62080187 0.00275733 0.00121545 0.00024389
N 4.51424966 16.63754270 8.65844786 0.00226080 -0.00131874 -0.00425019
N 6.06934892 13.41458778 5.48871955 0.00056923 0.00463942 -0.00272877
N 2.72059058 12.68053717 8.39283107 0.00764107 -0.00261729 -0.00161594
N 0.94428698 15.53849246 10.46073366 -0.00401366 0.00224184 -0.00130930
N 4.28648708 16.74890396 13.18230691 -0.00494825 0.00263724 -0.00415352
N 5.84369943 13.66164135 10.46714103 0.00488135 0.00487978 -0.00327152
N 2.70694523 12.85969689 13.23281443 0.00159109 0.00089479 0.00598853
N 0.79672595 15.46583553 15.04789252 -0.00196574 -0.01023966 0.00163663
N 4.65189000 16.71735767 17.91540458 0.00533046 -0.00289280 -0.00052576
N 5.82488760 13.80652921 15.15786337 -0.00305678 0.00313030 0.00578060
N 2.58311204 12.76359837 18.06120350 0.00499643 -0.00689750 -0.00567647
N 0.81589399 15.62813990 19.80454567 0.00702660 0.00507441 -0.00059063
N 4.60633194 16.67993693 22.62962463 -0.00455455 0.00006233 0.00909486
N 6.19717751 13.61194085 19.96252019 -0.00452964 -0.00189851 -0.00639505
N 2.64654781 12.63104981 22.72900171 -0.00147437 0.00109327 -0.00392876
N 1.56729267 21.15847496 0.92842220 -0.00170539 0.00180158 -0.00109604
N 4.37086775 23.40961535 3.84238215 0.00490731 0.00214371 0.00521411
N 5.76278938 19.86602313 0.91427085 0.00243516 0.00092499 -0.00283133
N 2.81555536 18.13917161 3.76393364 0.00220294 0.00120005 0.00798347
N 1.23565643 21.06379721 5.59136093 -0.00006924 -0.00461691 0.00050355
N 4.08723742 23.55899522 8.48653393 -0.00015301 0.00001955 0.00462514
N 5.08678720 20.28747200 5.72742938 0.00300751 0.00317859 -0.00214430
N 2.91974444 18.22123112 8.40055552 0.00776988 -0.00786156 -0.00485444
N 1.48183931 21.19637919 10.21990140 -0.00573429 -0.00268649 -0.00228059
N 4.16119861 23.46779894 12.87929916 -0.00065178 0.00225053 0.00311104
N 5.44955568 20.32307076 10.44163594 -0.00097423 0.00582097 0.00248843
N 2.76042550 18.47546561 13.16130655 -0.00043581 -0.00213632 0.00189832
N 1.69248034 21.05052581 15.11301095 0.00324257 0.00488221 -0.00211702
N 4.37791025 23.26322904 17.77950174 0.00176542 -0.00166020 0.00228361
N 5.61851759 20.05962027 15.16186642 0.00049000 -0.00319773 -0.00128487
N 3.02443012 18.37016567 18.05801370 -0.00479661 0.00499799 -0.00704099
N 1.56157469 21.01440623 19.93236519 -0.00021960 0.00276710 0.00418843
N 4.14066424 23.34669815 22.69094941 -0.00550872 0.00358829 0.00082461
N 5.58880622 20.05013385 19.91334880 0.00077050 -0.00493314 0.00385542
N 2.58207959 17.76930421 22.61740029 -0.00408014 -0.00371259 -0.00167684
N 0.71142670 28.10409523 0.92123725 -0.00046330 -0.00053006 -0.00453806
N 3.35899492 0.07594378 3.69225435 -0.00121728 0.00173626 -0.00398036
N 4.61076250 26.76963399 0.99719557 -0.00216108 0.00218244 -0.00624777
N 2.27402403 24.26093452 3.81897582 -0.00048319 0.00475325 0.00544323
N 0.75090819 27.86482163 5.72320819 0.00135967 0.00504226 0.00192393
N 3.57707254 0.01657955 8.68230285 0.00583382 -0.00701118 -0.00649576
N 4.64301584 26.61673818 5.65604411 -0.00237605 0.00650961 -0.00015724
N 1.99020708 24.54349922 8.51214119 0.00027473 0.00134496 0.00770360
N 0.74968952 27.70862219 10.33833330 0.00092619 -0.00023112 -0.00432296
N 3.46285017 29.90447627 13.16150573 -0.00822214 -0.00249828 0.00203332
N 4.53237437 26.90958388 10.37675590 -0.00249054 0.00161939 0.00539768
N 2.17229328 24.71072125 13.25966928 -0.00295533 -0.00988088 -0.00493040
N 1.09945142 27.86350601 15.05369503 -0.00077801 0.00175024 -0.00549907
N 3.43205483 29.63442495 17.83781047 -0.00428680 0.00524182 -0.00032159
N 4.98463277 26.66718174 14.87316220 -0.00252318 -0.00263760 -0.00229011
N 2.47413276 24.42078619 17.86999354 -0.00392395 0.00614616 -0.00117683
N 1.11803287 27.77942481 19.96779182 0.00585882 0.00415817 0.00254330
N 3.41246087 29.69546457 22.48325482 0.00515894 -0.00612460 0.00924080
N 4.90337306 26.55660400 19.90946913 -0.00188958 -0.01072079 -0.00236222
N 2.11190743 24.49077852 22.68420393 -0.00223362 0.00428057 -0.00130423
N 6.69926092 4.12595483 0.58438043 -0.01026833 -0.00335574 -0.00452960
N 10.19252381 5.00892244 3.75895716 0.00103292 0.00200529 0.00386278
N 11.78713909 2.01622572 1.08404426 0.00070467 0.00228725 0.00206416
N 8.55885795 1.10404090 3.70196021 -0.00044735 0.00009501 -0.00142841
N 6.84369741 4.09308490 5.56161324 -0.00910201 -0.00485894 0.00366790
N 10.05944756 4.94435283 8.49541092 -0.00274368 0.00304006 0.00104168
N 11.69219798 2.00959273 5.64882821 0.00461108 0.00124986 -0.00189888
N 8.57709387 1.21384215 8.31057778 0.00327883 -0.00275876 0.00153240
N 6.94726193 3.94170364 10.38486657 -0.00558452 0.00257845 -0.00305865
N 10.18881450 4.79767331 13.08775847 0.00697132 -0.00123933 0.00142765
N 11.90134951 1.97408622 10.45211470 -0.00435652 0.00047702 0.00295550
N 8.47279839 0.98385825 12.76124571 -0.00113847 0.00315049 0.00445901
N 6.72702985 4.00310309 15.16989635 -0.00391054 0.00050317 0.00133164
N 10.18422521 5.03097495 17.64138800 -0.00674798 -0.00577256 -0.00447130
N 11.88636906 1.85028657 15.18076073 0.00482328 0.00231418 -0.00054484
N 8.57327662 1.34686949 17.67226698 0.00722534 -0.00613143 -0.00020427
N 6.94714431 4.19674355 19.65678500 0.00322759 -0.00027580 0.00465111
N 10.05000370 4.91593704 22.79224403 -0.00792043 -0.00394398 0.00339262
N 11.74951453 2.17232866 20.06479941 0.00512807 0.00418926 0.00408018
N 8.20535076 1.31543016 22.51989795 0.00101395 0.00029388 -0.00796453
N 7.09118039 9.70581535 0.93978528 0.00221878 0.00238434 -0.00117685
N 10.78981130 10.66442704 3.83005338 0.00096168 0.00553338 -0.00812371
N 11.87969127 7.77293731 0.92470724 0.00534586 0.00140289 -0.01203288
N 8.92229938 6.85316007 3.72827686 0.00182982 0.00491738 0.00566366
N 6.88626293 9.61718958 5.86162076 0.00577776 0.00122264 0.00120063
N 10.73215926 10.78573808 8.77238980 0.00626408 -0.00021766 0.00405696
N 12.19558627 7.18910817 5.79154359 -0.00459309 -0.00444335 -0.00050198
N 8.85695710 6.96925420 8.45189012 0.00491468 -0.00047930 0.00136739
N 6.54753750 9.79381673 10.35437192 -0.00553598 0.00435563 0.00065311
N 10.39708154 10.29011448 13.08921776 0.00165930 0.00072037 -0.00906916
N 12.17864516 7.51168207 10.62619065 -0.00287412 0.00133544 -0.00033250
N 8.70032687 6.52327727 13.13354564 0.00243381 -0.00054146 0.00001383
N 7.14128498 9.65403748 14.93781877 0.00502171 0.00093940 -0.00113712
N 10.53567015 10.50911863 17.90283970 -0.00401427 0.00642537 -0.00181388
N 12.18781264 7.56130996 15.27280761 -0.00261033 0.00300756 -0.00155063
N 8.93500295 6.95314381 17.92585565 -0.00441424 -0.00425033 0.00468371
N 7.04786533 9.33467912 19.98600730 -0.00038582 -0.00233623 -0.00274162
N 10.99115674 10.75059346 22.82546053 -0.00824477 -0.00649870 -0.00213312
N 12.29230548 7.63288632 19.85444499 -0.00094507 -0.00370276 -0.00142611
N 9.38121217 7.04459608 22.72571327 -0.00313551 0.00553988 -0.00162925
N 8.05908160 14.98940481 1.14393454 0.00043141 0.00603716 -0.00444490
N 10.39293148 17.54539782 3.71141859 -0.00458384 0.00408951 0.00063002
N 11.42205359 13.93982546 1.41100344 -0.00413977 0.00306811 -0.00214128
N 9.00530540 12.09808000 3.94432097 0.00229610 -0.00331887 -0.00294184
N 7.51714534 15.16535714 5.71849324 -0.00469126 -0.00445749 -0.01117808
N 10.24389713 17.32055001 8.32994671 -0.00695844 -0.00023440 -0.00543632
N 11.61116734 14.34670632 5.83228852 -0.00077750 0.00377140 0.00041141
N 9.11148440 12.29938030 8.44152504 0.00626977 0.00400995 -0.00332585
N 7.63348608 15.36563979 10.43897424 -0.00435824 0.00170479 -0.00401031
N 10.31166301 17.22790171 13.28078888 -0.00169626 -0.00564306 0.01136861
N 11.63158365 14.40653528 10.60078291 -0.00191159 0.00006721 0.00041506
N 9.19893459 12.29104072 13.22686000 -0.00119922 0.00872463 0.00072151
N 7.42360772 15.39870192 15.24125180 -0.00043188 0.00543758 -0.00229113
N 10.39744181 17.48266853 18.01193216 -0.00253561 0.00068143 -0.00926496
N 11.47754743 14.20104343 15.10365454 -0.00225395 0.00233747 -0.00097043
N 8.79367083 11.98029024 17.99880193 -0.00131153 0.00753259 -0.00314650
N 7.74795687 15.31361825 20.08238051 0.00524969 -0.00030532 0.00874848
N 10.15923454 17.25073207 22.61767452 -0.00392658 -0.00015488 -0.00202718
N 11.54608363 13.98220742 19.76301197 0.00257143 0.00155585 0.00206106
N 8.97073735 11.84879349 22.83705511 0.00229156 0.00163222 0.00126215
N 7.12131067 21.75661727 0.99688341 -0.00391347 -0.00221311 -0.00173999
N 9.60866769 23.94753792 3.76697439 -0.00361336 -0.00675472 -0.00335078
N 11.26101346 20.57712395 0.89403180 0.00400764 0.00606748 0.00592581
N 8.17326006 18.28822550 3.79996036 -0.00228906 0.00279664 -0.00527055
N 7.02429163 21.60339854 5.75760727 -0.00413686 0.00043810 -0.00327932