2000
Time=42000.00000002 pbc="T T T" Lattice="31.11218892 0.00000000 0.00000000 0.00000000 30.01498580 0.00000000 0.00000000 0.00000000 23.62353925" energy=-12042.76137567 virial="-28.22688984 -25.13849641 36.96867592 -25.13849641 -29.14578803 -32.71439744 36.96867592 -32.71439744 -7.62977077" stress="0.00075924 -0.00113993 0.00161675 -0.00113993 0.00087612 -0.00159127 0.00161675 -0.00159127 0.00250240" Properties=species:S:1:pos:R:3:vel:R:3
C 30.70668317 3.95729567 1.65476191 -0.00447725 0.00408351 0.00208098
C 2.57311900 0.56730384 3.03611431 0.00220945 0.00020834 -0.00362169
C 30.63908392 3.52240639 6.52651972 0.00128747 -0.00723727 0.00256003
C 2.52911897 0.54011840 7.68868505 0.00160678 -0.00578097 0.00364476
C 30.45828423 3.45029290 11.01837994 0.00088264 0.00352696 0.00103495
C 2.64908854 0.54730232 12.30770386 0.00029881 -0.00389995 0.00453567
C 30.70083454 3.65577728 15.80095232 0.00247882 -0.00027292 -0.00138718
C 2.60097274 0.56437621 16.93767987 -0.00035461 0.00139834 0.00167935
C 30.49013601 3.66306180 20.38156836 -0.00422040 0.00077770 0.00017203
C 2.61249573 0.58785087 21.76513818 0.00093556 -0.00312344 -0.00496996
C 30.93457130 9.32787286 1.77757912 0.00357430 -0.00235457 -0.00264083
C 2.96563407 6.15658146 3.08956653 -0.00422765 0.00242370 0.00299796
C 30.87455610 9.05547614 6.41454820 0.00386484 0.00517966 -0.00559658
C 2.68054121 6.25236882 7.74437701 -0.00132550 -0.00834871 0.00221882
C 30.80099939 9.12997445 11.24579375 -0.00128762 0.00221707 -0.00779905
C 2.92729705 6.31011955 12.48981441 0.00101459 0.00002366 -0.00022335
C 30.98065014 9.54719175 15.77201347 0.00400752 -0.00209345 -0.00296223
C 2.89248322 6.16131789 17.18287439 -0.00196349 0.00402171 -0.00409705
C 31.09146030 9.09784421 20.49359950 -0.00026992 0.00117803 -0.00023374
C 3.10045957 6.28845255 21.81311559 0.00395204 -0.00010113 -0.00518542
C 0.10923543 14.91696315 1.50995237 0.00676241 0.00437591 -0.00690620
C 3.28710816 11.86457269 3.14528739 0.00045731 0.00407249 0.00503988
C 0.07930777 14.65924946 6.33086788 -0.00564155 0.00157868 0.00037583
C 3.20869718 11.57588521 7.73208392 -0.00217750 0.00069038 0.00413158
C 31.05600620 14.94543781 11.11444243 0.00318215 0.00124074 0.00163815
C 3.38759889 12.11142458 12.35514096 -0.00358184 0.00598349 0.00194813
C 31.07557040 14.79324568 15.92413935 0.00234512 -0.00362821 0.00663685
C 3.24698260 11.90020592 17.02773438 0.00309717 0.00207462 0.00031183
C 0.22875997 14.74055211 20.57685980 -0.00398745 0.00172542 -0.00121135
C 3.24186288 11.89329467 21.78837689 0.00582655 -0.00291163 -0.00166772
C 0.56018450 20.61024254 1.64524217 0.00019927 0.00006725 0.00720582
C 3.81074026 17.30827391 2.96022531 -0.00491469 0.00159692 0.00400840
C 0.66057494 20.41850586 6.40712388 0.00187223 -0.00379146 0.00005559
C 3.89718731 17.44296015 7.79799745 0.00764176 0.00301765 0.00038082
C 0.61834352 20.29279443 11.16116786 -0.00804982 0.00064726 -0.00147160
C 3.72863992 17.45222148 12.68995778 0.00368891 -0.00069772 -0.00302547
C 0.44271951 20.50779825 15.90554181 0.00249375 -0.00148616 -0.00208205
C 3.55138963 17.37719739 17.16981037 0.00207418 -0.00136277 -0.00270175
C 0.53239222 20.40571709 20.55273820 -0.00073636 -0.01493956 0.00429751
C 3.59354961 17.44386303 21.76871532 -0.00206409 0.00065501 0.00069772
C 0.29582770 27.24278222 1.55506026 0.00277781 0.00491746 0.00372129
C 3.04198015 24.04094175 2.75453634 0.00278833 -0.00702160 -0.00295087
C 30.91801490 27.14692840 6.21956895 -0.00656039 -0.00060377 -0.00069784
C 3.15348772 24.13433809 7.63366235 0.00096451 -0.00497034 -0.00067106
C 0.00016926 26.91292533 10.99474357 0.00325833 -0.00385220 0.00338882
C 3.24842508 24.01010782 12.50400142 0.00502043 0.00048223 0.00517586
C 31.08340061 27.11728497 15.71544033 -0.00645602 -0.00976776 0.00524484
C 3.09282296 24.27445383 17.10862059 -0.00072370 -0.00130732 -0.00161773
C 31.07429965 26.98997219 20.35405937 -0.00265720 -0.00031299 -0.00116096
C 2.92877216 24.06900831 21.78432087 -0.00133290 -0.00875124 0.00235239
C 6.07685330 3.25359791 1.75922431 0.00777096 -0.00734345 0.00095332
C 9.22343033 0.21165522 3.16529323 -0.00442936 0.00298352 0.00337267
C 6.12403613 3.54609340 6.44802083 0.00064040 -0.00402695 0.01019890
C 9.12206790 0.49737624 7.88727250 0.00165934 -0.00397439 0.00303517
C 6.04494990 3.40121555 11.12518536 0.00838926 0.00024273 0.00437331
C 9.19387143 0.21946275 12.48995413 -0.00109181 -0.00126867 0.00182897
C 6.02365379 3.42512149 16.01153273 0.00264469 0.00083650 -0.00090633
C 8.80038478 0.03820611 17.35347689 -0.00402313 0.00207112 0.00011722
C 6.00766928 3.43807716 20.57720280 0.00074698 0.00240431 0.00279878
C 9.12666015 30.00338372 22.01635022 0.00124565 0.00843951 0.00337242
C 6.34675862 9.17126100 1.61109225 0.00738892 -0.00555924 0.00517669
C 9.47843309 5.92583637 3.07943775 -0.00075123 -0.00060201 -0.00232527
C 6.56686093 8.90232308 6.44181045 -0.00393531 -0.00289932 -0.00292892
C 9.55524862 6.00861381 7.72690650 0.00022841 0.00167740 -0.00067951
C 6.20248450 8.88939974 11.19313801 0.00051290 0.00442138 0.00629932
C 9.80100977 5.70778585 12.47891495 -0.00114930 0.00232306 0.00308206
C 6.61341245 8.88424423 16.01548711 0.00099863 -0.00446628 0.00128845
C 9.50888274 5.63067123 17.27960857 -0.00385668 -0.00044164 -0.00192557
C 6.47591112 8.65598702 20.63498810 -0.00353243 0.00240200 0.00412101
C 9.92166739 5.89713439 22.08769083 -0.00550450 0.00266798 0.00558223
C 6.76519081 14.50301970 1.73576256 -0.00363331 -0.01140865 0.00358709
C 9.95261482 11.30349685 2.98529308 0.00050912 0.00312551 0.00080075
C 6.65806803 14.36379463 6.33357399 0.00049296 -0.00301006 -0.00752246
C 9.95308623 11.62095581 7.70323155 -0.00226272 0.00579610 -0.00121915
C 6.89967383 14.53297051 11.27597514 0.00079835 0.00359086 0.00193304
C 10.00632764 11.36627998 12.42224433 0.00253358 -0.00207755 0.00044964
C 7.10227297 14.39140164 15.97592189 0.00271322 0.00687191 0.00393083
C 9.96859131 11.45768900 17.24417924 -0.00254825 -0.00776587 0.00125346
C 6.74751191 14.39147486 20.53075961 0.00052625 0.00424804 0.00226831
C 9.94045083 11.63351757 21.84400250 0.00025683 -0.00167675 -0.00119467
C 5.95313011 21.06002612 1.48863680 -0.00049814 0.00109954 0.00000947
C 9.17376777 18.05235135 3.01252090 0.00226780 -0.00870371 -0.00079407
C 6.12626075 20.86489228 6.30847519 -0.00332442 0.00127284 -0.00089708
C 9.30025369 18.00794083 7.64726549 0.00389356 -0.00517240 -0.00245884
C 6.39998146 20.81485479 11.04582755 -0.00495867 0.00369599 0.00007733
C 9.22005850 17.96158451 12.45254834 0.00287699 0.00093311 0.00140270
C 6.44676162 20.92541734 15.77332969 -0.00340723 0.00375384 -0.00513315
C 9.36157477 17.89762989 16.95470259 -0.00124159 -0.00326210 -0.00155616
C 6.14549066 20.98800133 20.38951639 0.00552488 0.00293566 0.00048949
C 9.38120707 18.19451072 22.04527161 -0.00017297 -0.00034881 -0.00644974
C 5.58964198 27.70633870 1.49396589 -0.00143421 -0.00053601 -0.00085676
C 8.97069310 24.70759831 3.13612918 0.00017669 0.00346208 0.00257417
C 5.62782233 27.65042361 6.32685285 -0.00012237 0.01166772 0.00672300
C 8.71494829 24.51919090 7.72851007 -0.00117240 0.00353463 0.00162549
C 5.87756072 27.58728555 11.03685348 -0.00119175 0.00194490 -0.00232233
C 8.74417033 24.56990219 12.35181206 0.00325613 0.00031265 0.00506440
C 5.53131841 27.54446700 15.78241034 0.00009998 0.00258063 0.00653374
C 8.55839729 24.61488870 17.17809254 0.00397870 -0.00306861 -0.00178513
C 5.49424906 27.79609631 20.55700699 -0.00107706 -0.00008171 -0.00811844
C 8.92111045 24.34287960 21.94121560 -0.00164850 0.00015357 0.00048044
C 12.17911662 2.43665100 1.77716990 0.00503301 -0.00798391 0.00204150
C 15.78757695 29.77124649 3.03595971 0.00527258 0.00293780 -0.00369499
C 12.56934901 2.96706650 6.39554616 -0.00762157 0.00265309 -0.00301209
C 15.68221121 29.73964884 7.74087545 0.00169968 0.00382587 0.00018723
C 12.70670313 2.83406343 11.29006730 0.00498328 -0.00105316 0.00056679
C 15.83706308 29.83895004 12.41219562 0.00261216 0.00100654 0.00392616
C 12.36042788 2.50152373 16.18656795 -0.00597558 0.00281727 0.00190294
C 15.56070796 29.62800031 17.31088913 0.00508056 0.00132358 0.00845481
C 12.45206737 2.39295354 20.81189808 -0.00272990 0.00526567 0.00020332
C 15.80274982 29.54100290 22.03765868 0.00806920 -0.00031702 0.00226044
C 13.16564678 8.47844606 1.84932685 -0.00279343 0.00117234 0.00023605
C 15.98250570 5.43179969 3.13561018 -0.00659600 -0.00057050 0.00228839
C 13.17807652 8.65020607 6.48211065 -0.00277921 0.01130888 0.00036090
C 16.20173946 5.30144508 7.81311902 -0.00031091 -0.00222219 0.00077397
C 13.33428044 8.45538032 11.07731198 0.00381885 -0.00428590 -0.00269644
C 16.07531578 5.42598235 12.46923053 -0.00251241 -0.00150391 -0.00104860
C 13.16451008 8.25680112 15.84562835 0.00305028 -0.00140709 0.00862734
C 15.79587352 5.00981876 17.49226474 -0.00411807 -0.00159678 -0.00189168
C 13.12640260 8.08763729 20.47936165 -0.00349857 0.00094895 -0.00231333
C 15.72689314 5.10464225 22.12500200 -0.00193769 0.00444639 0.00838818
C 12.32651800 15.18711802 1.72498083 0.00473542 -0.00468284 -0.00343497
C 15.47951596 11.82426770 3.08571496 -0.00256200 0.00290490 -0.00351677
C 12.35221906 15.05270429 6.50975836 -0.00506351 -0.00583368 0.00078425
C 15.57035473 11.95742920 7.88775333 -0.00436352 -0.00065212 -0.00419242
C 12.45620189 14.91400545 11.44281723 -0.00226884 -0.00180891 -0.00228274
C 15.61693182 11.91931396 12.60078033 -0.00369981 0.00308508 -0.00039232
C 12.29556987 15.18096095 15.91315167 -0.00341847 -0.00216233 -0.00196585
C 15.21787665 12.05043350 17.26519785 -0.00230094 -0.00070552 -0.00311241
C 12.52098271 15.05304633 20.68513480 0.00341943 -0.00514525 -0.00355182
C 15.38022418 11.78272070 21.97617015 -0.00753522 -0.00032645 0.00505307
C 11.73953911 21.64826036 1.69423986 -0.00435825 0.00165108 -0.00210704
C 14.74168726 18.52478808 2.81136890 -0.00029416 -0.00315703 -0.00550615
C 11.84053245 21.61935431 6.39865933 -0.00110657 0.00368302 -0.00643156
C 15.21084637 18.89738770 7.50923617 -0.00241973 -0.00426325 -0.00527978
C 12.07709285 21.53580219 11.04255104 -0.00510998 -0.00200430 -0.00273876
C 14.82767113 18.43318901 12.36842277 -0.00080806 0.00118089 0.00251075
C 11.59162291 21.53281521 15.90297372 0.00319352 -0.00432009 -0.00195725
C 14.98559756 18.53936213 17.16125459 -0.00215656 -0.00213128 0.00201420
C 11.85752714 21.42395540 20.57585348 0.00093603 0.01116006 -0.00333872
C 15.03774953 18.52750214 21.86551619 -0.00312740 -0.00214955 0.00180444
C 12.17609339 26.99888940 1.84687500 0.00091108 0.00516769 0.00439624
C 15.68308095 24.22700123 2.84327863 0.00314705 0.00483408 0.00512646
C 12.39726109 27.20561306 6.44841164 -0.00270571 0.00352838 -0.00323594
C 15.46549484 24.31200326 7.56009269 -0.00417864 0.00168494 0.00322121
C 12.29953259 27.18409598 10.99355624 0.00358102 0.00222884 -0.00229413
C 15.49063347 24.18965449 12.35960939 0.00183790 0.00566104 -0.00651208
C 12.14614579 27.30542717 15.87439849 -0.00347560 0.00139609 -0.00165593
C 15.12402480 23.94921948 17.10852248 0.00100325 0.00590555 0.00590776
C 12.28051487 26.90735529 20.52073239 0.00559206 0.00222290 0.00443056
C 15.44098565 24.01060334 21.82512105 0.00009063 0.00137462 -0.00305746
C 19.08220033 2.20192048 1.72152323 0.00300787 0.00147351 -0.00915179
C 22.21335931 29.42296527 3.15742482 -0.00331252 -0.00096227 0.00442581
C 19.35011305 2.47638239 6.44506186 -0.00314194 0.00616713 0.00050400
C 22.39960837 29.41932042 7.63390360 0.00907860 -0.00230522 0.00378232
C 19.27711562 2.25867519 11.20289499 0.00021273 -0.00422384 0.00502983
C 22.61769598 29.70783938 12.44367993 0.00222251 -0.00282366 0.00765839
C 19.46502246 2.37303404 15.82172174 -0.00280677 -0.00100678 -0.00037771
C 22.25454311 29.37422789 17.33632194 0.00767262 -0.00557212 0.00029342
C 19.28372559 2.30100503 20.70310903 0.00794697 0.00508148 0.00422871
C 22.52929719 29.46508583 21.96371901 -0.00163835 -0.00139331 -0.00370836
C 18.64780190 8.76501992 1.69253029 0.00243070 -0.00247605 0.00181078
C 21.93708007 5.90220290 3.10017432 0.00021729 -0.00304956 -0.00446221
C 18.89648205 8.89030596 6.40935818 0.00211604 0.00387636 -0.00187733
C 21.84524419 6.25010076 7.94335917 0.00512862 0.00028176 -0.00286157
C 18.62860095 9.17238466 11.38861271 0.00258472 -0.00102777 -0.00431323
C 21.66633113 6.04399260 12.65567543 0.00450037 -0.00316212 0.00020394
C 18.71083440 9.18143546 15.98892443 -0.00253412 -0.00550634 -0.00680725
C 21.72454956 5.91541686 17.33863435 0.00586333 0.00175900 0.00190297
C 18.67834346 9.03675828 20.63570872 -0.00471604 -0.00210437 0.00029922
C 21.49399103 6.06800596 21.98891588 0.00145113 -0.00351422 0.00112044
C 18.13225738 15.71949797 1.73241540 0.00080887 0.00098464 -0.00155532
C 21.34874440 12.52551730 3.02750658 -0.00412651 -0.00158482 -0.00073162
C 18.11511026 15.66076445 6.45000747 0.00541241 0.00068760 0.00113557
C 21.27004706 12.46890276 7.66596305 0.00026532 -0.00179817 -0.00159194
C 18.06725185 15.78875026 11.14823001 0.00453482 0.00242383 0.00294229
C 21.22173118 12.52502537 12.38306967 -0.00407698 -0.00158200 -0.00496467
C 18.02142146 15.60118847 15.87081381 -0.00014024 -0.00448651 0.00482455
C 21.18111740 12.58170511 17.20825347 0.00127202 -0.00155056 -0.00211894
C 18.17688554 15.53697673 20.61232715 -0.00248022 -0.00479308 0.00077847
C 20.83865339 12.49365113 21.88367982 0.00592405 0.00134857 0.00400772
C 18.62756804 21.24482113 1.78331110 0.00377157 0.00190681 -0.00211268
C 21.81817502 18.17457801 3.09704042 -0.00126133 -0.00138945 -0.00105277
C 18.60584995 21.04652834 6.49442299 0.00802506 0.00183139 0.00310055
C 21.61317158 18.23581402 7.80223519 -0.00372761 -0.00254122 -0.00222151
C 18.40707951 21.22446995 11.06498675 -0.00199080 0.00170668 0.00472239
C 21.41407530 18.17060844 12.54342775 0.00651949 -0.00891480 0.00654801
C 18.47836187 20.98872517 15.93278978 0.00521120 0.00430275 -0.00128112
C 21.45295552 18.08375678 17.25396809 -0.00187157 0.00174763 -0.00211252
C 18.65025328 21.12831070 20.70327484 0.00015386 0.00287338 -0.00133017
C 21.65994732 18.19267436 21.92837109 0.00292159 0.00008572 -0.00028236
C 19.16598312 26.79838069 1.82183019 0.00248983 0.00668656 0.00029769
C 22.11319775 23.92851110 3.22244103 -0.00375299 0.00493540 0.00652660
C 18.61347895 26.43801162 6.55263222 -0.00480167 -0.00096291 0.00189521
C 22.20993579 23.96513414 7.84602073 0.00160723 0.00609612 -0.00397254
C 19.05986849 27.01653478 11.16373271 -0.00512960 0.00168454 -0.00224427
C 21.99935571 23.81407833 12.41349003 -0.00471208 -0.00148447 -0.00205772
C 18.80448333 26.89638631 15.96406501 -0.00270363 -0.00374816 -0.00480217
C 21.84360056 23.84828288 17.09168507 0.00109193 -0.00807117 -0.00383299
C 18.95127396 26.46180250 20.62902067 -0.00426027 0.00547445 -0.00004092
C 22.09187409 23.99256438 21.83986328 -0.00610563 -0.00077698 -0.00568239
C 24.74422131 3.11908702 1.75259848 0.00013967 -0.00689915 -0.00377163
C 28.16765115 0.35009832 2.95984504 -0.00006847 0.00422601 -0.00056980
C 24.71223066 2.83223635 6.43373695 -0.00011370 0.00358129 0.00655895
C 27.81203638 29.97306078 7.75616504 0.00238492 0.00315446 -0.00981391
C 24.81848725 2.98855652 11.21898901 0.00039161 0.00098944 -0.00196754
C 28.18474597 0.00955184 12.42233238 0.00616719 -0.00428677 0.00068261
C 24.81866293 3.08360321 15.82982695 -0.00890629 -0.00099876 0.00493059
C 27.92086718 0.07619960 17.18822528 0.00650292 0.00048476 0.00164486
C 24.71539232 3.19296131 20.73247177 -0.00555982 -0.00699594 0.00665199
C 28.06803234 0.17856795 21.91637096 0.00430323 -0.00784810 -0.00346884
C 24.30773054 9.74203710 1.63896727 0.00316470 0.00111383 -0.00079702
C 27.47758023 6.63607759 2.87329073 -0.00097210 0.00570409 -0.00191127
C 24.18000981 9.55161692 6.49999371 -0.00347602 0.00507085 0.00035718
C 27.31649056 6.36233336 7.74205766 0.00033942 -0.00021951 0.00729478
C 24.25438779 9.58736284 11.17201756 -0.00238691 -0.00489831 -0.00426867
C 27.58962995 6.35517587 12.48531552 -0.00254058 0.00277207 0.00383903
C 24.26742188 9.63906253 15.88216886 -0.00164668 0.00143339 -0.00256838
C 27.55659149 6.59181211 17.01588310 0.00313868 -0.00744568 -0.00184943
C 23.89803064 9.70301054 20.47073275 -0.00063599 0.00349339 -0.00436653
C 27.47304185 6.54425676 21.91416105 -0.00558850 -0.00577545 -0.00674187
C 24.90948238 15.19810700 1.92505949 0.00112894 -0.00819854 -0.00653125
C 27.80349348 12.42354219 2.89792129 -0.00354613 -0.00132898 0.00525031
C 24.66823963 14.99964125 6.58106201 -0.00217521 0.00001450 -0.00658172
C 27.74829961 12.18004569 7.65447315 -0.00560473 -0.00465328 -0.00161022
C 24.72271263 15.11617175 11.26172687 0.00748954 -0.00552394 0.00439945
C 27.78998676 12.22287567 12.42900106 0.00337819 -0.00061220 0.00097084
C 24.63833662 15.45874407 15.97773435 -0.00279580 0.00109271 0.00332482
C 27.50181476 12.24203166 17.23856483 0.00063447 0.00332834 -0.00289074
C 24.75580723 15.19622829 20.73933286 -0.00167018 -0.00022177 0.00016169
C 27.70714912 11.96173233 21.85867182 0.00298685 0.00596426 -0.00369679
C 25.09360402 21.01156687 1.89960535 0.00073280 0.00579218 -0.00010543
C 28.29041753 17.94053840 3.09498038 -0.00353899 -0.00044606 0.00771555
C 25.19758899 20.72686103 6.40756321 -0.00411607 0.00630424 -0.00408670
C 28.19525114 17.81382147 7.78252357 -0.00083070 -0.00323778 0.00006372
C 25.18185490 20.98351276 11.27090722 -0.00569441 -0.00020419 -0.00225436
C 28.01003014 17.74959803 12.43846090 0.00635582 -0.00422106 -0.00649108
C 25.30224160 20.79789556 16.11101842 -0.00044432 -0.00007791 0.00087887
C 27.96977713 17.78083638 17.37280261 0.00193184 -0.00096934 -0.00417161
C 24.93548324 20.79840869 20.66989334 -0.00511716 0.00660838 0.00753727
C 28.31707001 17.87608085 21.91146873 -0.00212546 -0.00117098 -0.00039520
C 25.73029198 26.52086952 1.74713222 -0.00270577 -0.01291719 0.00100176
C 28.75549719 23.50170191 2.80432582 -0.00514876 0.00580026 0.00525144
C 25.58889518 26.39573710 6.56558886 -0.00138569 0.00596585 -0.00287498
C 28.47002966 23.32707995 7.50603700 -0.00858503 0.00152064 -0.00052953
C 25.62680651 26.41520006 11.20520272 0.00502575 -0.01181652 -0.00206262
C 28.51724155 23.35737113 12.41067158 -0.00861590 -0.00944581 -0.00026471
C 25.33322168 26.49363130 15.89913857 0.00321651 0.00204766 0.00273284
C 28.60663512 23.31971588 17.25247511 -0.00022547 0.00220153 -0.00426018
C 25.65281292 26.44686546 20.60340104 -0.00209297 0.00501325 0.00174938
C 28.77593835 23.59683816 21.85597407 -0.01042879 0.00177998 -0.00132766
N 0.33320442 4.73992169 0.83690927 -0.00170224 0.00090786 -0.00035743
N 3.60519816 5.31434216 3.91529549 -0.00621149 0.00035021 0.00042072
N 5.27015843 2.36858298 1.05834979 0.00007070 0.00562047 -0.00153963
N 1.68469799 1.46932840 3.56130082 0.00397478 -0.00379414 -0.00017259
N 0.38352422 4.29865868 5.80496184 -0.00280020 -0.00136684 0.00075966
N 3.17468212 5.26225502 8.47216725 0.00179398 -0.00442624 0.00170789
N 5.32812980 2.69513481 5.79609539 -0.00637555 0.00472218 -0.00029910
N 1.73081174 1.21633222 8.54477576 0.00514261 0.00038265 -0.00131409
N 31.08752761 4.51031824 10.43733715 -0.00126178 -0.00043571 -0.00150832
N 3.63688156 5.33319234 13.16290196 -0.00224785 -0.00450148 -0.00357572
N 5.24014517 2.57768330 10.35037259 -0.00034448 0.00155735 0.00623754
N 1.57835327 1.13989748 12.91931336 -0.00409262 -0.00345728 0.00105387
N 0.14516651 4.61118142 15.08451085 -0.00224434 -0.00679967 0.00362881
N 3.56154441 5.11953668 17.67993665 0.00219012 0.00050498 -0.00439717
N 5.14895551 2.57552768 15.41400705 0.00103691 -0.00137689 -0.00252288
N 1.90696762 1.40146939 17.67676036 -0.00305311 -0.00024174 0.00470470
N 0.27031505 4.39930515 19.71420014 -0.00611299 0.00222381 0.00147377
N 3.66563305 5.41891336 22.69869217 -0.00553222 0.00322297 0.00232914
N 5.21957844 2.70366795 19.78303169 0.00315972 0.00098896 -0.00228794
N 1.77601611 1.32537465 22.60596364 0.00216010 0.00327710 -0.00009944
N 0.63592303 10.08525142 1.05746791 -0.00026351 0.00094680 0.00279137
N 3.93092968 10.78541522 3.73619027 -0.00304476 -0.00292635 -0.00337448
N 5.50917452 8.17796051 1.16847940 0.00081644 -0.00210583 0.00045780
N 2.29476474 7.16195123 3.76844847 0.00835439 0.00614225 -0.00684183
N 0.55065388 9.80760619 5.62785650 -0.00703657 -0.00130288 -0.00221472
N 3.74702379 10.56175231 8.43417256 0.00478544 -0.00724609 0.00422943
N 5.91787121 8.05498230 5.60440025 0.00360677 0.00132020 -0.00776299
N 2.07121856 7.21208519 8.43620982 0.00054974 0.00285400 0.00023098
N 0.48230156 9.94516229 10.42499688 0.00805015 0.00301319 -0.00073796
N 4.16002472 11.26694190 13.12614028 -0.00282884 -0.00132545 0.00023560
N 5.49575442 7.96245270 10.51943162 -0.01185600 0.00544686 -0.00026211
N 2.40660089 7.35206062 13.23617804 0.00370182 0.00221350 -0.00835965
N 0.64874083 10.34281170 15.03495884 -0.00361866 -0.00315368 0.00151362
N 3.92054146 11.10457703 17.87128671 -0.00064239 -0.00059144 -0.00042202
N 5.77241067 8.08647667 15.32019002 0.00167331 -0.00100363 -0.00695257
N 2.22111294 6.97466738 18.03734412 -0.00485371 0.00036604 0.00603433
N 0.60798182 10.11158671 19.78993561 -0.00259318 0.00122412 0.00177961
N 3.54583045 10.88690581 22.63533604 -0.00034364 -0.00035778 0.00943321
N 5.78248100 7.83062078 19.85199082 0.00030014 -0.00160541 0.00233856
N 2.42384722 7.26522527 22.46346769 -0.00126661 0.00190767 0.00240282
N 0.79260135 15.89934505 0.85316521 -0.00172076 -0.00157582 -0.00210830
N 4.39924561 16.39567370 3.76065136 0.00144145 0.00173846 -0.00228603
N 5.84139273 13.70804471 0.98350847 0.00565659 0.00806031 0.00122483
N 2.50998776 12.63535183 3.97704811 0.00141705 -0.00391506 -0.00381015
N 0.84969849 15.55197970 5.61418945 0.00830484 0.00181471 0.00176475
N 4.59295068 16.46122457 8.53619491 0.00916336 0.00644838 0.00213971
N 5.72085961 13.70443601 5.54876947 -0.00681041 -0.00229595 -0.00326753
N 2.57437761 12.57626893 8.36295105 -0.00339679 0.00399998 -0.00449506
N 0.86749467 15.77118428 10.56591337 0.00104190 0.00768003 -0.00413139
N 4.65640275 16.80907483 13.40271763 0.00002143 -0.00030361 0.00515060
N 6.20222720 13.59071023 10.58772966 -0.00110256 0.00008547 0.00397159
N 2.73948824 13.16034988 13.02084145 0.00029706 -0.00451231 -0.00630807
N 0.76148326 15.67091857 15.28709010 -0.00251979 0.00144362 -0.00078555
N 4.42799205 16.80622765 18.01875328 -0.00008983 0.00508768 0.00216009
N 6.28045182 13.51463635 15.30492064 -0.00276372 -0.00805463 -0.00291313
N 2.64652892 13.01368093 17.61588485 -0.00687812 0.00124647 -0.00430453
N 0.97905771 15.67466371 19.84599068 0.00099616 -0.00049610 -0.00086198
N 4.50536373 16.75122694 22.47908166 -0.00646618 0.00332249 -0.00015847
N 5.99419157 13.51015840 19.83483799 -0.00102165 0.00010864 -0.00223328
N 2.84746432 12.97365265 22.45322169 0.00278308 -0.00114671 -0.00118052
N 1.44077130 21.32596585 0.80782354 -0.00499930 -0.00240274 -0.00401094
N 3.91370625 23.40139580 3.60270789 -0.00274472 -0.00152232 0.01144189
N 5.08521048 20.22874411 0.83893026 0.00156796 -0.00445304 -0.00167910
N 2.89293515 18.14010951 3.55155714 -0.00404748 0.00028034 -0.00068468
N 1.39386557 21.35549618 5.78726737 -0.00303934 0.00501548 0.00106652
N 3.86347451 23.21215932 8.37820335 -0.00030752 -0.00439528 0.00195796
N 5.21207999 20.12730245 5.65722415 -0.00310391 0.00229771 -0.00519544
N 2.89675391 18.08362624 8.47010804 -0.00301799 -0.00628200 -0.00202101
N 1.22085110 21.24659037 10.36868063 0.00031975 0.00453126 -0.00105001
N 4.26337598 23.37439492 13.25758301 -0.00559327 0.00020641 -0.00052001
N 5.41857873 20.07998739 10.50614123 0.00157474 -0.00992755 -0.00045217
N 2.90666299 18.24530138 13.44651908 0.00336946 0.00457515 0.00298098
N 1.38241559 21.03588836 15.15639868 0.00492243 -0.00320475 0.00175552
N 4.02618305 23.62744703 17.82850917 0.00365047 -0.00181627 -0.00223765
N 5.56449250 20.18481168 15.03088291 -0.00036856 0.00529455 -0.00274942
N 2.74396937 18.30049978 17.79555128 -0.00176288 0.00627555 -0.00152034
N 1.48678971 21.22055073 19.96234499 0.00685653 -0.00218880 0.00406435
N 4.01771072 23.56930821 22.40190294 -0.00182343 -0.00116619 0.00026859
N 5.34489180 20.21338125 19.69949436 -0.00042712 0.00107555 0.00066916
N 2.87479769 18.43187005 22.39973407 0.00393783 0.00431759 -0.00377584
N 1.14306634 27.77772621 0.71814401 -0.00489082 0.00086537 0.00422068
N 3.23136875 29.76285156 3.87906486 0.00115550 -0.00181921 -0.00341797
N 4.94998447 26.82825208 0.79243573 0.00177465 0.00356239 0.00073377
N 2.09312350 24.82312834 3.47480042 0.00527363 -0.00369195 -0.00616185
N 0.80085880 27.86456056 5.68736405 0.00010210 -0.00807116 0.00591036
N 3.55912688 29.82878897 8.24453632 -0.00596412 0.00206796 0.00165187
N 5.00708756 26.87014623 5.41863498 -0.00781958 -0.00339140 -0.00440208
N 2.24257610 24.80180342 8.36144608 0.00435913 0.00887937 -0.00168267
N 0.86568325 27.75549505 10.38890987 0.00281850 0.00512137 -0.00128310
N 3.53699764 29.87384671 13.08592453 0.00848623 0.00364298 0.00074353
N 4.92585019 26.81279522 10.46673305 0.00228182 0.00335265 -0.00301800
N 2.24925937 24.60908552 13.16775195 -0.00465481 0.00037383 -0.00170584
N 0.96298488 27.69004201 14.99819020 0.00669296 -0.00092571 -0.00229933
N 3.38289316 29.70319732 17.68154095 -0.00090368 0.00393876 -0.00611997
N 4.76635269 26.85626444 14.92144140 -0.00304256 0.00091510 -0.00433643
N 2.04953656 24.82545101 17.83056675 0.00074438 0.00501248 -0.00163648
N 0.74702899 27.86865955 19.69801708 -0.00282908 -0.00328115 0.00956459
N 3.65651224 29.87829877 22.24869535 -0.00401569 0.00464337 0.00390156
N 4.69910840 26.86519200 19.93853541 0.00544465 0.00544814 0.00272941
N 2.02677526 24.78262499 22.49059013 0.00094279 0.00263338 0.00009233
N 6.62308934 4.28547556 1.07448694 -0.00099501 0.00072708 -0.00327139
N 9.96077957 4.80229611 3.65807264 0.00448010 0.00831838 -0.00131066
N 11.61704279 1.46812938 1.02334576 0.00116393 0.00375552 -0.00150444
N 8.62396322 1.27893080 3.76143793 -0.00004328 -0.00529649 -0.00330670
N 7.05472011 4.21637120 5.69540189 -0.00351783 -0.00018899 -0.00372141
N 10.22410246 5.02124409 8.28140101 0.00394915 -0.00258126 0.00070193
N 12.00640993 1.91471881 5.77929594 -0.00098296 -0.00504855 -0.00056668
N 8.54863552 1.48976421 8.59694094 0.00270080 0.00550416 0.00158534
N 6.76092703 4.23358373 10.34688263 0.00060410 0.00565105 0.00098836
N 10.51544754 4.88909737 13.26404533 0.00754477 0.00285166 -0.00055521
N 11.94065343 1.94832629 10.52151507 -0.00174702 -0.00184513 -0.00093422
N 8.60333424 1.29261757 13.24172997 -0.00161408 0.01209421 -0.00325706
N 6.71353469 4.23954863 15.20808669 -0.00813080 -0.00083532 -0.00130538
N 10.11391769 4.72725154 18.04259613 0.00032981 0.00014058 0.00120266
N 11.69435149 1.65545548 15.38077097 0.00269124 0.00220190 -0.00458497
N 8.36716032 1.11200889 18.07457916 -0.00194960 -0.00224895 0.00668750
N 6.90092075 4.33032999 19.87035051 0.00991872 0.00203120 -0.00092384
N 10.48575837 4.97136957 22.94336092 0.00410257 -0.00077142 -0.00072457
N 11.75860093 1.51526020 20.02054339 -0.00183986 0.00428065 0.00046179
N 8.60736413 1.03345771 22.80199047 0.00408883 -0.00386711 0.00134349
N 7.15409040 9.82183065 0.74318000 -0.00300598 -0.00041119 0.00543692
N 10.91202651 10.72993082 3.73886656 -0.00293724 -0.00018878 -0.00533651
N 12.25985902 7.79404721 1.09793773 -0.00079820 0.00011865 0.00428153
N 9.17109198 7.02215450 3.83722985 -0.00407549 0.00482494 -0.00606736
N 7.32671241 9.90993054 5.87623777 0.00485497 -0.00351513 -0.00077721
N 10.88033484 10.85076352 8.37891149 0.00163619 -0.00242798 -0.00079449
N 12.22412445 7.99660302 5.72909773 0.00461526 -0.00306616 0.01229847
N 8.95430406 6.91638526 8.54503571 -0.00025642 0.00148744 -0.00293713
N 7.00547606 9.63233421 10.42584383 0.00201532 0.00044608 0.00400244
N 10.65876894 10.43360724 13.18121009 -0.00250526 -0.00149138 0.00284619
N 12.33344212 7.87780121 10.39617861 0.00057471 0.00485664 -0.00173174
N 9.06727397 6.70167467 13.06171953 -0.00270372 -0.00686608 -0.00065301
N 7.22609689 9.84260317 15.28562720 -0.00154096 -0.00021974 0.00108018
N 10.82176832 10.73373244 17.98883028 -0.00084486 -0.00151463 -0.00048398
N 12.33414607 7.52492271 14.98529594 -0.00001842 0.00866250 -0.00153627
N 9.05113211 6.80677553 17.87547972 -0.00476124 0.00464548 -0.00473136
N 6.92189121 9.82607910 20.07841290 0.00042657 0.00137045 0.00095412
N 10.74889476 10.82201607 22.59104488 0.00149814 -0.00910780 -0.00102286
N 12.37711569 7.26988637 19.71201000 0.00269031 0.00387373 0.00148321
N 9.26850111 6.93550677 22.67689675 0.00653236 0.00376647 -0.00341485
N 7.75416263 15.10889756 0.93324857 0.00586870 0.00124312 0.00150685
N 10.04626119 17.44454562 3.83085199 -0.00472843 -0.00588464 -0.00184536
N 11.60332228 14.28513967 1.03142142 -0.00514700 -0.00362319 -0.00199201
N 8.95217988 12.12416698 3.64017938 -0.00772401 0.00246884 -0.00334487
N 7.53798270 15.07088061 5.61674289 -0.00522209 -0.00368260 0.00525420
N 10.36220657 17.39821838 8.34868353 0.00455734 -0.00858875 -0.00826758
N 11.49551754 14.18900560 5.83796528 -0.00355517 -0.00097854 -0.00050952
N 9.10757991 12.30764431 8.49256447 0.00044365 0.00232662 -0.00546611
N 7.66109072 15.33954495 10.43746052 0.00560578 -0.00192396 -0.00080846
N 10.07887604 17.07221008 13.11446355 -0.00232487 -0.00456907 0.00843110
N 11.55312189 14.26353257 10.60533702 0.00932579 -0.00394986 -0.00454598
N 9.07557326 12.03403784 13.12369624 -0.00389959 -0.00033793 -0.00226639
N 7.60988366 15.37909022 15.21411142 0.00137970 0.00328844 -0.00382841
N 10.45315109 17.55213815 17.70956425 -0.00141948 -0.00318432 0.00232539
N 11.63626515 14.25018711 15.11884236 0.00017224 0.00071147 0.00311970
N 9.20807625 12.35767586 17.94486254 0.00022512 0.00547332 0.00369952
N 7.37011779 15.35827907 19.81730082 0.00158735 0.00748503 0.00137335
N 10.47992834 17.74034213 22.71506294 -0.00364108 0.00503010 -0.00078221
N 11.43313340 14.46672942 20.06475123 -0.00453597 0.00091015 -0.00205907
N 9.02322245 12.30068061 22.57214588 -0.00131409 0.00191339 -0.00393616
N 6.84362403 21.75501364 0.71013453 0.00054545 0.00077061 -0.00003731
N 9.59649074 23.73682913 3.74484982 0.00012800 -0.00043456 -0.00694301
N 10.80851839 20.76971143 1.21787023 -0.00850334 -0.00575262 -0.00153142
N 8.15921878 18.66762837 3.57420714 -0.00643828 0.00100521 0.00324016
N 6.98386067 21.55811843 5.49385681 0.00068613 0.00879542 0.00427032