2000
Time=32000.00000001 pbc="T T T" Lattice="31.10436936 0.00000000 0.00000000 0.00000000 29.96889653 0.00000000 0.00000000 0.00000000 23.70836616" energy=-12040.84740323 virial="-14.33205095 -5.60564403 19.12778012 -5.60564403 -3.31790361 -25.55804738 19.12778012 -25.55804738 -97.68354696" stress="0.00144436 -0.00020733 0.00080174 -0.00020733 0.00184519 -0.00117220 0.00080174 -0.00117220 -0.00178563" Properties=species:S:1:pos:R:3:vel:R:3
C 30.44629309 3.40012451 1.77816938 0.00174159 0.00069172 0.00322241
C 2.60513519 0.74163936 2.90229581 0.00194907 -0.01006668 -0.00256562
C 30.54330081 3.58759918 6.50701201 0.00090739 0.00279024 0.00619259
C 2.87517620 0.82089873 7.74793009 0.00228278 0.00392309 0.00553659
C 30.68243131 3.71612809 11.18008907 -0.00097408 -0.00247998 -0.00480394
C 2.42172527 0.58237287 12.61771613 -0.00363451 -0.00612343 0.00303155
C 30.57268660 3.66114988 15.92171047 -0.00301523 -0.00216096 0.01035527
C 2.37244648 0.50681106 17.39073824 -0.00369082 0.00187657 0.00190342
C 30.53912935 3.72427051 20.68746080 0.00322567 -0.00158879 0.00297208
C 2.31280053 0.73635838 21.89976310 0.01013779 0.00175367 -0.00617920
C 30.71272216 9.38905655 1.93555539 0.00552585 0.00107268 0.00367126
C 2.94974381 6.15405470 3.10160164 0.00512483 -0.00531950 0.00013050
C 30.95764237 9.27121303 6.61802921 0.00449897 -0.00330369 -0.00154268
C 3.06862406 6.23835362 7.97902009 0.00648242 0.00354816 -0.00077373
C 30.81038945 9.32251633 11.13319053 -0.00298450 0.00346214 0.00666643
C 2.59741467 6.28971547 12.66524143 0.00535965 -0.00094605 0.00571803
C 30.94193936 9.23977119 16.09765252 0.00314606 -0.00344546 -0.00003501
C 2.74112626 6.26704705 17.28309274 -0.00289615 -0.00253716 0.00143500
C 30.77648719 9.32422721 20.91784251 0.00247414 0.00637220 0.00140994
C 2.79869490 6.38568181 22.17068803 0.00011440 -0.00153783 -0.00845642
C 0.05703807 14.82764690 1.71832321 -0.00020312 0.00236410 -0.00066022
C 3.41951259 11.94751584 3.10094838 -0.00146083 -0.00804964 0.00694332
C 31.09699429 14.95765743 6.47708761 0.00312418 0.00532510 -0.00036756
C 3.25808941 11.79173513 7.82275762 -0.00340496 0.00670830 0.00899328
C 31.09126498 14.88731533 11.19966081 0.00489626 0.00056985 0.00245879
C 3.37435627 11.93885815 12.50476418 0.00104923 -0.00062796 0.00450432
C 0.10909073 14.62020800 15.77105468 0.00205740 -0.00240653 0.00263580
C 3.26138319 11.76720349 17.30155276 -0.00032278 -0.00505210 -0.00059917
C 0.10280352 14.80258919 20.88674525 -0.00238173 0.00281135 -0.00040080
C 3.31019138 11.93531202 22.00832560 -0.00048964 0.00128168 0.00455974
C 0.65600243 20.38708333 1.65160055 -0.00157489 -0.00286194 -0.00457392
C 3.70037169 17.22681420 2.93263929 -0.00099254 0.00486843 0.00122077
C 0.53506659 20.03424114 6.49749671 0.00550296 0.00623029 -0.00234188
C 3.45640972 17.33609719 7.64755306 0.00346220 0.00170262 -0.00365171
C 0.77747662 20.12683639 11.36814613 -0.01076880 -0.00169369 -0.00596557
C 3.78525071 17.18077845 12.37135733 0.00393101 -0.00097505 -0.00491057
C 0.52065667 20.38263823 16.08441608 -0.00193288 0.00388211 -0.00103239
C 3.58511454 17.21879314 17.26567252 0.00018513 0.00029751 -0.00018629
C 0.71020767 20.49308535 20.80622657 0.00364113 -0.00126732 -0.00445318
C 3.80440165 17.36863658 21.92945058 0.00254029 -0.00815503 0.00203825
C 30.98611655 26.98914171 1.71405861 0.00494449 -0.00103921 0.00092422
C 3.18918501 24.16802357 3.26512927 0.00344016 0.00950592 0.00438734
C 30.96606267 26.94490934 6.54838042 0.00252176 0.00313771 -0.00135400
C 3.13105498 23.70688875 7.78579715 0.00620593 -0.00492333 -0.00678235
C 0.11449435 27.06012463 11.34394625 -0.00669053 0.00975206 -0.00347200
C 2.99992662 23.78788771 12.59970191 -0.00143388 0.00642359 0.00227978
C 31.06511410 26.86496366 16.04094620 0.00295966 0.00349163 -0.00351031
C 3.16663449 24.12352431 17.15313015 -0.00048757 -0.00545341 0.01164067
C 0.03498710 26.84187652 20.62526297 0.00406906 0.00568639 -0.00867297
C 3.27252498 23.91742332 22.12450261 -0.00094652 -0.00377400 -0.00259318
C 6.03765263 3.29785543 1.72207459 0.00548734 -0.00220629 -0.00028780
C 9.16762634 0.21090177 3.10464745 0.00010257 0.00617141 0.01031504
C 6.10805898 3.25953936 6.37633844 -0.00054063 0.00314763 0.00367310
C 9.16117867 0.20129975 7.87922373 0.00365884 -0.00166683 -0.00258365
C 5.99498527 3.21663822 11.19543831 0.00310673 0.00114163 0.00240657
C 9.05230017 0.21339130 12.35254326 0.00470501 0.01022299 0.00604524
C 6.25127217 3.22484652 16.02186894 -0.00495993 0.00561414 -0.00302122
C 9.07601770 0.32840042 17.21511750 -0.00048563 -0.00288651 0.00340685
C 6.11712776 3.44161940 20.77401895 0.00171362 -0.00020304 0.00663953
C 8.95644619 0.25608763 21.97374401 -0.00211279 0.00235749 0.00263737
C 6.43962941 8.74692834 1.49215991 -0.00851965 -0.00329508 0.00000527
C 9.42559967 5.73183204 2.94169170 -0.00372766 0.00063120 -0.00064207
C 6.58533243 8.59415342 6.14628389 -0.00506430 0.00300568 0.00891918
C 9.82406288 5.73591153 7.84821379 0.00264490 0.00004310 0.00063337
C 6.46466709 8.75583638 11.17777868 -0.00428985 -0.00173422 -0.00257535
C 9.52910449 6.00140408 12.40588071 -0.00125369 -0.00263497 -0.00417310
C 6.50400165 8.82666694 15.97234648 -0.00350895 0.00103899 0.00249933
C 9.78405170 5.87354574 17.17920570 -0.00318729 -0.00282480 -0.00004939
C 6.71252554 8.74302994 20.58081581 0.00412885 -0.00447601 -0.00121212
C 9.74470624 5.75493291 21.91457114 0.00370005 0.00221345 -0.00474841
C 6.78536050 14.41908230 1.59387228 0.00029083 -0.00481820 0.00459204
C 10.10984038 11.15034880 2.95565854 0.00035500 0.00496128 -0.00268754
C 6.93952814 14.41986649 6.39523112 0.00669258 0.00052946 0.00236999
C 9.98869594 11.48802207 7.60516666 0.00532310 0.00371580 0.00160125
C 6.76059568 14.41676037 11.16055504 -0.00251084 -0.00012450 -0.00227487
C 9.98916773 11.38097042 12.51696758 0.00098924 -0.00160931 0.00291060
C 6.91256829 14.34541335 15.82351036 -0.00590222 0.00380322 -0.00077391
C 10.02423599 11.51035682 17.26520442 0.00170508 -0.00653882 -0.00616963
C 6.75149380 14.48686237 20.71298549 -0.00046460 0.00180127 -0.00413157
C 9.76741169 11.38550943 21.94842835 0.00379025 -0.00495021 -0.00049402
C 5.83620595 20.93990911 1.76849245 0.00072044 -0.00256703 0.00159511
C 8.97342163 17.89238608 2.89488510 0.00074967 0.00241593 0.00477351
C 6.06178035 20.95719360 6.55628404 0.00023108 0.00214433 0.00348599
C 9.26763682 18.23939000 7.70007970 -0.00220475 -0.00001748 -0.00399801
C 6.35453184 20.99665736 11.33797408 -0.00154217 0.00028913 0.00355837
C 9.52156097 17.85169389 12.45446926 -0.00892280 -0.00212159 -0.00685611
C 6.26916353 20.98814603 16.03717012 0.00228755 0.00436988 0.00241159
C 9.33295420 17.85043055 17.29549911 0.00006650 -0.00451225 -0.00306483
C 5.99758007 20.84505423 20.70660618 -0.01020085 -0.00205120 -0.00232193
C 9.29590903 18.01527561 21.86764720 0.00001088 -0.00722035 0.00512332
C 5.56377852 27.74839835 1.80988527 -0.00031511 -0.00301596 0.00092208
C 8.20996505 24.65378991 2.99627705 0.00922166 0.00651503 -0.00064005
C 5.76967430 27.59701078 6.52880730 -0.00627166 0.00329457 0.00221778
C 8.54525564 24.66544181 7.68165272 0.00688616 -0.00263402 -0.00290087
C 5.63887105 27.67269705 11.29332904 -0.00317352 0.00008734 -0.00111018
C 8.71006218 24.68282366 12.46515168 0.01093798 -0.00118172 0.00193413
C 5.76317085 27.75006620 15.97292990 0.00509913 -0.00090793 0.00392125
C 8.84842180 24.63272933 17.33551027 -0.00596158 0.00539584 0.00664582
C 5.68652707 27.71636377 20.74774144 0.00111435 0.00572483 -0.00902102
C 8.60853240 24.39208639 21.89611957 -0.00047966 0.00341141 -0.00029185
C 12.57230024 2.95023088 1.63497492 0.00597989 0.00028610 -0.00935754
C 15.84988067 29.65950294 2.87191716 0.00139731 -0.00447052 -0.00056537
C 12.67015622 2.78480365 6.42602186 -0.00953960 -0.00420733 0.00253122
C 15.99591590 29.80256852 7.49915294 0.00042700 -0.00546516 0.00092372
C 12.72580370 2.94451842 11.16035687 0.00194296 -0.00157782 0.00440629
C 15.77706595 29.77828127 12.57025437 -0.00459204 -0.00194167 -0.00831140
C 12.58560734 2.78814228 15.80489301 -0.00486432 0.00393828 -0.00432071
C 15.62210079 29.79431020 17.28624487 -0.00035408 0.00750453 -0.00212559
C 12.68145360 2.73673322 20.61290302 0.00658921 -0.00681218 0.00412773
C 15.69715023 29.88522407 21.97263490 0.00124638 -0.00092559 0.00241005
C 13.10107216 8.24619966 1.60413290 -0.00173338 -0.00207207 0.00002025
C 16.32286447 5.53382040 2.84125948 0.00506388 -0.00182626 -0.00283022
C 13.29764740 8.32814230 6.38483064 0.00024352 -0.00210501 -0.00718560
C 16.25888916 5.36062627 7.55887065 0.00113295 -0.00136448 -0.00321048
C 13.12132759 8.52304075 11.01294724 -0.00111629 -0.00017327 0.00198108
C 16.34005540 5.53815783 12.46920518 -0.00433899 -0.00442842 -0.00129949
C 13.34287190 8.03775595 15.82393277 0.00222648 0.00809444 -0.00249938
C 16.30092395 5.16949381 17.11046546 0.00180019 0.00012613 -0.00900093
C 13.28304285 8.42369319 20.65342088 -0.00108384 0.00561527 0.00314250
C 16.25411036 5.26612995 21.77805170 0.00356646 -0.00165375 -0.00693702
C 12.27510737 14.90116684 1.78436219 0.00909505 0.00249056 -0.00467472
C 15.58175403 12.00709505 3.01339538 -0.00279752 -0.00572711 -0.00328661
C 12.40083432 15.19762422 6.48125799 0.00574056 0.00018309 -0.00637920
C 15.59951638 12.21403240 7.61657046 0.00083453 0.00145208 -0.00203016
C 12.68413937 14.85902834 11.18269558 -0.00160948 0.00000018 -0.00615896
C 15.86605222 12.12858728 12.38284803 -0.00821028 -0.00439835 -0.00079720
C 12.49102163 15.16535233 15.87593185 0.00291030 -0.00429357 0.00339867
C 15.51777079 12.01226205 17.05657137 -0.00132970 -0.00026344 0.00138880
C 12.39994135 14.71323613 20.58014390 0.00198100 -0.00002541 -0.00390676
C 15.38228781 11.84876875 21.95967034 0.00289379 -0.00508096 0.00473906
C 11.51943497 21.82657364 1.75454419 -0.00091032 0.00066991 0.00258879
C 14.79920693 18.54846844 2.98812510 0.00487168 -0.00481444 0.00581167
C 11.78253604 21.57872629 6.63299725 -0.00029165 -0.00170204 0.01067933
C 14.98528677 18.76986910 7.72028110 0.00102718 -0.00783064 -0.00078022
C 11.76915579 21.56427401 11.20458060 0.00491273 -0.00084509 0.00154940
C 14.98828665 18.34173491 12.42053181 -0.00702144 -0.00749049 0.00395509
C 11.78649200 21.63461011 15.85669255 0.00552786 -0.00357288 0.00024051
C 14.83941066 18.57611673 17.11822156 -0.00019481 0.00628230 -0.00038295
C 11.77642427 21.58482491 20.67461551 -0.00490501 0.00095180 0.00201718
C 15.04668162 19.04039618 22.10608754 -0.00327713 0.00467989 0.00338035
C 12.17739779 27.16357120 1.78085750 -0.00360551 -0.00573988 0.00197837
C 15.15697752 24.15142268 3.06444853 0.00048598 -0.00412558 -0.00274806
C 12.24089959 27.21645841 6.40632121 0.00302242 0.00022012 -0.00013758
C 15.23659662 24.13736294 7.86322423 0.00076928 0.00845379 0.00129918
C 12.14556787 27.35067358 11.10081034 -0.00437514 -0.00668985 -0.00394651
C 15.06682748 23.93417139 12.60512202 -0.00223848 -0.00376936 0.00466258
C 12.22077874 27.33496606 15.89755857 -0.00042951 0.00424916 0.00205279
C 15.47039013 24.06561607 17.16263216 -0.00388867 -0.00043198 0.00019311
C 12.16497073 27.10034646 20.73242431 0.00004992 -0.00404164 -0.00348084
C 15.41159090 24.13923641 22.05990754 -0.00393905 0.00197898 0.00353672
C 19.53931860 2.32576605 1.82590654 0.00343859 0.00698243 0.00106517
C 22.57425381 29.26204885 3.07816229 0.00335568 0.00853766 -0.00287419
C 19.36312493 2.30157097 6.38991737 0.01155351 -0.00027480 -0.00578615
C 22.44147596 29.28594347 7.89403516 -0.00261880 0.00120872 -0.00027018
C 19.25999009 2.23020114 11.16318420 0.00202965 -0.00484545 -0.00683251
C 22.62223749 29.42872299 12.59470566 0.00078344 -0.00162413 0.00641143
C 19.27867219 2.35429758 15.85215554 -0.00618934 0.00668850 0.00555845
C 22.39498439 29.39977076 17.18794707 0.00177512 -0.00135335 0.00329781
C 19.24159981 2.30117852 20.73626782 0.00268402 -0.00332070 0.00267596
C 22.52100805 29.43432631 21.95164786 0.00329227 -0.00734674 0.00161485
C 18.48554398 9.15167381 1.69178834 -0.00398435 0.00116201 -0.00114328
C 21.80069222 5.95365154 3.21169732 -0.00665452 0.00014975 -0.00670460
C 18.59893346 9.15652051 6.42373097 0.00091196 -0.00192985 0.00399514
C 21.95301308 6.00924302 7.83151008 -0.00478304 -0.00099617 0.00608260
C 18.92939320 8.85656600 11.04400301 0.00111577 -0.00137266 0.00225414
C 21.87648018 5.69751161 12.53387248 0.00023628 -0.00055362 0.00318563
C 18.61469246 8.84292282 16.03151454 0.00050210 -0.00483124 -0.00535168
C 21.86385255 5.78611720 17.25706725 0.01117709 0.00571388 -0.00037079
C 18.65218237 8.72056902 20.73360944 0.00163971 -0.00681031 -0.00575451
C 21.79811471 5.99278233 22.11344805 0.00355530 -0.00099707 -0.00011476
C 18.38897253 15.45467071 1.59022552 0.00521415 -0.00459825 -0.00013953
C 21.35120018 12.53772945 3.02534305 0.00377583 0.00240693 -0.00121751
C 17.98924228 15.66204470 6.29197083 0.00851767 0.00767110 -0.00104341
C 21.03831409 12.57673812 7.83959820 0.00338315 -0.00080776 0.00720338
C 18.07651626 15.66046371 11.30408940 -0.01083669 -0.00451441 -0.00406215
C 21.09773615 12.42569544 12.39698363 0.00864645 0.00481072 0.00037661
C 17.90561305 15.37575908 16.01093907 0.00464273 -0.00488920 -0.00077109
C 21.04081905 12.55214476 17.34039327 -0.00494294 0.00334467 0.00520202
C 18.03048797 15.61812143 20.73969561 -0.00543337 -0.00370353 -0.00508231
C 21.65085966 12.74923240 22.02023427 0.00668674 -0.00081608 -0.00436087
C 18.53891879 21.23710129 1.67509041 0.00148970 0.00527430 -0.00216144
C 21.63162881 18.25301291 3.02169409 -0.00164705 0.00422468 0.00118761
C 18.45642747 21.29472602 6.39812697 -0.00471489 0.00104260 -0.00296346
C 21.38854944 18.42952043 7.92164773 -0.00199395 -0.00092534 -0.00234473
C 18.56985907 21.17275680 11.29496761 0.00686460 0.00571130 -0.00386566
C 21.48994039 18.33847951 12.64690897 0.00046995 -0.00212359 0.00052293
C 18.49533451 21.07109423 15.87675778 -0.00124653 0.00405705 -0.00231579
C 21.52457093 18.23676338 17.30927994 -0.00345519 0.00233246 -0.00111578
C 18.37976517 20.93944530 20.79136945 -0.00682168 -0.00226214 -0.00341898
C 21.72734622 18.31923702 22.04051901 -0.00237472 -0.00296288 0.00138548
C 18.98232656 26.73751241 1.72530124 0.00362471 -0.00190549 -0.00239312
C 21.93959690 23.63229451 3.03445222 0.00404504 0.00189568 0.00568592
C 19.00641416 26.62715358 6.35792789 0.00021481 -0.00018837 0.00356020
C 22.04588668 23.85905289 7.75644809 0.00013566 -0.00239732 0.00057995
C 18.65905653 26.85889537 11.19914229 0.00077548 -0.00264091 0.00426068
C 21.99130145 23.99988046 12.74415272 0.00529503 0.00120110 0.00499652
C 18.90993411 26.55212267 16.05114078 -0.00248132 0.00017837 0.00050138
C 21.93907858 23.50553823 17.40982081 0.00306826 -0.00333263 0.00277829
C 18.78852437 26.40777973 20.71560278 -0.00200219 -0.00357427 -0.00641195
C 21.85579131 23.48216135 22.08881673 0.00130351 -0.00193422 0.00053615
C 24.90979007 3.03878301 1.68190603 -0.00247257 0.00120412 -0.00462134
C 28.02994302 0.05377626 3.06932775 0.00191974 0.00461792 -0.00408992
C 24.93007271 2.69943314 6.68526748 0.00240677 -0.00016075 0.00201058
C 28.19905279 29.59300130 7.84834820 -0.00031885 -0.00298582 0.00019352
C 24.98444002 2.94765183 11.32650682 -0.00609996 0.00533740 -0.00127310
C 28.23786371 0.03680009 12.48743218 -0.00122471 -0.00329661 0.00390011
C 24.81141296 2.90689454 15.93737733 -0.00006016 0.00275001 0.00777632
C 27.97187252 0.05427016 17.21373295 -0.00534023 0.00039660 0.00455838
C 24.93327152 3.13935608 20.65547896 -0.00176120 0.00015593 -0.00082421
C 27.81392803 29.93550125 21.92481212 0.01412631 -0.00923950 0.00636674
C 24.10375936 9.36558504 1.46070909 -0.01179017 -0.00355415 0.00560123
C 27.33234643 6.43480957 2.97225258 0.00069389 -0.00156191 0.00036391
C 24.18468122 9.61822911 6.36331929 0.00427513 0.00584574 -0.00479979
C 27.37648917 6.56108000 7.75817527 0.00805993 0.00466585 -0.00416342
C 24.10783836 9.69106955 11.12445462 0.00023830 -0.00298119 0.00246389
C 27.22268941 6.57903552 12.44918243 -0.00001356 0.00814451 0.00341880
C 23.88917877 9.59638221 15.74064621 -0.00150298 -0.00538347 -0.00094658
C 27.20011201 6.55467799 17.15177637 0.01005743 0.00700351 -0.00271582
C 24.18613258 9.63147579 20.43833713 -0.00490477 -0.00074311 0.00389864
C 27.57915355 6.56125722 21.92951596 0.00490142 -0.00336085 -0.00514198
C 24.53828306 15.35984567 1.66867425 -0.00095945 0.00417914 -0.00343848
C 27.44593481 12.13931324 3.02194526 -0.00766966 -0.00636769 0.00151849
C 24.60251154 15.38290851 6.34369484 -0.00217312 0.00357223 0.00152701
C 27.70428734 12.19622636 7.84073125 -0.00024269 -0.00441091 -0.00160331
C 24.54623262 15.45655823 11.27987946 -0.00829288 0.00177241 0.00143097
C 27.48175073 12.13722274 12.62689879 0.00054482 0.00591352 0.00425191
C 24.63839870 15.31616919 15.85437819 -0.00409567 0.00159622 0.00252116
C 27.81834332 12.02566954 17.27031663 -0.00070940 -0.00395338 0.00933607
C 24.66707333 15.19510422 20.53158073 -0.00770126 -0.00062140 -0.00370949
C 27.59815576 12.40003320 22.03224670 -0.00185879 -0.00022946 -0.00103623
C 24.99651521 20.68864727 1.84158229 0.01113552 0.00655898 0.00001795
C 28.16519738 17.78602248 3.14700234 0.00246404 -0.00514814 0.00073871
C 25.18408271 20.75130079 6.57014785 0.00055981 0.00439796 0.00459388
C 27.92458425 17.45080711 7.72817119 0.00190264 0.00214216 0.00050102
C 24.99263021 20.97256896 11.12836559 -0.00271942 0.00611228 0.00260217
C 28.22006391 17.97123849 12.64667591 0.00989513 0.00223100 0.00189121
C 24.83918198 20.98809925 16.02434658 0.00542232 0.00526455 0.00648135
C 28.20645184 17.75743721 17.43162596 -0.00815310 0.00183766 0.00187256
C 25.24628399 20.73270217 20.87593238 0.00114367 0.01193499 -0.00032215
C 28.09447473 17.88004983 22.06293066 0.00689347 -0.00058939 -0.00102576
C 25.60524263 26.29459953 1.60418468 0.00483631 0.00015874 -0.00087900
C 28.66265074 23.45543804 3.00660759 0.00637389 -0.00723643 0.00541438
C 25.68389658 26.35412329 6.36578865 0.00172966 -0.00277615 -0.00378712
C 28.55237163 23.02060991 7.81210262 -0.00465528 -0.00404797 0.00101431
C 25.61410275 26.27637662 11.14185446 0.00194779 0.00058488 -0.00587644
C 28.74183522 23.35055022 12.38228919 -0.00149708 -0.00578601 0.00352924
C 25.45120353 26.36238803 15.97376027 0.00392091 0.01100899 -0.00609249
C 28.55541237 23.32019696 17.26686605 0.00025973 0.00415371 -0.00934375
C 25.48942278 26.42379119 20.65250558 -0.00662209 0.00885785 0.00174435
C 28.64844019 23.63803230 22.00901074 0.00372334 0.00218434 0.00363317
N 0.07593389 4.37593715 1.19082421 0.00199869 -0.00308751 -0.00352142
N 3.40783938 5.00738193 3.68013175 0.00155428 0.00126620 -0.00484210
N 5.18271301 2.63975584 0.95299266 0.00372403 0.00062157 -0.00273820
N 1.62493763 1.39413949 3.50742838 0.00232153 -0.00678575 0.00375790
N 0.02631543 4.56638144 5.72026205 -0.00221075 -0.00033533 0.00056772
N 3.66758757 5.27633957 8.70162175 -0.00068263 0.00169137 0.00028522
N 5.30835189 2.51560636 5.58181406 0.00466405 0.00183719 0.00021606
N 2.05455660 1.60606503 8.44752949 -0.00665195 -0.00376426 0.00256854
N 0.19505773 4.70758695 10.51111322 -0.00300267 -0.00209134 -0.00131883
N 3.38686179 5.46694046 13.38889734 -0.00868467 -0.00197849 0.00383733
N 5.39394311 2.29474327 10.37516963 -0.00508514 0.00078994 0.00018928
N 1.58292076 1.26410643 13.42803480 0.00072732 -0.00435844 -0.00280180
N 0.16552889 4.49748986 15.15479793 -0.00196555 -0.00060831 -0.00111356
N 3.58408370 5.41570555 17.95710949 0.00787690 -0.00410164 -0.00757015
N 5.43543256 2.26392021 15.48803988 0.00352314 0.00043545 0.00062668
N 1.57123015 1.28548541 18.14674139 0.00367338 -0.00487644 0.00022528
N 0.50676869 4.45147732 20.18373511 -0.00662285 0.00442529 -0.00491712
N 3.26577120 5.23645944 22.79885272 0.00041881 0.00197660 0.00483985
N 5.30497290 2.55093528 20.13597562 0.00394008 0.00566676 -0.00075284
N 1.47237553 1.47207608 22.70566943 0.00136779 0.00150170 0.00474263
N 0.18157314 10.41068582 1.22792685 0.00453908 -0.00005067 0.00071360
N 4.19177029 10.93809002 3.70328328 0.00110508 0.00327484 -0.00818972
N 5.52976090 8.08421729 0.76208848 0.00378065 -0.00465214 -0.00040218
N 2.32508612 7.10261798 3.94136167 -0.00561584 0.00031764 -0.00209311
N 0.36175371 10.20577256 5.82218488 0.00008873 0.00249987 -0.00257153
N 3.95407718 10.94083534 8.55298154 -0.00190028 -0.00174263 -0.00170865
N 5.80638089 7.63639225 5.54833235 -0.00172993 0.00025838 -0.00016637
N 2.24911163 7.06153775 8.59524173 0.00221377 0.00406179 0.00064655
N 0.76797235 9.93663409 10.49656745 -0.00119767 -0.00899996 -0.00054402
N 3.92564865 10.99449577 13.30217570 0.00697471 0.00331005 0.00009083
N 5.78200422 7.87843451 10.52627333 0.00101713 -0.00171125 0.00163674
N 1.95735803 7.25740235 13.36751861 0.00379130 -0.00495752 0.00171836
N 0.65412032 9.98780546 15.29126034 0.00067502 0.00433039 -0.00487291
N 4.08010187 10.90792717 18.01452145 0.00007858 -0.00233923 0.00187136
N 5.72892063 7.95466774 15.27044325 0.00303189 0.00047923 -0.00518488
N 2.21996582 7.23893275 18.01580201 -0.00060196 -0.00255101 -0.00316937
N 0.52102547 10.07813473 20.12636827 -0.00499322 -0.00308932 0.00214015
N 3.83660681 10.93497828 22.70574630 -0.00690780 -0.00319326 0.01318826
N 5.89758573 7.97185448 19.81619389 -0.00272470 0.00149917 -0.00068649
N 1.95596962 7.15691326 22.92839824 0.00044850 0.00217073 0.00477443
N 0.97463554 15.57272129 1.02156272 0.00337085 0.00660580 0.00379508
N 4.57608579 16.49657745 3.71877344 -0.00029972 -0.00301128 0.00206487
N 6.22514925 13.37171197 1.06117120 -0.00061165 -0.00246612 0.00262901
N 2.73341033 12.81527764 3.91622553 -0.00748724 0.00437630 -0.00357492
N 0.89159904 15.69153653 5.79401254 -0.00029147 0.00544518 0.00224521
N 4.34835931 16.68728184 8.41670341 -0.00446293 -0.00892893 0.00332220
N 5.95889405 13.70952200 5.82019877 -0.00733100 0.00056660 -0.00067147
N 2.45567288 12.62785749 8.52077664 0.00224021 0.00055300 0.00315727
N 0.82434332 15.55527203 10.39158233 -0.00136139 0.00518289 -0.00011711
N 4.44062693 16.38757570 13.23186326 -0.00249972 -0.00162707 0.00109725
N 5.92297393 13.65021090 10.32185154 -0.00551845 0.00156698 0.00185250
N 2.73487459 13.00126627 13.06973434 -0.00824704 0.00440836 0.00143220
N 0.72402896 15.62603225 15.11173458 0.00310447 0.00401959 0.00397909
N 4.45727765 16.56401065 18.04336264 0.00171611 0.00016085 0.00017973
N 6.15656004 13.46104541 15.11899899 0.00270979 0.00258554 -0.00177801
N 2.53055659 12.56428947 18.09360296 0.00522128 -0.00145841 -0.00119006
N 0.99780956 15.44186950 20.11682704 0.00107348 -0.00289106 -0.00136575
N 4.44249711 16.44378939 22.69242465 0.00314309 0.00012460 0.00150771
N 6.03394066 13.59881571 19.93425204 0.00291406 -0.00402593 -0.00442432
N 2.36825158 12.63812099 22.75391220 0.00089378 0.00313111 -0.00154910
N 1.48994960 21.26322592 1.05506262 0.00158253 0.00349154 0.00627725
N 3.98470434 23.38843318 3.98231319 -0.00888559 0.00553762 -0.00115998
N 5.05630759 19.95693135 1.23530083 0.00122915 -0.00391302 0.00466493
N 2.76775048 17.97256742 3.56723794 0.00021580 -0.00013974 0.00500950
N 1.41558799 20.88116944 5.83379107 0.00324699 0.00016162 -0.00097264
N 4.15619486 23.26270768 8.60577456 -0.00328140 0.00000616 -0.00830423
N 5.44771991 20.04324648 5.77006870 0.00231345 0.00805973 -0.00399609
N 2.61732242 18.19958303 8.31966133 -0.00087124 -0.00089630 0.00248301
N 1.58032621 21.05335196 10.67811337 0.00693631 0.00419988 -0.00431333
N 4.03682431 23.27679660 13.33584974 0.00379399 -0.00543554 0.00205906
N 5.50057331 20.26165456 10.57440580 0.00481773 0.00061605 0.00247607
N 3.12752973 18.13909101 13.14049750 -0.00105812 0.00467177 0.00271835
N 1.35180347 21.20464570 15.40846610 -0.00474098 -0.00565073 -0.00335613
N 4.05048448 23.42700509 17.97073673 0.00640591 0.00562770 -0.00477935
N 5.49228952 20.19559832 15.24705259 -0.00513850 0.00128039 0.00273831
N 2.70563702 18.08407970 17.87336715 -0.00018437 -0.00448564 -0.00408272
N 1.24840325 21.63769372 20.22150911 0.00689839 -0.00222524 -0.00758018
N 4.21792529 23.22782461 22.86314511 0.00126763 -0.00174723 0.00644201
N 5.35948229 19.91929163 20.02085230 0.00594402 -0.00022286 -0.00604441
N 3.13017347 18.22803246 22.66278632 -0.00150640 0.00140892 0.00171080
N 0.65592527 27.90960350 1.02194745 0.00335963 -0.00192084 -0.00029081
N 3.36595340 0.08621655 3.77714305 -0.00098751 -0.00179569 0.00395802
N 4.78910954 26.99700246 1.02861287 -0.00738080 0.00471777 0.00093881
N 2.08391952 24.65204597 3.91196388 -0.00135556 0.00650301 -0.00446305
N 0.85468446 27.64889227 5.98197337 -0.00357947 0.00419476 -0.00396563
N 3.48085541 29.80806490 8.52641006 0.00110002 -0.00161017 0.00231988
N 4.87337772 26.74431775 5.96659661 -0.00431157 -0.00246769 0.00344877
N 2.15708124 24.42500783 8.35660963 0.00435857 0.00018965 -0.00138028
N 0.90188498 27.94951219 10.71077915 -0.00351138 -0.00672066 0.00642368
N 3.26177463 29.67460666 13.32061803 -0.00237994 -0.00114421 -0.00368049
N 4.86644856 26.86099200 10.53457805 -0.00082901 -0.00897482 0.00278992
N 2.03917143 24.41460072 13.29101483 0.00212111 -0.00105906 -0.00423217
N 0.84406050 27.74003451 15.46243527 0.00430584 0.00746331 0.00386425
N 3.29757126 29.75501077 18.03553909 -0.00002838 -0.00719488 0.00365322
N 4.92160543 26.81392122 15.36228731 -0.00233800 -0.00321546 0.00432386
N 2.22503614 24.88206283 17.73120118 0.00081347 0.00035548 -0.00061046
N 0.85656930 27.71318070 19.87834581 0.00503060 -0.00295334 -0.00091718
N 3.08894666 29.90728712 22.64778599 -0.00274755 0.00342967 -0.00422390
N 4.91310814 26.77220955 20.03849358 0.00047773 -0.00194322 -0.00085654
N 2.41727391 24.69046342 22.84962875 -0.00240219 0.00624202 0.00211415
N 6.96669327 4.15390355 1.11506881 0.00860014 -0.00386266 -0.00093580
N 10.28191769 5.00508652 3.73682300 0.00261132 0.00330582 0.00284946
N 11.97835227 1.98290021 0.94453412 0.00612259 0.00671591 -0.00375214
N 8.43850882 1.10777761 3.79926418 -0.00047853 0.00208830 0.00133954
N 6.92609135 4.05837389 5.69322476 -0.00095029 0.00028584 0.00218689
N 10.41020860 4.87095605 8.74065281 0.00057404 -0.00208136 0.00188710
N 11.81953976 2.05012156 5.64540621 0.00344680 -0.00492502 0.00259201
N 8.69997434 1.21131652 8.65987123 -0.00016203 -0.00294653 -0.00044046
N 6.70187036 4.15135237 10.55295366 -0.00320103 -0.00413921 -0.00102468
N 10.04658409 4.97456145 13.07174399 -0.00946783 -0.00045174 0.00514427
N 11.90330029 2.15090076 10.44837565 -0.00349343 -0.00419164 0.00383039
N 8.49337194 1.20581240 13.14877684 -0.00364050 0.00788012 0.00487470
N 6.84386330 4.13136440 15.18785293 -0.00418123 0.00207925 0.00203831
N 10.35684757 4.85094706 17.93767821 0.00683719 -0.00126997 0.00025109
N 11.82825935 2.05857685 14.91698761 -0.00372153 -0.00072392 0.00655744
N 8.43817771 1.23989751 18.02767371 -0.00082274 -0.00376344 -0.00041717
N 6.81379759 4.29810334 20.00530874 0.00210502 -0.00249881 0.00174452
N 10.37936752 4.78324144 22.63745827 -0.00118791 -0.00526019 -0.00243560
N 11.65725393 2.14466940 19.89491246 0.00179842 -0.00245761 -0.00253459
N 8.50420370 1.39320378 22.62276810 -0.00273225 0.00266376 -0.00148878
N 7.44818190 9.26318359 0.78953143 0.00421109 -0.00044043 0.00430901
N 10.96171045 10.34860913 3.71308019 -0.00060376 0.00190375 0.00166792
N 12.22655254 7.45963686 0.87598696 0.00091492 -0.00090406 0.00077862
N 8.72774871 6.78549060 3.57512248 0.00718151 0.00488259 0.00288045
N 7.13631395 9.54117426 5.35235470 0.00128086 -0.00454720 -0.00354030
N 10.94373574 10.84518757 8.30938986 0.00049397 0.00407489 -0.00420817
N 12.48691221 7.61721398 5.62315420 0.00113190 0.00320382 -0.00222162
N 9.16363611 6.75942933 8.40974609 -0.00164606 0.00246691 -0.00287957
N 7.23362276 9.51777633 10.34111655 -0.00203916 0.00038765 0.00224163
N 10.95965688 10.78049974 13.19922560 -0.00497954 0.00270833 0.00202687
N 12.24647967 7.71941335 10.33011070 0.00309215 -0.00061324 -0.00004200
N 9.20353520 7.09338194 13.17062727 0.00106993 0.00203005 -0.00229591
N 7.33234796 9.63571022 15.35538769 0.00775584 0.00407668 0.00001014
N 10.92408917 10.69643851 17.94615317 -0.00184991 0.00062231 0.00406564
N 12.64757304 7.31427134 14.84940294 -0.00516132 0.00728262 -0.00055705
N 9.15832903 6.88950376 17.87022832 -0.00363169 0.00027701 -0.00361107
N 7.62986690 9.47564654 19.85642166 0.00455054 -0.00539963 0.00703282
N 10.63563939 10.61428189 22.69755694 -0.00053703 0.00594796 -0.00422907
N 12.51689883 7.55362024 19.98260176 -0.00091733 0.00163187 -0.00320665
N 8.95788064 6.61538199 22.62219785 0.00193558 -0.00393331 0.00099899
N 7.66802952 15.16640702 0.84470704 0.00370982 0.00245082 0.00265370
N 10.06702707 17.21717510 3.54064934 -0.00645224 0.00149778 0.00267139
N 11.44214592 14.07437579 1.10323101 -0.00104631 0.00044017 -0.00327542
N 9.49374479 12.17683265 3.65268831 0.00185398 -0.00361152 -0.00043780
N 7.67729624 15.24628123 5.60904171 -0.00256086 -0.00061248 0.00063303
N 10.33675227 17.77844463 8.43408853 0.00091666 -0.00442940 0.00195391
N 11.75127588 14.28072162 5.76799250 -0.00053795 0.00302805 0.00203555
N 9.06099175 12.22483787 8.31277977 0.00151720 -0.00080490 0.00485839
N 7.56451425 15.29597729 10.54210155 -0.00123760 0.00375408 -0.00436536
N 10.46182177 17.04869013 12.97325232 -0.00000540 -0.00331216 -0.00170770
N 11.68734843 14.15358321 10.54295584 -0.00858783 -0.00626780 0.00063679
N 9.13484382 12.19170751 13.25158446 -0.00253456 -0.00413977 -0.00101698
N 7.69547232 15.20198747 15.15939736 0.00233750 0.00124715 -0.00721577
N 10.35630103 17.31222979 18.03562825 0.00207531 0.00463506 -0.00359761
N 11.78600270 14.28469548 15.13144473 0.00093480 -0.00735545 0.00495547
N 9.18020220 12.34074582 17.99319194 -0.00024735 -0.00304775 0.00068305
N 7.63819991 15.16700589 20.01155496 0.00726020 0.00184475 -0.01047457
N 10.35406795 17.47886686 22.56762383 0.00401565 -0.00157897 0.00250237
N 11.32119322 14.09047566 19.90585703 0.00162893 0.00346482 0.00214143
N 9.05171887 12.32080566 22.63624383 -0.00828908 -0.00046945 0.00449965
N 6.51340480 21.66424747 0.88367767 -0.00012261 0.00450835 0.00825409
N 9.12889979 23.90543062 3.69120721 0.00259846 0.00235526 0.00196069
N 10.91161734 20.92027490 0.87317984 0.00434005 -0.00078908 0.00636031
N 8.19511770 18.72110595 3.65371317 0.00439912 -0.00428726 -0.00000445
N 6.68955701 21.90081521 5.86036138 0.00208623 0.00038589 -0.00165548