2000
Time=52000.00000004 pbc="T T T" Lattice="31.13935513 0.00000000 0.00000000 0.00000000 30.13027794 0.00000000 0.00000000 0.00000000 23.68779484" energy=-12039.46443093 virial="-14.76164672 0.72501162 -26.79445824 0.72501162 -40.27818236 -2.39520405 -26.79445824 -2.39520405 -83.88733940" stress="0.00158634 0.00002765 -0.00119273 0.00002765 0.00024230 -0.00004231 -0.00119273 -0.00004231 -0.00126562" Properties=species:S:1:pos:R:3:vel:R:3
C 30.42273881 3.56477880 1.84108367 -0.00119783 -0.00403883 -0.00809566
C 2.39205916 0.46540375 3.05825199 0.00078983 -0.00298698 -0.00696032
C 30.25982851 3.41107184 6.45436911 0.00075299 0.01154663 -0.00430124
C 2.36344448 0.69938546 7.84882123 -0.00342808 -0.00400077 0.01447376
C 30.38974216 3.57847612 11.08555231 -0.00042320 0.00332187 -0.00144203
C 2.45640291 0.81743819 12.63207559 0.00205771 -0.00508945 0.00375222
C 30.40790762 3.63364042 16.01677427 -0.00171566 -0.00855875 -0.00246225
C 2.39246829 0.55329682 17.28255806 -0.00402622 -0.00776426 0.00364870
C 30.66741220 3.57708719 20.77852220 -0.00757118 -0.00438199 -0.00333212
C 2.50793249 0.51612812 21.98452071 -0.00522128 0.00254165 0.00816143
C 31.07224800 9.03282291 1.62582517 0.00409325 0.00381425 -0.00440804
C 2.73827209 6.10311184 2.84671097 -0.00252424 -0.00469111 -0.00404494
C 30.94975361 8.97506143 6.27874780 -0.00145852 0.00159192 0.00058023
C 3.04267576 6.09753047 7.50913061 0.00359967 0.00233429 0.00417733
C 30.73182207 9.14016908 11.28328206 0.00031674 -0.01031293 0.00449839
C 2.75657823 6.15951224 12.40206181 -0.00086007 -0.00218046 0.00179425
C 30.73455202 9.22514370 15.89003552 -0.00143043 0.00503022 0.00497091
C 2.88802334 6.15268153 17.06103701 0.00319608 -0.00039538 0.00177797
C 30.93203341 9.17414202 20.52139997 -0.00502314 -0.00052526 0.00357165
C 2.81580245 6.05801790 21.85451540 -0.00628629 0.00082403 0.00808931
C 0.46414535 14.84226665 1.55940815 -0.00413088 0.00012287 0.00286283
C 3.59656882 11.68926198 3.06234863 0.00191035 0.00382405 0.00173613
C 0.19680133 14.77773475 6.45811439 -0.00207203 0.00107669 0.00190339
C 3.34598327 11.54270427 7.77555748 -0.00190963 0.00231473 -0.00108464
C 0.14376764 14.92092674 11.01856211 0.00249203 0.00187634 0.00411448
C 3.53778018 12.16305830 12.55022502 0.00471450 0.00362846 -0.00180463
C 0.37107439 14.85742194 15.95407455 0.00365745 0.00394678 -0.00040333
C 3.19711356 11.93615840 17.13870237 0.00552833 0.00229848 -0.00111082
C 0.21632063 14.57871107 20.64516070 -0.00535214 0.00671379 -0.00469213
C 3.21856246 11.66710574 21.93159188 0.00229023 0.00327491 -0.00330562
C 0.50804137 20.47014558 1.66888165 -0.00081785 -0.00325119 -0.00513866
C 3.69023207 17.41201214 3.13108528 0.00282867 -0.00117701 0.00281074
C 0.65313171 20.51636888 6.59004494 -0.00022577 -0.00445739 0.00919797
C 3.68429816 17.40525405 7.80686317 0.00053878 -0.00148616 0.00538124
C 0.44435671 20.39842696 11.32646984 0.00079763 -0.00287791 -0.00104144
C 3.75397449 17.52431481 12.53858333 -0.00197047 -0.00081593 -0.00316558
C 1.05000039 20.53518797 15.92477814 -0.00160946 0.00038135 -0.00598684
C 3.92007706 17.58960363 17.42580404 -0.00134615 0.00057493 -0.00010689
C 0.90304794 20.47081455 20.64378845 0.00054061 0.00086392 0.00492080
C 3.81367580 17.34913314 22.07887527 0.00433859 0.00037683 -0.00388030
C 0.01853048 27.34236735 1.77651821 -0.00046265 -0.00638558 -0.00420675
C 3.13721947 24.43528723 3.02570374 -0.00009975 -0.00041663 0.00360676
C 31.11907595 26.94326427 6.66668450 -0.00122098 0.00016967 -0.00121224
C 3.08640034 24.18671887 7.89838682 -0.00290947 0.00408749 0.01074506
C 30.95185233 26.97971258 11.23858028 0.00257108 -0.00191929 0.00500841
C 3.04271442 24.14289351 12.59585212 -0.00062051 0.00051656 0.00083417
C 31.07680226 26.86968947 15.94498069 -0.00031943 0.00109781 -0.00418904
C 3.45111622 24.40195533 17.34685252 -0.00409723 -0.00317916 -0.00525228
C 0.28249487 27.13302399 20.88897883 -0.00305709 -0.00037627 0.00135318
C 3.30535081 24.34157128 22.05437478 0.00435949 -0.00572586 -0.00213894
C 6.12846571 3.16098321 1.93592808 -0.00171672 -0.00212670 0.00389080
C 9.01201518 0.40293315 3.14879788 0.00711254 0.00446365 -0.00145494
C 5.81576588 3.12813021 6.56336495 0.00259339 -0.00154920 -0.00112989
C 9.07344693 0.20164742 7.74244398 0.00441563 -0.00166945 0.00272800
C 5.94077672 3.23275780 11.27083252 0.00424600 0.00548647 -0.00287968
C 9.11867937 0.26692834 12.45076929 -0.00712055 0.00434299 -0.00008633
C 6.07946985 3.58112491 15.99921694 -0.00128970 -0.00181498 -0.00012849
C 9.05388262 0.46487330 17.27912837 0.00224996 0.00214325 0.00284309
C 6.01680337 3.16176984 21.00648694 -0.00279490 -0.00884451 -0.00296593
C 9.29827652 0.19901108 22.01555225 -0.00346904 -0.00342173 0.00458276
C 6.28277913 8.92751602 1.75067096 0.00493016 0.00039768 -0.00072350
C 9.54445684 5.85498345 3.13619941 -0.00645002 0.00117451 -0.00619207
C 6.56783027 8.78756028 6.65524403 0.00377971 -0.00458027 -0.00402194
C 9.59481930 5.93899897 7.83857108 -0.00221032 -0.00394422 0.00481781
C 6.24898024 8.77687289 11.17808259 -0.00230618 0.00531841 -0.00050712
C 9.48864736 5.97466710 12.57087778 0.00632772 0.00026002 -0.00422148
C 6.33100862 8.79942542 15.93089016 -0.00113835 -0.00553140 -0.00280375
C 9.37058777 5.70682269 17.21207096 0.00272505 0.00117396 0.00018301
C 6.20924763 8.76552860 20.67448574 0.00135366 0.00374940 -0.00138419
C 9.33236607 5.70960952 21.87766794 0.00086877 -0.00590205 0.00196682
C 6.83653154 14.39715657 1.84662682 -0.00857110 -0.00295697 0.00229730
C 9.84501283 11.75924551 3.02434656 0.00156875 0.00083880 -0.00471082
C 6.83550553 14.49072449 6.51116458 -0.00054317 0.00049452 -0.00532063
C 10.14873422 11.61790425 7.74776891 0.00061362 0.00133218 -0.00153442
C 6.89501295 14.45471184 11.25981348 -0.00549540 0.00355777 0.00667623
C 9.95212017 11.62669923 12.37158030 -0.00744719 0.00550641 -0.00236247
C 6.81734885 14.31684615 15.86408897 0.00340916 -0.00114556 -0.00211208
C 9.78632649 11.57685979 17.23974938 0.00696272 -0.00059461 -0.00693447
C 6.66140249 14.18025996 20.66092512 0.00187827 -0.00722647 -0.00000329
C 9.69708367 11.60700465 22.01947910 0.00711730 -0.00216523 0.00491389
C 6.07819401 21.05915506 1.81064825 0.00054897 -0.00153422 0.00038087
C 9.07920130 17.91410425 3.13360523 0.00102881 -0.00079316 -0.00174987
C 6.20514234 21.25773407 6.57689583 0.00123513 0.00106397 0.00530051
C 9.23803399 18.03154487 7.76055165 0.00304979 0.00258164 -0.00282558
C 6.25766243 21.24516053 11.26249904 -0.00624882 0.00036565 -0.00258504
C 9.28166920 18.38415784 12.57342729 0.00944512 -0.00172820 -0.00340488
C 6.33114094 21.47451876 15.99335878 0.00234595 -0.00320713 0.00306772
C 9.02337475 18.12189695 17.32680805 0.00169258 -0.01041644 -0.00203522
C 6.73508245 21.63942429 20.60783209 0.00432491 -0.00083058 0.00231462
C 9.36925393 18.03571905 21.97808653 -0.00429758 -0.00143550 -0.00284225
C 5.81708374 27.62122184 1.80715447 -0.00200943 -0.00346650 0.00189628
C 8.91199602 24.83037373 3.11208411 0.00082006 -0.00144199 -0.00678424
C 5.30745290 27.87858565 6.39701024 -0.00186543 -0.00192379 0.00542942
C 8.62449237 24.80455734 7.81147887 -0.00440859 -0.00041122 -0.00105449
C 5.65201743 27.65101879 11.16886254 -0.00114673 0.00882371 -0.00476218
C 9.02810295 24.79138035 12.46058978 -0.00468131 -0.00515143 -0.00760587
C 5.59704297 28.12533966 16.08242501 0.00489411 -0.00231734 -0.00546131
C 8.95629151 25.07179827 17.24310352 0.00061869 0.00080062 -0.00202574
C 5.60413694 28.05208422 20.86358457 -0.00204812 -0.00010739 -0.00052516
C 8.60620159 24.71244424 22.12336701 0.00201927 -0.00545403 0.00024143
C 12.69859283 2.63208253 1.46557112 -0.00027823 -0.00778532 0.00174837
C 16.09367709 30.02070689 2.95413047 0.00178166 -0.00284922 -0.00948938
C 12.42691602 2.64812176 6.49833917 -0.00163753 0.00668247 0.00384983
C 16.06139637 29.96396769 7.85768273 0.00248366 0.00066603 -0.00578220
C 13.10384449 3.01470316 11.10557598 0.00048174 -0.00923576 -0.00110753
C 15.76111580 29.76871265 12.60383751 0.00095343 0.00724266 0.00009867
C 12.78897844 2.83824005 15.92576224 0.00481412 -0.00255844 -0.00151908
C 15.91978894 29.84589053 17.24433642 -0.00672016 -0.00486535 -0.00567122
C 12.70606261 2.67479692 20.50391562 0.00609905 -0.00183701 0.00398085
C 15.80073730 29.80580600 21.90395786 0.00182563 0.00439865 0.00403083
C 13.01526291 8.39884155 1.63333714 0.00120279 0.00599652 -0.00353932
C 16.08595034 5.49215261 2.68530071 0.00038786 0.00313810 0.00167637
C 13.26885213 8.69245433 6.31064393 -0.00855744 -0.00576840 0.00183554
C 16.28253132 5.66986133 7.61449568 -0.00272250 -0.00061506 -0.00027087
C 12.97716145 8.57129215 11.22575909 -0.00034985 -0.00028773 -0.00043621
C 16.06536340 5.49526312 12.56780046 -0.00705447 0.00225840 -0.00130676
C 12.80042407 8.50439099 15.87989708 -0.00395122 0.00190184 -0.00021635
C 16.33352812 5.79149622 17.12666524 0.00099220 0.00236784 0.00014497
C 13.13949620 8.51101655 20.59555833 0.00607121 0.00063101 0.01035615
C 15.92320891 5.38784024 21.75515239 -0.00092102 0.00061102 0.00153245
C 12.59040951 15.00810135 1.78604651 0.00553164 -0.00173776 -0.00321420
C 15.56463685 12.21101787 2.98612048 0.00725362 -0.00045736 0.00233796
C 12.33299472 15.30808180 6.29521154 -0.00374647 -0.00003437 -0.00264874
C 15.68905107 11.92034346 7.71696871 0.00078569 0.00503882 -0.00430801
C 12.56793998 15.03970840 11.11741934 -0.00130602 0.00054047 -0.00420766
C 15.38708089 12.24374013 12.46849546 0.00110507 0.00129631 -0.00269182
C 12.18206856 15.10128949 16.14716963 0.00536856 -0.00241364 -0.00271327
C 15.55196645 12.09754551 17.37451738 0.00079541 0.00088233 -0.00548084
C 12.05804860 15.10250193 20.69901560 0.00124089 -0.00954562 0.00565034
C 15.68813331 11.83033667 21.98235763 0.00108208 0.00562270 -0.00378104
C 11.93367309 21.55278883 1.72245923 0.00808845 0.00038628 0.00362140
C 14.73474542 18.59294845 2.85617292 -0.00077559 0.00269658 -0.00184840
C 11.77246589 21.78121886 6.59846344 -0.00564232 -0.00560381 0.00066233
C 14.93058747 18.96910935 7.65361426 -0.00188399 0.00305633 -0.00452549
C 11.63281759 21.65809274 11.13210473 -0.00522392 0.00662564 0.00230820
C 14.94532345 18.52048866 12.34304091 -0.00548034 0.00131275 0.00104570
C 11.76962705 21.56331302 15.94978550 -0.00001713 -0.00107117 0.00134625
C 14.93734220 18.74003935 17.17719415 0.00576144 -0.00059849 0.00589691
C 11.80519442 21.90440460 20.69294349 -0.00303620 -0.00357651 0.00435936
C 14.99220109 18.75071907 21.96458699 -0.00531948 0.00169605 0.00455370
C 12.21890466 27.51146762 1.77116433 0.00476444 -0.00023015 0.00213212
C 15.51172845 24.50992692 2.93490329 -0.00326037 -0.00562837 0.00789651
C 12.37474707 27.52175546 6.51691332 -0.00091604 0.00057466 -0.00083157
C 15.28862270 24.27569181 7.50725459 0.00339144 0.00221345 0.00070959
C 12.40333584 27.31906160 11.28861292 -0.00251492 -0.00327938 -0.00392923
C 15.24675410 24.05313370 12.46203501 0.00027232 0.00342655 -0.00122671
C 12.28446813 27.42249066 15.94150343 -0.00231974 -0.00000750 -0.00096077
C 15.24729205 24.22577311 17.27698937 -0.00013117 0.00423703 -0.00043406
C 12.37199606 27.71018227 20.68782748 0.00453858 0.00721844 -0.00005967
C 15.30618515 24.18251374 21.91915468 0.00131637 -0.00085140 0.00017164
C 19.42891920 2.68272021 1.51653627 0.00275254 0.00114710 0.00408891
C 22.29796797 29.70393133 2.82972876 -0.00217088 0.00191866 0.00136877
C 19.16740796 2.58428179 6.29130401 -0.00399065 -0.00325929 -0.00610345
C 22.52481395 29.59486530 7.90775330 -0.00344372 -0.00917776 0.00224771
C 19.37812545 2.49667631 10.89555107 -0.00239656 0.00432771 -0.00137221
C 22.44284413 29.59729318 12.69063544 0.00751352 -0.00273075 -0.00192176
C 19.35611317 2.54531879 15.81546464 -0.00645526 0.00607208 0.00860161
C 22.53199362 29.49096391 17.37536328 0.00117217 0.00066668 -0.00148170
C 19.26019919 2.48998438 20.53009754 0.00167841 0.00987854 -0.00347868
C 22.53239897 29.46464046 22.07951821 0.00228485 -0.00448279 -0.00194894
C 18.74428750 8.96265655 1.52172584 -0.00184511 -0.00292058 -0.00242850
C 21.88117602 6.03585946 3.00890951 0.00254967 0.00106978 -0.00051525
C 18.88848291 9.03490976 6.26156895 0.00255760 -0.00062587 0.00570065
C 21.97924137 6.38683521 7.57160928 0.00238532 0.00360058 -0.00435014
C 18.58568561 9.20121920 11.12612221 -0.00112568 -0.00007520 -0.00127731
C 21.73216643 5.85219190 12.51413409 0.00722628 -0.00020681 -0.00133681
C 18.82338576 9.28840688 15.73080278 0.00581151 0.00361099 -0.01034489
C 21.90094922 6.15938943 17.16955362 0.00491742 -0.00383420 -0.00432223
C 18.88137819 8.97051678 20.51890154 0.00082889 0.00193038 0.00312338
C 21.84350176 5.70173818 21.98860391 0.00279281 -0.00148966 0.00384309
C 17.98912164 15.63921363 1.72345458 0.00247714 0.00844034 0.00584555
C 21.21198580 12.76475854 2.86368494 -0.00155854 0.00230247 -0.00240103
C 18.02812731 15.74441879 6.51155198 -0.00263706 0.01084947 -0.00176312
C 21.33724521 12.72618248 7.54081156 -0.00186233 0.00169402 -0.00958318
C 17.95994562 15.54565242 11.03624929 -0.00751573 0.00061909 0.00476908
C 21.13258159 12.83647286 12.35102177 -0.00204233 -0.00166655 0.00428895
C 17.86501482 15.54064927 16.01010380 0.00015633 0.00693454 -0.00452141
C 21.08488291 12.47743790 16.96508907 -0.00030416 -0.00273167 -0.00083677
C 18.04746023 15.55732166 20.74513094 -0.00563287 0.00366091 0.00118095
C 21.27085192 12.45042550 21.77697410 0.00403437 0.00036868 -0.01010230
C 18.22061105 21.46421746 1.62748935 0.00521817 0.00107344 0.00015837
C 21.64066153 17.94490765 3.16655153 0.00347323 0.00145178 -0.00621933
C 18.37525004 21.53223403 6.37470202 0.00410583 0.00028472 -0.00178564
C 21.64786268 18.36361830 7.92272061 -0.00203786 -0.00451609 -0.00508478
C 18.37639966 21.12610682 11.17741428 -0.00480451 -0.00547649 -0.00523032
C 21.58282439 18.12752265 12.51715992 -0.00094418 -0.00278854 0.00454321
C 18.39024496 21.03654831 15.71744512 0.00040154 -0.00626986 -0.00152954
C 21.42542467 18.12884004 17.29635140 -0.00326553 0.00172508 0.00196126
C 18.55621640 21.15171510 20.58810151 0.00118081 -0.00420451 -0.00374694
C 21.48493291 18.14310536 21.99397841 -0.00329530 0.00137404 -0.00230820
C 18.94000270 26.94518951 1.78335645 0.00535801 0.00018912 -0.00040181
C 21.99694263 23.60863558 2.94794369 -0.00081535 0.00047897 0.00067870
C 19.04464012 26.86441681 6.42005099 0.00190450 -0.00334685 0.00094671
C 21.92393359 24.02966146 7.86797288 -0.00163211 -0.00084143 0.00394244
C 18.77810644 26.57251475 11.09406171 0.00021417 0.00047217 -0.00144810
C 22.21060202 23.59880156 12.54945306 0.00689117 -0.00711132 0.00362345
C 19.03282024 26.95975582 16.01045930 -0.00001819 -0.00044920 0.00406181
C 21.91996527 23.68651611 17.27356963 0.00034580 0.00002912 0.00599171
C 19.00080590 26.56818259 20.70730325 -0.00184220 0.00142932 -0.00091928
C 22.01610422 23.88442086 22.09546862 0.00890198 0.00447329 -0.00170170
C 24.97758737 2.82951259 1.50020093 0.00742821 -0.00253535 -0.00897731
C 27.83214516 29.76291595 3.20996592 -0.00271714 -0.00038676 0.00141861
C 24.70648430 3.02241867 6.40011986 -0.00565640 0.00261223 -0.00151505
C 27.95627068 0.13788207 7.73743401 -0.00747738 0.00207517 0.00308538
C 25.08646917 2.98009134 11.17389796 0.00419309 0.00833977 -0.00027497
C 27.68896286 29.93595998 12.43183671 0.00354078 0.00006026 -0.00224455
C 25.10387725 2.97507754 16.06023214 -0.00205452 -0.00071968 0.00436442
C 28.16968584 30.07590982 17.18404625 0.00947299 -0.00306025 0.00571537
C 24.69311656 3.18469184 20.63138017 0.00419602 0.00256175 -0.00045663
C 27.97430557 29.86124930 21.90310584 -0.00246839 0.00142901 -0.00008849
C 24.21048600 9.65952631 1.56288667 0.00497144 -0.00758456 -0.00627027
C 27.33833687 6.55401213 2.89840836 -0.00448934 0.00280787 0.00667602
C 24.25997353 9.74432827 6.22657703 0.00751791 0.00610916 -0.00027714
C 27.26499117 6.53777132 7.72207070 -0.01156433 -0.00068032 0.00496035
C 24.18878295 9.75149727 10.99131793 -0.00352559 0.00289115 0.00711952
C 27.51610779 6.65633767 12.41917458 -0.00189665 -0.00371896 0.00356702
C 24.36632946 9.85405950 15.64452523 -0.00372014 -0.00128106 0.00267468
C 27.19803013 6.63558705 17.19914016 0.00294846 0.00606579 -0.00080636
C 24.42121341 9.62471122 20.63095747 0.00215650 0.00992112 -0.00171229
C 27.40347789 6.62704557 21.86325492 -0.00687838 0.00494740 0.00405707
C 24.90874947 15.27064671 1.70523899 -0.00470279 -0.00283831 0.00592153
C 27.99001071 11.96672931 2.96049995 0.00037437 0.00360131 -0.00182878
C 24.94916076 15.24199404 6.42323252 0.00494283 0.00069244 0.00101739
C 28.05007894 12.15990973 7.87005596 0.00112562 -0.00178030 -0.00356927
C 24.76743606 15.08568784 11.17772600 0.00570796 0.00289390 -0.00427763
C 27.71506182 12.26199300 12.45393493 -0.00204064 0.00045273 -0.00316738
C 24.62716108 15.29661336 15.89464616 -0.00143272 -0.00045955 -0.00279649
C 27.84811445 12.22590371 17.12512844 -0.00287531 0.00350856 0.00295259
C 24.92488404 15.15339737 20.59423431 0.00564086 0.00792520 0.00814136
C 27.99171760 12.28982644 21.83075501 -0.00040773 0.00263993 -0.00358910
C 25.04743774 20.90853244 1.72743614 0.00219969 -0.00508787 -0.00131659
C 28.33790176 17.74742250 3.21410423 -0.00148651 -0.00438225 -0.00105331
C 24.98576835 20.81774452 6.64219923 -0.01102829 -0.00027612 0.00473145
C 28.22960731 18.13060298 7.87427925 0.00258011 0.00515229 0.00109295
C 24.97429995 20.81939226 11.40146856 -0.00014836 -0.00361822 -0.00561248
C 28.50808888 17.77085861 12.67409092 -0.00618684 0.00140521 0.00140682
C 24.86348928 20.65950852 16.10351920 0.00020303 -0.00075146 0.00131286
C 28.37841428 17.57251159 17.37776811 0.00286008 0.00128763 0.00081325
C 25.08248374 20.76102468 20.81515395 0.00260328 0.00515397 -0.00020042
C 28.51612173 18.26770316 22.17518941 0.00102597 -0.00327351 -0.00385628
C 25.63860159 26.38550939 1.64210546 -0.00682436 0.00319791 0.00273742
C 28.50100765 23.70632099 3.18715125 -0.00057687 -0.00261866 0.00030824
C 25.37771633 26.53699063 6.31489510 -0.00411115 0.00010371 -0.00326351
C 28.55776451 23.44422884 7.75875715 0.00104593 -0.00534861 0.00682412
C 25.49630434 26.37252498 11.37634278 -0.00515662 -0.00127366 -0.00092931
C 28.66123943 23.25180883 12.58033408 -0.00671962 -0.00110477 0.00278023
C 25.39452903 26.45653307 15.97318845 -0.00145164 -0.00291175 0.00251571
C 28.47758338 23.36154290 17.28640324 0.00740491 0.00685483 -0.00133918
C 25.70187858 26.41882892 20.52914415 0.00355201 0.00826005 0.00821244
C 28.95338251 23.55122300 22.17237021 0.00243162 -0.00519331 -0.00280328
N 0.16969902 4.21382433 1.09401538 -0.00575334 -0.00140782 0.00690426
N 3.41042770 5.15876737 3.57364932 -0.00231287 0.00071918 0.00286720
N 5.47843480 2.12376488 1.43167934 -0.00130580 -0.00043538 0.00525087
N 1.81791064 1.53999102 3.80234006 -0.00638166 -0.00126602 0.00731173
N 0.09279884 4.18942710 5.96233255 0.00176811 -0.00356971 0.00225891
N 3.58385864 5.13595030 8.35284288 -0.00812362 0.00483136 -0.00058437
N 5.04564472 2.39015088 5.75396520 -0.00305151 0.00024690 0.00142908
N 1.53559335 1.61104511 8.43831545 0.00255742 -0.00719701 0.00213338
N 31.08029554 4.35085593 10.17239917 0.00277153 -0.00024681 0.00310377
N 3.40455523 5.24951671 13.11636054 0.00131808 0.00180964 0.00067154
N 5.19048782 2.50339428 10.38899776 -0.00244748 -0.00184084 0.00126828
N 1.68179078 1.42733375 13.48477728 -0.00041255 -0.00354886 -0.00355113
N 0.10121898 4.45135590 15.32701670 -0.00256684 -0.00688882 -0.00559231
N 3.26734863 5.21471594 17.98522216 0.00321879 -0.00366233 -0.00607039
N 5.41403389 2.46111523 15.43463416 -0.00233175 0.00147598 0.00238021
N 1.63870927 1.40501496 17.98909468 0.00918855 0.00494414 -0.00084653
N 0.20437795 4.51633686 20.02636964 -0.00535335 0.00128954 -0.00690643
N 3.39335431 5.06033226 22.61701309 -0.00123107 -0.00642889 -0.00550024
N 5.45497169 2.22529272 20.13215010 -0.00317497 -0.00044983 0.00100435
N 1.63919847 1.19328992 22.66450677 0.00429188 -0.00682879 0.00288556
N 0.68444992 9.88293208 0.92830681 0.00080311 0.00687806 0.00221267
N 4.14769007 10.77376699 3.93884474 0.00730279 -0.00006543 -0.00313868
N 5.56393974 8.02368790 1.01070799 -0.00261115 0.00623173 0.00355718
N 2.17712034 7.05989480 3.64033578 -0.00336884 -0.00020057 0.00345854
N 0.55530505 9.82216354 5.59015362 0.00208676 0.00688012 0.00384344
N 3.90317943 10.64555217 8.61645883 -0.00946404 0.00370681 0.00007210
N 5.79346011 7.89100119 5.93912548 0.00010219 -0.00014914 0.00000773
N 2.31174095 7.08042675 8.13481689 0.00145449 0.00169741 0.00034420
N 0.38262120 10.20933725 10.81984864 0.00141859 -0.00028734 -0.00483733
N 4.14341957 11.09780642 13.21222194 0.00122202 0.00590367 0.00081817
N 5.45285679 7.82863514 10.51409242 0.00740081 -0.00216713 -0.00010914
N 2.14323604 7.27034867 13.03831619 -0.00176101 -0.00452865 -0.00101070
N 0.44786072 10.02912177 15.15482410 -0.00110893 -0.00837146 0.00021932
N 4.06876079 11.05964702 17.77987611 -0.00097995 0.00363680 0.00116873
N 5.50545860 8.05810850 15.20965291 -0.00011634 -0.00617598 -0.00164164
N 2.20292489 7.20007059 17.50369202 -0.00173639 0.00319843 -0.00187720
N 0.69838327 9.93222101 19.85572885 0.00442931 0.00169854 0.00239846
N 3.98385863 10.90047329 22.69066734 0.00086149 -0.00133444 -0.00260492
N 5.38200890 8.05896889 19.80845392 0.00190641 -0.00048522 0.00722849
N 2.10454409 6.93797175 22.59807849 -0.00115082 -0.00321748 0.00157424
N 1.05721177 15.77269136 0.82966256 -0.00153901 0.00076194 -0.00311372
N 4.44024398 16.42515306 3.72293093 -0.00749405 -0.00180111 0.00087523
N 5.91210872 13.80416033 1.12216712 -0.00135420 -0.00241100 -0.00400390
N 2.86651886 12.57852553 3.77759316 -0.00626475 0.00169829 -0.00055246
N 0.82058909 15.66281491 5.69517333 0.00358865 -0.00352952 0.00159748
N 4.41616810 16.57367269 8.58212284 -0.00347728 0.00370937 0.00543943
N 6.14087651 13.50467683 5.86808298 -0.00228413 -0.00505434 0.00166139
N 2.79097504 12.61874871 8.35541912 -0.00423175 0.00298871 0.00195122
N 0.89357882 15.79302408 10.25907611 -0.00109736 -0.00359693 -0.01030403
N 4.76370073 16.72607085 13.02673582 0.00426261 -0.00244554 0.00144569
N 6.05951620 13.62565990 10.53790079 0.00027890 0.00072732 0.00133789
N 2.82022409 13.04514663 13.28682192 -0.00166709 0.00209847 -0.00562976
N 0.98369701 15.73550372 15.09717415 0.00015673 -0.00658261 -0.00316084
N 4.53032729 16.57859637 18.04800683 0.00011030 0.00757078 0.00031811
N 6.13151176 13.54459656 15.02225139 -0.00267643 0.00004667 0.00622866
N 2.80867447 13.05297508 17.79356100 -0.00435014 0.00158372 0.00218644
N 1.00420432 15.43317614 19.99512885 -0.00555502 -0.00144612 -0.00649394
N 4.69106798 16.58652317 22.75547826 -0.00143839 -0.00332498 -0.00079727
N 5.75257968 13.48870233 19.94632336 -0.00447224 0.00376214 0.00229012
N 2.53264109 12.52069446 22.67561723 -0.00165662 0.00354199 -0.00357318
N 1.40141666 21.24003232 1.00265188 -0.00148042 0.00100451 -0.00329667
N 4.16282195 23.69389803 3.63740669 -0.00001045 0.00184774 -0.00438955
N 5.32541275 20.15816252 1.13007511 -0.00108753 -0.00117918 -0.00200044
N 3.04822209 18.24903281 3.96768387 -0.00006031 -0.00558117 -0.00056486
N 1.43692407 21.38386057 5.85941428 0.00632288 0.00457261 0.00162096
N 3.96197705 23.42210679 8.65642407 0.00001584 0.00807206 0.00090947
N 5.50356598 20.36575878 5.91884355 0.00022544 -0.00120317 0.00525072
N 2.86650892 18.29029949 8.50642451 -0.00920784 0.00175005 -0.00347706
N 1.31167462 21.29418485 10.64460720 0.00644238 0.00275286 -0.00410060
N 4.05820989 23.61572356 13.29640356 0.00320376 -0.00336109 -0.00020509
N 5.33342834 20.53430358 10.51288763 -0.00440743 0.00593298 0.00565106
N 3.26299545 18.41503015 13.44269641 0.00204375 -0.00508681 -0.00420726
N 1.75244807 21.40539823 15.09302187 0.00089189 0.00004909 -0.00249470
N 4.40833528 24.00948242 18.24069359 -0.00261283 -0.00913524 -0.00152178
N 5.47136779 20.69358472 15.29783170 0.00240671 -0.00094170 -0.00248940
N 3.19917100 18.35944924 18.25990583 0.00354275 -0.00323279 0.00207924
N 1.71679702 21.29944296 19.97161481 -0.00173426 0.00048342 0.00671767
N 4.11204365 23.55831587 22.74165414 -0.00114335 -0.00231187 0.00612708
N 5.82452731 20.82176870 20.15513783 0.00571705 0.00374015 0.00488143
N 3.12820213 18.30312028 22.80113506 0.00085268 0.00065675 0.00515349
N 0.76033634 28.15007619 1.00004727 -0.00110045 0.00161269 -0.00136598
N 3.22681128 29.78963803 3.79828301 0.00118769 0.00244037 -0.00050127
N 5.01374148 26.84183875 1.04060773 -0.00299332 0.00529797 -0.00210839
N 2.16293480 24.87236829 3.87797670 0.00077281 0.00138847 0.00062125
N 0.79466147 27.87479011 6.08417876 0.00026071 0.00616059 -0.00440277
N 3.15815209 0.01753456 8.68402559 0.00387816 0.00088919 -0.00325125
N 4.86330404 26.85469140 5.65064014 -0.00137071 0.00297692 0.00590408
N 2.13486358 24.93410737 8.60119343 0.00472904 0.00007709 0.00243205
N 0.60153527 27.85331840 10.54460697 0.00171650 -0.00119312 0.00216441
N 3.23379083 30.00074083 13.22269133 -0.00130113 -0.00146900 -0.00557448
N 4.86336160 26.76863664 10.53720484 0.00251883 -0.00506141 -0.00476845
N 1.96327723 24.68976261 13.36198395 0.00229806 -0.00895079 -0.00234391
N 0.67034960 27.73331806 15.19985891 0.00088460 -0.01024383 -0.00456767
N 3.25208485 29.95538918 18.01921977 -0.00183975 0.00341900 -0.00335970
N 4.80759941 27.16135266 15.40329904 0.00498643 -0.00209187 0.00590079
N 2.25202394 24.81563344 17.80029765 0.00233138 0.00462502 -0.00378388
N 1.17548381 27.71606315 19.98244474 0.00480280 -0.00281621 -0.00153728
N 3.28281874 29.80424975 22.70917448 0.00074670 0.00219915 -0.00460722
N 5.09126541 27.06261540 20.11217316 -0.01130433 0.00104960 0.00242205
N 2.18395158 24.83978561 22.75633019 0.01346807 -0.00243426 0.00245686
N 6.57598695 4.15032879 1.11064758 0.00817065 -0.00637824 0.00139460
N 10.22011543 4.86995380 3.76061842 -0.00278433 0.00834875 -0.00593104
N 12.07652752 1.56593106 0.70602580 0.00083415 0.00141038 -0.00236430
N 8.41568897 1.40869704 3.75775059 -0.00001469 -0.00194918 -0.00087449
N 6.60709167 4.10353227 6.08752350 -0.00707856 -0.00574062 -0.00658443
N 10.07385927 4.99001738 8.65560065 -0.00079219 0.00533643 -0.00280904
N 11.69505630 1.73646990 5.74516223 0.00047377 -0.00425366 -0.00263834
N 8.64444178 1.17184045 8.58035523 0.00198894 0.01142933 -0.00097532
N 6.87042786 4.05088223 10.64736588 0.00040492 0.00242208 0.00153857
N 10.10548485 5.12213482 13.44147868 0.00149287 -0.00204259 0.00354534
N 12.00784198 2.34383451 10.62771531 -0.00030665 0.00051725 0.00304556
N 8.56314943 1.28032428 13.17130520 -0.00058299 -0.00176466 -0.00287103
N 6.83902150 4.26076215 15.13842702 0.00146989 0.00401775 0.00082733
N 10.07804679 4.91911540 18.05757467 0.00411795 0.00376022 -0.00578530
N 12.01716994 2.06884406 15.10525917 -0.00493824 -0.00648300 0.00246369
N 8.38172998 1.20074554 18.14830038 0.00047318 -0.00437332 0.00020808
N 6.65633584 4.17479790 20.40952963 0.00116822 -0.00509910 0.00192299
N 10.04482961 4.72866049 22.53322146 0.00148521 -0.00207479 -0.00001318
N 11.87030123 1.80536075 19.88195809 -0.00404311 -0.00073926 0.00333277
N 8.52853033 1.04929266 22.75581584 -0.00648062 -0.00593915 0.00368283
N 7.05861971 9.77331800 1.06932995 -0.00080092 -0.00515462 -0.00480293
N 10.80359101 10.97503198 3.57516015 0.00207487 -0.00521863 0.00385987
N 12.20860039 7.45883730 0.98091893 0.00070974 -0.00108263 -0.00169330
N 9.28866706 6.94646180 3.91209310 0.00448916 0.00654755 0.00037949
N 7.28085159 9.78759103 6.03494977 0.00042006 0.00307940 0.00276158
N 10.82896818 10.69025022 8.44608711 0.00145924 -0.00188565 -0.00393842
N 12.37433361 7.92163190 5.63382990 -0.00328770 0.00524760 -0.00113602
N 8.80931268 6.85555061 8.46202214 -0.00370631 0.00113492 0.00190812
N 7.02203346 9.63102639 10.44654502 -0.00007013 0.00148133 0.00556923
N 10.54212472 10.81793333 13.27759088 -0.00451445 -0.00091435 -0.00143665
N 12.31404938 7.63039505 10.53564810 -0.00397729 -0.00114864 -0.00019565
N 8.90593550 7.08541339 13.09824974 0.00715087 -0.00398494 0.00178324
N 7.05095231 9.73790664 15.26124346 -0.00127487 -0.00285752 0.00208653
N 10.51353111 10.82203543 18.09582935 -0.00121870 0.00180540 -0.00147686
N 12.10253034 7.54351930 15.22692051 -0.00011779 -0.00195452 0.00546673
N 8.64568407 6.69760281 17.84361787 -0.00374609 0.00366826 0.00069795
N 7.14458349 9.54785919 20.10957446 0.00102540 -0.00088220 -0.00365575
N 10.50900410 10.63865621 22.66167834 -0.00569002 -0.00508013 -0.00490701
N 12.36032264 7.77842570 19.81457153 -0.00179748 0.00184874 0.00416782
N 8.49191355 6.46219690 22.60821425 -0.00179778 -0.00140910 0.01050005
N 7.73487950 15.24006692 1.20355985 0.00855006 -0.00289651 -0.00094940
N 10.22618262 17.40906773 3.70225218 0.00124299 0.00005761 -0.00243543
N 11.63298167 14.27526591 1.24941814 0.00324318 -0.00019494 0.00002329
N 8.91639678 12.25088057 3.91350389 -0.00011253 0.00241854 0.00252879
N 7.79477021 15.17913963 5.86239465 0.01021880 0.00388664 -0.00078618
N 10.26224637 17.38394437 8.41298106 -0.00212338 -0.00028619 -0.00205792
N 11.59237631 14.36605652 5.60088936 -0.01055183 0.00125226 -0.00205716
N 9.25544406 12.37213225 8.47423002 0.00191937 -0.00426201 -0.00849845
N 7.81135853 15.17926513 10.54224144 -0.00123656 0.01037665 0.00079046
N 10.33071485 17.78788651 13.18066521 -0.00118862 0.00126872 0.00522380
N 11.60238799 14.51293053 10.43208315 -0.00362990 0.00033199 0.00022117
N 9.00743427 12.40598919 12.94082297 0.00264797 0.00195204 -0.00308002
N 7.62503576 15.27185244 15.29123464 0.00698709 0.00058977 0.00071774
N 10.06440628 17.42116960 17.78484805 -0.00130177 -0.00374134 -0.00282445
N 11.55885784 14.31784458 15.25399148 0.00192159 -0.00138707 0.00067225
N 9.02805611 12.53026459 17.88770612 0.00138831 -0.00352186 0.00002546
N 7.52803852 14.95848416 19.99663285 -0.00328158 0.00806267 0.00257524
N 10.34755265 17.75459714 22.96555285 0.00099374 -0.00335757 -0.00180695
N 11.34418401 14.18096138 19.94242391 -0.00255800 0.00022051 0.00147832
N 9.00602355 12.39556440 22.77711996 0.00664343 0.00421186 0.00315622
N 6.93762440 21.81922659 1.04542292 -0.00186783 0.00132061 -0.00102081
N 9.64975161 23.97055695 3.85941003 0.00071509 0.00416275 0.00068742
N 11.16122902 20.72592417 1.01665444 -0.00051935 0.00284142 -0.00042173
N 8.21521319 18.48581688 3.94081213 -0.00084903 0.00119330 -0.00139414
N 6.97745683 22.08977766 5.86071760 0.00093461 0.00121707 -0.00163637