2000
Time=9000.00000000 pbc="T T T" Lattice="31.24294944 0.00000000 0.00000000 0.00000000 29.80310607 0.00000000 0.00000000 0.00000000 23.63146356" energy=-12039.83634770 virial="-73.73112469 21.51418826 -22.71109251 21.51418826 -6.71541729 21.89175557 -22.71109251 21.89175557 -107.31501927" stress="-0.00145610 0.00093461 -0.00106223 0.00093461 0.00171516 0.00100457 -0.00106223 0.00100457 -0.00191257" Properties=species:S:1:pos:R:3:vel:R:3
C 30.54287188 3.54771571 1.77120091 0.00050779 0.00065141 -0.00449800
C 2.50072095 0.74561004 3.04968990 0.00072292 -0.00030158 -0.00586658
C 30.53144241 3.69583184 6.42442619 -0.00516846 -0.00070183 -0.00507421
C 2.59928513 0.87242228 7.66747931 -0.00062320 -0.00119556 -0.00155899
C 30.69214134 3.52775989 11.13830410 -0.00147539 0.00570068 -0.00603456
C 2.54839299 0.50261622 12.48077099 0.00076669 0.00009043 0.00372104
C 30.74208078 3.37522699 15.84733533 -0.00733530 0.00385016 -0.00480538
C 2.44769345 0.67496438 17.24564618 -0.00589084 0.00123965 -0.00162615
C 30.67242110 3.52604032 20.62356123 0.00037318 0.00049447 0.00113168
C 2.48357005 0.56504880 21.98380213 0.00003580 0.00476674 0.00148550
C 30.92949275 9.38794736 1.62012122 -0.00470350 0.00656066 -0.00248093
C 3.06865710 6.20747519 3.10822256 0.00236651 -0.00089493 -0.00209678
C 31.02418453 9.20940764 6.53303012 0.00161953 -0.00340711 -0.00302864
C 2.84717128 6.36316557 7.72018847 0.00735066 -0.00098464 0.00006691
C 31.08103251 9.21227526 11.37215060 -0.00282543 0.00478390 0.00301931
C 2.92921810 6.26356485 12.58317081 -0.00306150 0.00161039 0.00823557
C 31.00772829 9.12787577 16.00773558 -0.00334252 -0.00100383 -0.00047853
C 2.79407954 6.13418316 17.23559804 -0.00071310 0.00054892 0.00476923
C 30.99838914 9.19865043 20.53402161 0.00478647 -0.00296843 -0.00012594
C 2.67612892 6.04952006 22.10691601 0.00739882 -0.00228566 0.00011825
C 31.11149902 14.59715094 1.69864937 -0.00051458 0.00118681 -0.00173573
C 3.40238112 11.81921499 2.92426858 0.00317642 0.00207428 -0.00880782
C 0.15519038 14.74070608 6.50022045 -0.00210207 -0.00031974 -0.00408964
C 3.23485947 11.79903189 7.89726841 -0.00227491 -0.00255826 -0.00169222
C 0.33106387 14.81422135 11.20737589 -0.00332126 -0.00090777 0.00053476
C 3.42495069 11.68401187 12.59352767 -0.00162659 -0.00485421 -0.00303856
C 0.09842845 14.55974594 16.09733240 0.00365940 -0.00434348 -0.00118667
C 3.27702316 11.49220094 17.19066736 0.00233665 -0.00635413 -0.00240120
C 0.09463837 14.75393902 20.81806690 -0.00225496 0.00144019 -0.00374568
C 3.24922442 11.63589211 21.91591947 -0.00210027 0.00474175 0.00204407
C 0.58583514 20.27392418 1.74058085 0.00085295 0.00243907 0.00625703
C 3.65988415 17.25106132 2.99005989 -0.00228089 -0.00437584 -0.00483845
C 0.73107109 20.37340994 6.32031444 0.00680315 -0.00268566 -0.00119258
C 3.79831336 17.38166688 7.73278911 -0.00355771 0.00099387 -0.00403679
C 0.77422813 20.51679759 11.09526669 0.00436922 -0.00097809 0.00065838
C 3.75064159 17.05844605 12.52078168 -0.00028816 -0.00157176 0.00509926
C 0.61081957 20.35029390 16.00059061 -0.00459783 -0.00016051 0.00104186
C 3.77192497 17.39609530 17.34082015 0.00561838 -0.00216659 -0.00277466
C 0.76039820 20.21212142 20.67513041 0.00778087 -0.00227683 -0.00107018
C 3.58352549 17.07297301 22.00735737 -0.00736781 0.00513783 0.00174080
C 31.18119950 26.73580962 1.58915778 0.00173030 0.00394214 -0.00006851
C 3.19805834 24.04730293 2.83018200 0.00183453 0.00180179 0.00327366
C 0.00514604 26.75706639 6.39674805 0.00153108 0.00286412 -0.00516413
C 3.08882337 23.85883297 7.67201529 0.00048682 -0.00332621 0.00338835
C 31.12625782 27.00613689 11.02405193 0.00612433 0.00131671 -0.00246079
C 3.07463371 23.86960416 12.48817349 -0.00301194 0.00211035 -0.00485034
C 31.20572254 26.69739128 15.85922250 0.00162743 0.00634276 0.00183487
C 3.06655132 24.07596386 17.20623823 0.00425544 0.00023817 0.00297952
C 31.01889536 26.82513479 20.56572693 0.00113664 -0.00002044 0.00590289
C 2.85128390 23.72376592 21.86873456 -0.00151752 0.00084890 0.00218146
C 6.03611869 3.31469462 1.65877981 0.00066658 -0.00115318 0.00065561
C 9.16775232 0.36159963 2.98805018 0.00105968 0.00373212 0.00270513
C 6.19919493 3.14266736 6.54398808 -0.00233272 -0.00179272 0.00501881
C 8.97397788 0.21764728 7.75917478 -0.00107786 0.00567567 -0.00368399
C 5.82366843 3.47090092 11.22092091 -0.00342092 -0.00228016 -0.00336659
C 8.93849636 0.19049786 12.37777534 -0.00220609 0.00385567 -0.00281195
C 6.07987531 3.30817460 15.85296356 0.00023622 0.00115103 -0.00293312
C 8.98303066 0.17990593 17.20087945 0.00417522 0.00222240 -0.00422928
C 6.02628418 2.99194619 20.56891436 -0.00405423 0.00304280 -0.00455118
C 9.05253853 0.22507341 21.97305130 0.00226317 -0.00296296 -0.00291639
C 6.74484107 8.54628325 1.64615149 0.00669547 -0.00304465 -0.00044503
C 9.74249578 5.77736112 3.06265117 0.00118391 -0.00258851 -0.00868353
C 6.43182821 8.57612994 6.41865862 -0.00616884 0.00378414 0.00321426
C 9.58968108 5.65870004 7.66272744 -0.00793792 0.00552176 -0.00202638
C 6.43018855 8.74467912 11.17400376 -0.00370458 -0.00267473 -0.00411765
C 9.42223457 5.46634246 12.54543356 -0.00240425 0.00197716 -0.00611505
C 6.48361334 8.64675036 15.92598473 -0.00149804 -0.00393034 0.00258498
C 9.51024499 5.77345717 17.27788304 -0.00178397 -0.00109472 0.00429102
C 6.56593235 8.60030489 20.49122330 -0.00280456 -0.00638132 -0.00150802
C 9.94052913 5.83671252 21.87411374 0.00352488 -0.00461324 0.00127326
C 6.83561555 14.09438157 1.65074994 0.00134078 0.00150196 0.00865222
C 10.05167005 11.09924601 3.03585616 -0.00003941 -0.00137171 0.00169174
C 6.91872461 14.31068621 6.42640698 0.00669012 -0.00016767 -0.00049528
C 10.13701658 11.46537668 7.79604106 -0.00021378 -0.00130677 0.00371488
C 6.95965606 14.07596419 11.21660402 0.00382962 0.00198656 0.00238649
C 9.93029058 11.07629323 12.49289404 0.00369338 -0.00272756 -0.00345186
C 6.84913363 14.27886171 16.06205332 0.00224348 -0.00362181 -0.00671671
C 10.19930290 11.13421248 17.29967254 -0.00483739 -0.00650327 -0.00302579
C 6.94683870 14.16606269 20.65849954 0.00281650 0.00173184 0.00448280
C 10.12437357 11.39140662 22.00875570 -0.00150145 -0.00381922 0.00111280
C 6.22238649 20.93806754 1.62671036 0.00228424 0.00823963 0.00295738
C 9.42300675 17.82732964 2.88081630 -0.00056071 -0.00533333 0.00404081
C 6.22514174 20.88646604 6.38733486 -0.00508179 0.00172373 0.00390317
C 9.21768076 17.61140350 7.65332758 0.00609197 0.00224449 -0.00040658
C 6.20302990 20.93513885 11.10645242 0.00090483 0.00214193 -0.00010838
C 9.21571455 17.64362709 12.43536905 -0.00571494 -0.00593015 -0.00055817
C 6.33400917 20.91438739 15.82104892 0.00015301 -0.00097176 0.00807329
C 9.06635420 17.92912702 17.24281904 0.00029711 0.00553398 0.00332987
C 6.34939999 21.00711484 20.59841735 -0.00071050 0.00026804 0.00445954
C 9.30846898 18.00343004 21.84586581 0.00208541 -0.00503412 0.00470848
C 5.63064643 27.52585034 1.69205404 0.00238062 -0.00062428 0.00009342
C 9.03882006 24.56962504 2.80001717 -0.00399291 -0.00139857 0.00277057
C 5.55727185 27.50187748 6.38574769 0.00768194 0.00021777 0.00184123
C 8.87019383 24.55913926 7.68225578 0.00464926 -0.00325389 0.00117681
C 5.42019342 27.45016485 11.13435129 0.00435545 -0.00225020 -0.00042170
C 8.77511930 24.44384551 12.31518159 0.00489598 -0.00012173 0.00229968
C 5.40057986 27.44795123 15.91287327 0.00118681 -0.00004209 0.00036804
C 8.58705832 24.37748812 17.07882952 0.00121272 0.00218345 -0.00303227
C 5.52326994 27.47596353 20.65005328 0.00311272 -0.00265503 0.00453791
C 8.72623721 24.25262959 21.90798298 -0.00461085 0.00533636 0.00552885
C 12.76431223 2.90555248 1.72448281 -0.00020762 -0.00471403 -0.00029110
C 15.78261436 29.62489117 3.05200939 -0.00367963 0.00742736 -0.00174838
C 12.66079814 2.77727134 6.43206161 0.00801046 0.00401074 -0.00060276
C 16.00237468 29.53591441 7.84415744 -0.00145478 -0.00612938 -0.00092915
C 12.63211636 2.58415545 10.96501598 0.00362701 -0.00269215 -0.00742189
C 15.81271726 29.57611031 12.50799711 -0.00197046 0.00006788 0.00357218
C 12.67259961 2.66919944 15.57591390 0.00348760 0.00534827 0.00057559
C 15.88709047 29.52230044 17.17961578 0.00282165 0.00257499 0.00352439
C 12.93766019 2.79604606 20.45259524 0.00551897 -0.00042263 -0.00194848
C 15.65957830 29.63927813 21.82335474 -0.00214508 -0.00234417 -0.00215758
C 13.23892913 8.20546876 1.58156970 0.00249283 -0.00175250 -0.00228415
C 16.05532079 5.06379325 3.12297946 -0.00101786 -0.00086964 -0.00355094
C 13.14868293 8.41181165 6.35208369 0.00222124 0.00109419 0.00488448
C 16.48826004 5.37140635 7.69268217 0.00360266 -0.00102059 -0.00175402
C 13.31297332 8.16175828 11.18437650 0.00224043 -0.00056863 -0.00464376
C 16.41937671 5.33171759 12.37202547 -0.00222844 -0.00532119 -0.00239178
C 13.21621233 8.34488852 15.92811606 0.00497724 0.00061489 -0.00092366
C 16.37429474 5.29101294 17.13681630 0.00004890 0.00259909 -0.00205799
C 13.35887410 8.23168382 20.38076021 0.00715826 0.00089480 -0.00789917
C 16.56374839 5.31153371 21.96281135 0.00245921 -0.00630124 0.00360581
C 12.36742194 14.91302682 1.83435186 -0.00128013 0.00280341 0.00337253
C 15.41421760 12.05922258 2.94534280 0.00293279 -0.00058981 0.00092472
C 12.39886470 14.92663080 6.49687289 0.00393496 -0.00160252 -0.00233695
C 15.63715499 12.02252132 7.64369638 -0.00127234 0.00189290 0.00089536
C 12.55963540 14.89713476 11.21330879 0.00229775 0.00458915 -0.00115686
C 15.61419490 12.10395683 12.52759966 -0.00219263 0.00535481 0.00808023
C 12.51682142 14.85996857 15.87905148 -0.00020215 -0.00616777 0.00728926
C 15.52033348 12.00359772 17.33281944 -0.00596878 0.00429504 -0.00123840
C 12.68304562 14.99500602 20.56422794 0.00224379 0.00147434 -0.00117746
C 15.60787675 12.01444541 21.89936212 -0.00212656 0.00210096 0.00035285
C 11.84515858 21.37261822 1.71882500 0.00027533 0.00405167 0.00310714
C 14.86107621 18.48467900 3.14721419 -0.00301188 -0.00132667 0.00005908
C 11.66575784 21.32400853 6.49378468 -0.00386694 -0.00083809 0.00212422
C 14.87285758 18.31426776 7.79146546 -0.00250731 -0.00849953 0.00250992
C 11.89081470 21.37327756 11.22405988 -0.00238138 -0.00207760 -0.00048842
C 14.94836302 18.55230799 12.43580939 -0.00238997 0.00118092 -0.00093139
C 11.84437366 21.28755761 16.00731269 -0.00689360 0.00014008 -0.00023143
C 14.87847319 18.58047604 17.17905826 0.00489306 -0.00146221 -0.01146555
C 11.64756863 21.43871630 20.53591080 -0.00056890 0.00001365 0.00191571
C 14.85874071 18.33483238 22.05225661 -0.00018279 -0.00101422 0.00122410
C 12.22286603 27.11889156 1.63284692 -0.00129725 -0.00676119 -0.00565476
C 15.31472884 24.03827659 3.01881840 -0.00321426 -0.00033262 -0.00926986
C 12.35292989 26.93448073 6.27184607 -0.01021453 -0.00163760 0.00454384
C 15.29870364 24.08823475 7.67508082 -0.00221299 -0.00002807 -0.00583197
C 11.99230729 26.98263472 11.11088413 -0.00754265 -0.00025000 0.00429310
C 15.35297643 23.95019920 12.55187292 0.00208865 0.00446576 -0.01122573
C 12.05538852 27.04293894 15.69938322 -0.00206004 -0.00453339 -0.00054558
C 15.36287271 24.09219314 17.29753432 -0.00063500 -0.00385379 0.00151209
C 12.12718219 26.94119025 20.56498320 0.00037584 -0.00307808 0.00610003
C 15.24404528 24.21408654 21.96164482 0.00372451 0.00340636 -0.00115388
C 19.33529542 2.11808858 1.88478049 0.00503134 -0.00145177 -0.00257963
C 22.51702522 28.93426851 3.10937450 0.00066037 0.00094018 0.00976019
C 19.41014308 2.20077575 6.42916734 0.00163535 0.00841091 -0.00537661
C 22.66995317 29.26543687 7.73512988 -0.00239619 -0.00072562 -0.00767435
C 19.54506218 2.17767632 11.11032970 -0.00053821 -0.00298380 0.00176946
C 22.68950692 29.29460613 12.50425265 0.00312508 -0.00164124 0.00030161
C 19.64991181 2.34366013 15.93772389 0.00208134 -0.00059560 0.00054383
C 22.66590585 29.14900612 17.19165064 0.00046601 0.00352940 0.00011443
C 19.49331006 2.33900009 20.57964668 -0.00253939 0.00228759 -0.00395666
C 22.56792570 29.06230997 21.92703924 -0.00197072 0.00266914 0.00059142
C 18.73726393 8.93292056 1.56647929 -0.00275368 -0.00049468 0.00117433
C 21.88035132 5.93128341 3.03234150 0.00200143 0.00096343 0.00384615
C 18.71070821 9.12278104 6.44066853 0.00507098 -0.00037872 0.00097346
C 21.94259415 5.97338602 7.80629589 0.00328608 -0.00315846 0.00342554
C 18.74848148 8.90890448 11.19817405 -0.00610897 0.00406805 0.00516041
C 21.59117629 5.95108258 12.59580741 0.00028453 -0.00683758 -0.00406448
C 18.73960826 9.14491341 15.91657107 -0.00584576 -0.00037381 0.00260923
C 21.83832069 6.01189765 17.25908201 -0.00220937 0.00099486 0.00099757
C 18.86943053 9.12159334 20.68171439 -0.00219929 0.00782803 -0.00067652
C 21.85756782 6.01225932 21.96382187 -0.00273422 0.00260125 -0.00607204
C 18.02766565 15.53247594 1.76818973 0.00046254 -0.00192397 0.00146623
C 21.15967745 12.50246762 2.87748608 -0.00125054 0.00398255 -0.00719189
C 18.20530289 15.69757150 6.39392691 0.00188933 -0.00374542 0.00430158
C 21.07298497 12.45751118 7.77889971 0.00171410 0.00190754 -0.00709372
C 18.10335440 15.62814055 11.00955643 -0.00790373 -0.00319492 -0.00156265
C 21.44580761 12.84545693 12.60365030 -0.00470599 0.00191727 0.00449777
C 18.21904303 15.64999807 15.76892624 0.00077973 0.00141788 -0.00113597
C 21.23090403 12.58693577 17.20321011 -0.00137287 0.00451829 0.00359169
C 18.27848672 15.44875322 20.41617989 0.00087232 -0.00077340 -0.00853693
C 21.32574196 12.71543263 21.76631831 -0.00299551 0.00607043 -0.00338864
C 18.58279339 21.27997277 1.63792202 -0.00409483 0.00634200 0.00289370
C 21.56577658 18.00928397 3.02933953 0.00265355 -0.00534824 0.00350299
C 18.46604103 21.16006758 6.42298951 -0.00055408 -0.00367602 0.00134721
C 21.65055822 17.93287711 7.67864122 -0.00551946 0.00335206 0.00046860
C 18.52046071 21.32572464 11.08018181 -0.00063429 0.00005735 -0.00008722
C 21.63091714 18.23469729 12.47812986 -0.00116308 0.00028863 -0.00056196
C 18.55026777 21.24408128 15.93627201 -0.00381634 0.00131317 -0.00110239
C 21.60833007 18.13049310 17.27948193 -0.00168722 -0.00439216 0.00415197
C 18.54611301 21.59260273 20.67653609 -0.00510332 -0.00214295 -0.00110139
C 21.66870097 18.04335802 22.01064599 -0.00836571 -0.00674663 0.00228109
C 19.06004264 26.38363668 1.68439000 0.00487174 -0.00637730 0.00263437
C 22.10844935 23.58839935 3.18408914 -0.00322284 -0.00363602 -0.00138948
C 18.97153108 26.42024672 6.61666007 -0.00391027 -0.00302160 -0.00053132
C 22.29027091 23.69611014 8.01254569 0.00438433 0.00196047 0.00275256
C 18.97235560 26.58524495 11.22475046 -0.00706343 -0.00238870 -0.00354977
C 22.14405868 23.76249015 12.60246857 -0.00224385 -0.00983940 0.00335842
C 19.03361058 26.57205518 16.04369778 -0.00209135 -0.00460587 0.00080748
C 22.04039883 23.61285951 17.26873065 0.00097642 -0.00297783 0.00572190
C 18.93786674 26.66979375 20.63943243 0.00009760 -0.00006648 0.00261957
C 22.25782765 23.75106403 21.94677390 -0.00290174 -0.00821740 0.00075660
C 24.89177867 3.11224527 1.76317155 -0.00029897 -0.00499544 -0.00052675
C 28.08298951 29.74044744 2.87891437 0.00123090 -0.00014728 -0.00230127
C 25.16535689 2.77235906 6.37488887 -0.00134290 -0.00647136 -0.00097169
C 28.06357346 0.09671254 7.57692080 0.00783700 -0.00315065 0.00530859
C 24.90202542 3.29677248 11.17971364 0.00142169 -0.00163509 0.00518172
C 28.15537913 29.59208452 12.46053195 -0.00612684 -0.00732903 -0.00149611
C 25.10545711 2.86123868 15.73034126 -0.00006648 0.00106929 -0.00426709
C 28.15654596 29.76129581 17.10015644 0.00678619 0.00019560 -0.00139474
C 25.08722617 2.74517639 20.52267688 -0.00160807 -0.00714809 0.00120250
C 28.19337906 29.72457376 21.86085892 0.00378047 0.00314513 0.00276587
C 24.32358460 9.67445324 1.56085928 -0.00373674 0.00384633 -0.00191875
C 27.46583307 6.79347320 3.10523272 -0.00540314 0.01014158 0.00457468
C 24.25195971 9.44478914 6.51103523 0.00253531 0.00173155 0.00416615
C 27.46508151 6.34706269 7.75408522 0.00355883 0.00214983 0.00368079
C 24.24032383 9.57029054 11.12509926 0.00081027 -0.00068759 0.00519541
C 27.58993331 6.37787230 12.39053055 0.00087108 0.00104389 0.00986250
C 24.42632906 9.47740872 15.83602345 0.00452701 0.00218598 0.00413838
C 27.59846026 6.45384897 17.20646510 0.00185659 -0.00280751 0.00163281
C 24.28800571 9.81884863 20.63330663 -0.00511788 -0.00227200 0.00071756
C 27.50068419 6.57512183 21.92413618 -0.00228536 0.01066527 0.00199656
C 24.72173661 15.17183968 1.81999157 -0.00184159 0.00041415 0.00277453
C 28.00472428 12.26711966 3.05233627 -0.00413159 0.00189921 -0.00167570
C 24.76711338 15.25298780 6.58512093 -0.00503839 0.00224365 0.00276912
C 27.68365762 12.05723822 7.78466147 0.00344010 0.00205320 0.00522692
C 24.94742198 15.17706010 11.20039823 0.00002896 0.00154821 -0.00271668
C 28.05189474 12.21200304 12.44331061 -0.00109082 -0.00077131 0.00062596
C 24.78062390 15.26557882 15.95988765 -0.00586590 -0.00388647 -0.00323043
C 27.81397626 12.15648172 17.19034467 -0.00255835 0.00350130 0.00793923
C 24.88163674 15.30768115 20.60775761 0.00774678 0.00367285 -0.00122038
C 27.82096101 12.14088726 21.93272988 -0.00002490 0.00406440 0.00009928
C 25.18769511 20.68724525 1.71625615 0.00277315 -0.00521445 0.00473321
C 28.42409079 17.64016192 2.97861878 -0.00108994 -0.00073711 0.00261223
C 25.20881692 20.53856006 6.45224756 0.00123479 0.00745126 -0.00022970
C 28.43997095 17.89063736 7.76138060 -0.00189747 0.00148774 0.00229562
C 25.34677177 20.58094307 11.11548565 -0.00046773 -0.00222593 0.00160019
C 28.69012847 17.84892080 12.39744211 0.00266950 0.00089337 0.00383321
C 24.94002381 20.47977256 15.73645397 0.00409236 0.00596198 0.00007159
C 28.41844528 17.62497295 16.98635716 -0.00339133 0.00243081 0.00714804
C 25.36194587 20.51870703 20.70106355 0.00526426 -0.00811573 -0.00384358
C 28.30754889 17.70236297 21.88560722 -0.00132857 -0.00157655 0.00025212
C 25.64324865 26.06633094 1.76434822 -0.00245617 -0.00291146 -0.00269749
C 28.96139616 23.52321858 2.84032640 -0.00580581 -0.00160687 0.00037769
C 25.75116370 26.17634316 6.60022879 0.00466813 -0.00511640 0.00013007
C 28.80146510 22.98836281 7.59629767 0.01191598 0.00857929 0.00481757
C 25.84926960 26.16264960 11.15335555 -0.00339015 0.00938099 -0.00206658
C 28.74738774 23.19716740 12.42044120 -0.00003104 0.00387969 -0.00047696
C 25.60629744 26.16303437 15.83646056 -0.00540577 -0.00183384 -0.00041142
C 28.32313964 23.18852572 17.06015845 -0.00420728 0.00503887 0.00503968
C 25.65187693 26.14168951 20.70562534 0.00676045 -0.00581680 -0.00228972
C 28.84432363 23.10926737 21.84155481 0.00563558 -0.00420383 -0.00658893
N 31.21456689 4.39416332 0.95219469 -0.00247583 -0.00020912 0.00600827
N 3.60223939 5.22080087 3.81151410 0.00140741 0.00117841 -0.00267396
N 5.25254389 2.52147513 0.91558019 -0.00255779 -0.00708775 -0.00188489
N 1.87116917 1.69837151 3.76329157 -0.00224273 0.00667741 -0.00364018
N 0.06906550 4.52177509 5.71738433 0.00435454 0.00636694 0.00224131
N 3.43193030 5.34105386 8.48414858 0.00089564 -0.00069105 0.00002218
N 5.37853852 2.30482484 5.76290773 0.00396730 -0.00235383 -0.00063683
N 1.60466394 1.57157524 8.20786707 -0.00240842 0.00441601 0.00949850
N 0.18566463 4.50178176 10.48734123 0.00003277 0.00288100 -0.00610802
N 3.39724133 5.19902370 13.28774690 -0.00389941 0.00309078 -0.00197944
N 5.03602825 2.72498526 10.40947793 -0.00121678 -0.00504023 0.00054793
N 1.66194645 1.09536768 13.30355899 -0.00068496 -0.00057721 -0.00007685
N 0.27072051 4.32234566 15.24601843 -0.00226035 0.00173808 -0.00110950
N 3.50492912 5.21096724 18.00135068 0.00059300 -0.00070689 0.00373841
N 5.28225863 2.47024524 15.12683638 -0.00314865 0.00420317 0.00150477
N 1.67602791 1.40357465 18.02553252 0.00612235 -0.00125233 0.00154837
N 0.18856271 4.43268988 19.98352927 -0.00232009 -0.00031108 -0.00428658
N 3.39550317 5.18854610 22.92092571 0.00586890 0.00228196 0.00082112
N 5.19733572 2.26918426 19.74438504 -0.00017908 -0.00494384 -0.00099182
N 1.70810173 1.32696887 22.75990115 0.00238142 0.00111761 0.00185126
N 0.34159475 10.20570221 0.75422050 -0.00056665 -0.00223062 0.00687304
N 4.19026632 10.81154321 3.51543225 -0.01039628 -0.00148054 -0.00074752
N 5.85185456 7.86768078 0.89232811 0.00359281 -0.00168259 0.00486141
N 2.36127737 7.13933191 3.78993572 -0.00034555 -0.00447282 0.00524979
N 0.34197137 10.11701024 5.75410079 -0.00321582 0.00605904 -0.00700540
N 4.05114481 10.95197414 8.53837892 0.00438227 -0.00192959 -0.00300576
N 5.60425548 7.90420422 5.57453203 -0.00467715 -0.00470278 0.00147022
N 2.39543788 7.42761287 8.49666015 -0.00528323 0.00326403 -0.00320772
N 0.77545994 9.85266062 10.63067679 0.00122828 0.00264119 -0.00019862
N 4.10109449 10.67919104 13.23330242 -0.00059837 0.00008176 0.00579969
N 5.49221653 8.00296400 10.52826073 0.00443599 0.00222278 -0.00335837
N 2.31817077 7.20797611 13.34205801 -0.00057512 -0.00326990 -0.00621608
N 0.53660257 10.06428100 15.41373436 0.00065172 -0.00106822 0.00529588
N 3.97830099 10.65962534 17.99333615 -0.00842166 0.00080415 -0.00098845
N 5.82537118 7.81185333 15.10784569 0.00000711 -0.00356453 0.00264966
N 2.16467674 7.11063534 17.95473560 -0.00671233 0.00079087 -0.00383131
N 0.63111502 9.97896119 19.76214273 -0.00495403 -0.00026214 0.00000527
N 3.85389813 10.60451002 22.62526156 0.00334698 -0.00210178 -0.00345102
N 5.66218999 7.82158908 19.95846395 -0.00076844 0.00203175 -0.00590819
N 2.05597877 7.05811237 22.74496332 0.00187304 -0.00427712 0.00068793
N 0.58060923 15.52057047 1.01603355 -0.00138904 -0.00031101 0.00336323
N 4.42103009 16.41097953 3.74963605 0.00212596 0.00018094 -0.00116927
N 6.21674164 13.10257277 0.97998074 -0.00003643 0.00522205 0.00356643
N 2.98407084 12.69957717 3.83425121 -0.00041181 -0.00918279 -0.00586468
N 0.89289829 15.55366757 5.77918292 -0.00277504 -0.00667712 0.00139707
N 4.64614581 16.62332930 8.41390952 -0.00305647 0.00088928 0.00148099
N 6.18169643 13.34546674 5.69483063 -0.00466561 0.00244647 0.00170544
N 2.81881915 12.90061287 8.58252179 0.00199588 0.00981487 0.00198483
N 0.92612450 15.65357034 10.34065707 0.00023436 -0.00131703 -0.00062148
N 4.69738527 16.32679322 13.13778048 0.00311416 -0.00551195 0.00457557
N 6.08550049 13.39329846 10.49272753 0.00046913 -0.00467248 0.00059859
N 2.61103783 12.44378886 13.37034079 0.00462477 0.00143519 0.00371928
N 0.77331313 15.53239920 15.44416787 0.00455007 0.00077540 -0.00016240
N 4.46595336 16.39149034 17.94642836 -0.00072761 0.00153511 0.00456088
N 6.14982898 13.37583692 15.41305669 -0.00243423 -0.00316575 -0.00207210
N 2.66301051 12.54231739 17.88095953 0.00050041 0.00162956 -0.00319668
N 1.04202195 15.45634764 20.09028667 0.00045671 -0.00393100 -0.00593411
N 4.51249873 16.32694289 22.64997025 -0.00639250 -0.00391308 0.00000509
N 6.07726336 13.33625600 19.99142656 0.00246458 0.00381753 -0.00586607
N 2.79312588 12.65561609 22.63569436 0.00279356 -0.00374080 0.00040277
N 1.44659574 20.96999386 0.92578932 -0.00111816 -0.00227761 -0.00310806
N 4.19250010 23.26749682 3.43930292 -0.00483855 0.00431040 -0.00117660
N 5.39174325 20.10342952 0.92205554 0.00091366 0.00226835 -0.00144817
N 2.76208334 17.98504336 3.72307164 0.00107367 -0.00077514 -0.00228696
N 1.48724980 21.29659023 5.65005434 0.00258320 -0.00400307 -0.00525041
N 4.07067450 23.16912737 8.29527261 0.00211833 -0.00347907 -0.00122097
N 5.44145284 19.89178353 5.90758201 -0.00502159 0.00482207 -0.00502842
N 2.98093779 18.14963959 8.50240600 0.00101724 0.00117524 -0.00563386
N 1.70191352 21.13222457 10.32817284 0.00202986 -0.00236374 -0.00112184
N 4.01307946 23.27359939 13.20272885 -0.00248582 -0.00381325 0.00397123
N 5.47760949 20.09427214 10.28199149 0.00232145 -0.00206723 -0.00525899
N 2.86236163 17.76622054 13.25093373 -0.00157668 0.00186117 0.00157224
N 1.52866186 21.11994576 15.40339698 -0.00274668 0.00213846 -0.00257450
N 4.09760586 23.48929586 17.86659918 0.00503536 0.00112595 0.00260612
N 5.49194358 20.10271377 15.11110230 -0.00646401 0.00160098 0.00435153
N 3.05438651 18.17588078 18.16575528 0.00213167 -0.00497553 0.00083690
N 1.67265603 20.95864772 19.93831081 -0.00086015 0.00364107 0.00277423
N 3.86715810 23.17491453 22.57731091 -0.00089643 -0.00327310 0.00112817
N 5.46813346 20.16101364 19.95288550 0.00611666 0.00163212 -0.00201307
N 2.81618229 17.98595810 22.74872976 0.00400989 -0.00693587 -0.00007556
N 0.84034266 27.47964438 0.95521203 -0.00134232 -0.00203104 0.00020330
N 3.29880536 29.67001858 3.70793771 0.00566131 -0.00366502 -0.00078831
N 4.94054206 26.65762393 0.92888605 -0.00049651 0.00022396 0.00413136
N 2.21516485 24.38777529 3.69224204 0.00242754 -0.00397797 -0.00800021
N 0.85290820 27.56933096 5.77136324 0.00302060 -0.00171307 -0.00223289
N 3.27331154 0.09977511 8.56313788 0.00002891 0.00170042 -0.00446868
N 4.78951366 26.68490009 5.65387539 -0.00462629 -0.00210975 0.00360612
N 2.09879145 24.36639808 8.51803438 0.00101914 0.00129518 0.00372026
N 0.79349729 27.74821103 10.39066131 0.00404141 0.00215682 -0.00059639
N 3.41385920 29.42656182 13.13780930 -0.00140048 0.00050205 0.00108033
N 4.63799586 26.62693144 10.34635678 -0.00539526 0.00366592 -0.00685022
N 2.08010280 24.60020772 13.07546174 0.00076309 -0.01047881 0.00052817
N 0.70108825 27.55453749 15.09344365 -0.00253498 0.00206271 -0.01242020
N 3.32851161 29.72434168 17.94742754 0.00263358 0.00326676 0.00003235
N 4.73706815 26.44168613 15.30955457 -0.00371427 0.00227982 -0.00155253
N 2.00212398 24.44012028 17.99815270 0.00014117 0.00188015 0.00414689
N 0.66660590 27.63271107 19.89905757 0.00067182 -0.00165425 0.00343388
N 3.26345380 29.40737507 22.57878583 -0.00149814 0.00102925 0.00298658
N 4.76497648 26.62215525 19.90985434 -0.00015974 -0.00424811 0.00725544
N 1.82919197 24.23989329 22.60212088 -0.00646052 -0.00527276 0.00709421
N 6.90648075 4.18091685 1.04479284 0.00486004 -0.00142431 0.00084778
N 10.30362566 4.78474187 3.76802283 0.00011418 -0.00020933 0.00281635
N 11.92197248 2.02379713 1.04209500 -0.00250349 0.00237748 0.00029426
N 8.70745523 1.36495217 3.75184640 0.00314272 -0.00267104 -0.00148671
N 6.90605566 4.00371281 5.83179536 0.00593305 0.00774523 -0.00011070
N 10.35439054 4.63253391 8.17007277 0.00425982 -0.00358145 -0.00588029
N 12.00043842 1.76297942 5.80511004 0.00217119 -0.00062549 -0.00652114
N 8.35019996 1.05103226 8.55597837 -0.00009942 -0.00242007 0.00145134
N 6.61384892 4.40568006 10.59435020 -0.00214859 0.00086011 0.00831537
N 10.04763915 4.60484762 13.40876682 0.00619840 -0.00522518 0.00573752
N 11.95502041 1.70918167 10.16059222 0.00042309 0.00271433 0.00020758
N 8.36720672 1.12865159 13.18496644 0.00180886 0.00106900 -0.00004278
N 6.79014353 4.19147806 15.10034321 -0.00240950 -0.00545983 0.00270641
N 10.17815875 4.81450650 17.98671590 -0.00662527 0.00124404 0.00225905
N 12.06594471 1.78004109 14.78804428 0.00234815 0.00444271 -0.00222879
N 8.41665133 1.07660053 17.98919404 -0.00407982 0.00022782 -0.00081174
N 6.90592002 3.78173879 19.93765713 -0.00221569 -0.00410561 0.00158828
N 10.47352952 4.71937978 22.45579227 -0.00026585 0.00003335 0.00611805
N 12.12665488 1.93837419 19.76464130 0.00080859 -0.00129555 0.00052007
N 8.42708506 1.26578376 22.64344811 -0.00275563 0.00130513 -0.00346363
N 7.58778400 9.35244003 0.88831446 0.00241986 -0.00171254 0.00037024
N 10.98741354 10.53115122 3.81391741 -0.00393866 0.00002215 0.00450385
N 12.47085133 7.40757919 0.85281391 0.00232746 0.00043123 0.00175769
N 9.17867054 6.88369064 3.73615129 0.00163355 -0.00425211 0.00249605
N 7.22083409 9.52724607 5.86004177 -0.00072132 -0.00126763 0.00240396
N 10.69868719 10.56457692 8.59114325 0.00047385 0.00168211 0.00282384
N 12.25642409 7.53830055 5.79564103 0.00498146 0.00123661 0.00277174
N 9.23419540 6.61539864 8.49354591 0.00667429 0.00063426 0.00159746
N 7.16041198 9.48866453 10.29706992 0.00586474 -0.00719824 -0.00420769
N 10.84543623 10.42552561 13.25072568 0.00341407 -0.00538174 0.00196759
N 12.46005020 7.38912970 10.39865984 0.00643842 0.00601256 0.00377566
N 8.99354178 6.65240566 13.07277522 0.00365987 0.00021367 0.00306436
N 7.15427368 9.69473723 15.33823567 -0.00099957 0.00207635 0.00021111
N 11.00270617 10.44906125 18.10023060 -0.00115394 0.00085568 -0.00263425
N 12.34794543 7.54917230 15.24923252 -0.00025630 -0.00229734 0.00615820
N 8.69703390 6.53834065 18.05666345 0.00289124 0.00478868 -0.00261219
N 7.12206385 9.51248102 19.66218896 0.00095622 0.00297610 -0.00907838
N 10.99783184 10.68086018 22.74113993 0.00245672 0.00187880 0.00320057
N 12.41061944 7.53499647 19.66560031 0.00626017 0.00019905 -0.00079055
N 9.24716533 6.66622204 22.67403996 -0.00174669 -0.00252354 0.00376475
N 7.66004528 14.96904914 0.95725369 -0.00333315 -0.00229822 -0.00161705
N 10.51536204 17.25556697 3.42538608 0.00209661 0.00378460 -0.00295723
N 11.48323087 14.10917325 1.19966728 0.00528574 0.00032652 0.00042306
N 9.21097930 11.91733917 3.75198819 -0.00550840 0.00052495 0.00144986
N 7.81836822 15.04614577 5.66676239 -0.00055930 0.00077239 -0.00396628
N 10.18435294 17.09811893 8.37854340 0.00328397 0.00104368 -0.00869507
N 11.68610933 14.02875997 5.73490617 -0.00277646 0.00133636 -0.00029696
N 9.25710926 12.34187845 8.40391994 0.00066306 0.00157455 0.00274144
N 7.63385975 15.01101083 10.58918477 -0.00053300 0.00120109 -0.00039680
N 10.16808504 17.08701797 13.19768917 -0.00015392 0.00291145 -0.00398596
N 11.67613734 14.12257387 10.49180673 -0.00584803 -0.00502056 -0.00084794
N 9.23330602 12.05887370 13.16041496 0.00224216 0.00098638 0.00253757
N 7.63407395 15.12440176 15.33860823 0.00159143 0.00505455 0.00331121
N 10.16651065 17.42693888 17.95994651 0.00044842 -0.00500640 0.00587927
N 11.79227836 13.96895412 15.17231155 0.00506973 -0.00259683 0.00509009
N 9.43762745 12.04186225 17.88724941 0.00279187 0.00256824 -0.00450202
N 7.75776861 14.98276275 19.93326553 -0.00764331 -0.00715617 0.00130490
N 10.25035134 17.22304437 22.43809228 -0.00008287 0.00404909 -0.00891809
N 11.95346587 14.14496757 19.81646742 -0.00303473 0.00364364 -0.00299609
N 9.18376662 12.09021577 22.71370123 0.00119443 0.00524765 -0.00407945
N 7.01328847 21.71886915 0.92458755 -0.00328556 0.00193443 0.00520360
N 9.67596534 23.55988931 3.53086411 0.00044874 0.00128420 -0.00079347
N 10.95262277 20.65234663 0.97791023 0.00263287 -0.00479080 -0.00230163
N 8.35406797 18.13944195 3.69528583 0.00203668 -0.00231514 -0.00296219
N 6.91572814 21.64648980 5.51935430 0.00306450 -0.00330314 -0.00146285