2000
Time=46000.00000003 pbc="T T T" Lattice="31.29206392 0.00000000 0.00000000 0.00000000 29.95019540 0.00000000 0.00000000 0.00000000 23.70358779" energy=-12038.79741669 virial="-34.17931134 25.26159777 -15.01234465 25.26159777 -38.51840958 -12.49328944 -15.01234465 -12.49328944 5.85355702" stress="0.00065102 0.00113204 -0.00071879 0.00113204 0.00042858 -0.00052186 -0.00071879 -0.00052186 0.00290953" Properties=species:S:1:pos:R:3:vel:R:3
C 30.85859171 3.50857467 1.76004710 0.00471862 -0.00276720 0.00268073
C 2.52792150 0.68683779 3.01451433 -0.00998212 -0.00247011 -0.00334362
C 30.67232512 3.66341221 6.36197497 -0.00497484 0.00179341 -0.00010870
C 2.71296643 0.60003580 7.74568082 0.00133142 0.00527374 0.00267573
C 30.46423117 3.61551767 11.18719609 0.00385500 0.00511375 -0.00165005
C 2.37207626 0.44764515 12.64040748 0.00459720 -0.00010598 0.00199367
C 30.75415236 3.64992073 16.04638237 -0.00339115 0.00770759 -0.00498653
C 2.59084519 0.94086867 17.09862654 0.00617467 -0.00640459 0.00018160
C 30.56772998 3.80644684 20.65404430 -0.00231993 -0.00447002 -0.00278001
C 2.34563147 0.74316644 21.96740557 0.00016092 -0.00209654 -0.00327853
C 31.08542803 9.16336591 1.71644496 0.00186577 -0.00089261 0.00244989
C 3.12843203 6.17041031 3.11346422 0.00525904 0.00557431 -0.00577756
C 30.84748365 9.13735017 6.64292232 0.00396697 -0.00010925 0.00181928
C 2.86751123 6.46179771 7.89415588 0.00022880 -0.00296875 -0.00323869
C 30.94169240 9.10015533 11.23804010 -0.00322542 -0.00243620 0.00694166
C 2.83142606 6.11232826 12.57012319 -0.00054143 0.00555283 -0.00411569
C 0.04372926 9.08475321 16.00244942 0.00642686 0.00127575 -0.00462503
C 3.10751955 6.35033781 17.32466448 -0.00631929 0.00273055 0.00039194
C 31.14566703 9.43037860 20.66864624 -0.00541387 0.00004946 0.00188480
C 2.66126419 6.33167173 22.12301888 -0.00582845 0.00291789 -0.00009310
C 0.26985628 14.80408174 1.73142056 -0.00476592 0.00724872 -0.00361746
C 3.26670561 11.68005598 3.01459776 -0.00192359 -0.00202601 0.00077637
C 0.14995905 14.38153156 6.31349471 -0.00098244 0.00386117 0.00559803
C 3.48830807 11.80410007 7.73642647 -0.00145025 -0.00189939 -0.00399096
C 0.08680742 14.66566118 10.98785215 0.00571699 -0.00621584 -0.00060352
C 3.85258197 11.61802434 12.52211887 -0.00267819 0.00115596 -0.00090470
C 0.24943183 14.70691967 15.83112806 0.00725725 -0.00501673 0.00188485
C 3.79196057 11.87105682 17.35420917 -0.00148334 -0.00497000 0.00562842
C 0.13505865 14.75114712 20.49646522 -0.00274477 -0.00202953 0.00789647
C 3.55970617 11.87520649 22.18156603 0.00058941 0.00649597 -0.00431670
C 0.63769325 20.39762247 1.63349742 -0.00053208 -0.00582659 0.00687650
C 3.57384826 17.38854636 3.01865167 -0.00994180 -0.00950739 0.00315935
C 0.68498075 20.16913436 6.29040629 -0.00097389 -0.00027436 -0.00524417
C 3.90133537 17.37723062 7.77102125 0.00034995 0.00025787 0.00141179
C 0.47575207 20.23736709 11.14955600 -0.01226864 -0.00274374 0.00187313
C 3.58930240 17.27399614 12.55402779 0.00864580 -0.00279422 -0.00107916
C 0.53787666 20.55997758 15.91305446 -0.00246205 -0.00647008 0.00328665
C 3.68614250 17.37998554 17.42379894 -0.00290753 -0.00019289 0.00006876
C 0.60291192 20.16039759 20.69816097 -0.00099785 -0.00130163 0.00807542
C 3.58371947 17.17541506 21.97335301 0.00188180 -0.00336324 0.00230463
C 0.01164396 26.82037457 1.73066480 0.00770582 -0.00088877 0.00723417
C 2.93250886 23.77703933 2.89484229 -0.00198400 -0.00343591 -0.00348395
C 31.25855670 26.71676398 6.39253799 0.00233126 -0.00101891 0.00320400
C 2.98971022 23.60716327 7.74155460 0.00104644 0.00072124 -0.00851888
C 31.24796743 26.86527063 11.21034344 0.00092164 0.00414333 -0.00017526
C 3.15339072 24.02940713 12.43438871 -0.01085500 -0.00269187 0.00639395
C 31.15864282 26.87485033 15.99755668 0.00317716 -0.00130749 -0.00139159
C 3.14332181 23.88779839 17.21860186 -0.00802501 0.00307579 0.00112608
C 31.18545733 26.71585152 20.76105937 0.00034051 -0.00047634 -0.00095718
C 3.10757792 23.78594382 21.90502258 -0.00196817 0.00290762 -0.00330637
C 6.04021798 3.21670700 1.72496457 -0.00437575 0.00115091 0.00147381
C 8.92322542 0.00843076 3.02322206 -0.00179974 0.00016639 0.00476136
C 5.89047780 3.26401162 6.45663362 -0.00794634 0.00351972 -0.00594667
C 9.05715280 0.02119676 7.73275805 -0.00141631 0.00025296 -0.00367293
C 6.15598459 3.34621801 11.05512744 -0.00226991 -0.00144840 0.00579868
C 9.08664413 0.28525814 12.38655853 -0.00142324 0.00017591 -0.00305778
C 6.14643068 3.19469190 15.72445449 0.00040043 0.00130370 0.00278860
C 9.23932184 29.92239028 17.08896032 -0.00010019 0.00549706 0.00017280
C 6.12756021 3.15709750 20.64514419 -0.00105560 0.00891938 0.00467107
C 9.09536023 0.08014870 21.87166868 0.00894607 0.00153924 0.00067734
C 6.37180444 8.73667700 1.72117991 0.00238240 -0.00007575 0.00366221
C 9.55042067 5.63280813 3.14566527 0.00152533 0.00365249 -0.00601096
C 6.60354126 8.91129723 6.51664057 -0.00666413 0.00002458 0.00036037
C 9.76764479 5.87957507 7.85458648 0.00392495 -0.00315279 -0.00230029
C 6.83357961 8.59137581 11.29556572 0.00372090 0.00084355 -0.00049666
C 9.73495795 5.72287875 12.58638212 -0.00439474 -0.00484195 -0.00010824
C 6.68135719 8.74389162 15.99759855 -0.00031921 0.01369949 -0.00216017
C 9.61101167 5.68726070 17.33091597 0.00311383 0.00152112 0.00330567
C 6.62047722 8.80083472 20.87304721 0.00398101 0.00329277 -0.00033728
C 9.91327681 5.65310430 22.15625686 -0.00252401 -0.00278823 0.00703401
C 7.08769648 14.36844927 1.66982480 -0.00993503 -0.00635809 0.00617145
C 10.04218490 11.37282919 2.93708179 -0.00080039 -0.00421062 -0.00407577
C 6.75148822 14.30282583 6.39903270 -0.00357621 -0.00624927 0.00467862
C 9.96265899 11.81238129 7.68368302 0.00188903 0.00358966 -0.00596265
C 6.80514906 14.37848275 11.09604745 0.00361645 -0.00337976 0.00157347
C 10.07362888 11.42660208 12.40154088 0.00699142 0.00459976 -0.00446686
C 6.74524294 14.35148245 15.87128598 -0.00049249 -0.00320260 -0.00159588
C 10.03877940 11.34040006 17.08041129 -0.00195585 -0.00317712 -0.00067973
C 7.00028347 14.48036246 20.64793128 -0.00002817 0.00341346 -0.00148949
C 9.80084534 11.20558499 21.92097624 0.00104003 -0.00938126 0.00242823
C 6.05259520 20.78804066 1.52967822 -0.00167756 0.00386925 -0.00149884
C 9.19661095 17.93268610 3.12274248 -0.00289275 -0.00773877 -0.00617192
C 6.41085991 21.04618968 6.13487394 -0.00750638 -0.00226765 0.00006369
C 9.51857425 17.93456787 7.74159221 0.00156921 0.00399444 0.00550646
C 6.20997098 20.72386930 10.85559869 -0.00050929 -0.00046370 -0.00052642
C 8.99537801 17.88842700 12.41119547 -0.00380879 -0.00075066 -0.00159802
C 6.11527038 20.89508624 15.93193170 0.00317781 0.00087735 0.00209014
C 9.65335592 17.86692684 17.05756875 0.00192756 0.00572291 -0.00497010
C 6.27156962 20.73970544 20.67309822 0.00529707 0.00358847 0.00376026
C 9.33422539 18.00210886 21.78400626 -0.00172757 0.00000908 0.00877750
C 5.57498438 27.44568571 1.48522385 0.00125076 -0.00091843 -0.00497079
C 8.78339171 24.47758720 2.68931078 0.00521525 0.00131076 -0.00446767
C 5.49352697 27.23461553 6.43606684 0.00675204 -0.00820400 -0.00888826
C 8.57596753 24.58754109 7.63687212 0.00112939 0.00038357 0.00378883
C 5.57578174 27.60029306 11.05320703 0.00247254 0.00380569 0.00638367
C 8.52894179 24.35875205 12.38549508 -0.00344812 -0.00127408 0.00138247
C 5.57034594 27.74039491 15.97254407 -0.00721543 0.00512773 0.00334399
C 8.80054136 24.67839375 17.10297355 -0.00286482 -0.00401807 0.00063139
C 5.75021764 27.54835386 20.59149030 -0.00003255 0.00124589 0.00401551
C 9.03021347 24.54493323 21.85775564 -0.00128318 -0.00072675 0.00027980
C 12.88884376 2.49825262 1.92023803 -0.00291691 0.00655390 -0.00183879
C 15.87635899 29.65750775 3.12629810 -0.00644292 0.00326158 -0.00559382
C 12.74315951 2.73722789 6.52404109 -0.01250101 0.00282495 -0.00638664
C 15.83270677 0.02518475 7.75416105 0.00398916 -0.00226542 -0.00129361
C 12.75859640 2.97815366 11.23050144 -0.00741447 -0.00473308 -0.00261239
C 15.76557700 29.71592750 12.44259831 -0.00050289 -0.01049059 -0.00126405
C 12.93759505 2.65351672 15.91513318 -0.00056792 -0.00319693 0.00465186
C 15.77312242 29.94134162 17.38650582 0.00213830 -0.00596716 -0.00499269
C 12.76485849 2.75629403 20.79664617 -0.00222187 0.00365827 0.00075419
C 16.13918665 29.87117450 22.04993512 -0.00363371 -0.00893935 0.00085545
C 13.26282497 8.24202784 1.68094689 0.00031845 0.00378293 -0.00498566
C 16.42161293 5.24478813 3.05507102 0.00253684 -0.00319805 0.00184681
C 13.24632287 8.34031235 6.46739663 0.00230385 0.00223203 -0.00103984
C 16.12945734 5.17105385 7.97981505 0.00505590 0.00295069 0.00386769
C 13.55915990 8.43800711 11.19708220 0.00213118 -0.00158333 -0.00004776
C 16.11864282 5.57274844 12.45069392 -0.00477753 -0.00022588 -0.00361622
C 13.29602886 8.36325086 15.80710631 0.01109678 0.00317400 0.01232542
C 16.19810368 5.59069092 17.32991552 0.00289484 -0.00486540 -0.00114805
C 13.03759115 8.49028062 20.64752132 -0.00349763 -0.00104211 -0.00372621
C 16.39912203 5.41615286 21.89253697 0.00114471 -0.00853224 0.00168674
C 12.70766955 15.05191552 1.80712827 -0.00549410 -0.00082492 0.00439958
C 15.52519141 11.97191317 3.27083039 -0.00272419 -0.00587199 -0.00253550
C 12.58757250 14.81617765 6.42145099 -0.00222085 -0.00196522 -0.00954827
C 15.52820254 12.12931379 7.93348504 -0.00714381 -0.00005219 0.00197940
C 12.60634195 15.13804524 11.17022081 0.00057406 -0.00082800 -0.00166697
C 15.59669167 12.02182005 12.58295651 -0.00389187 -0.00391701 0.00521818
C 12.49382915 15.02871181 15.93560221 -0.00099439 0.00133495 0.00056907
C 15.73541593 11.98950859 17.39128344 0.00449958 -0.00263385 -0.00124638
C 12.91096619 14.81226030 20.66282609 -0.00998216 0.00068370 0.00300503
C 15.58244202 11.69762477 21.96733392 0.00059161 0.00133912 -0.00113299
C 11.85577927 21.56024298 1.57784785 0.00548958 0.00107185 0.00111931
C 14.99277029 18.67516745 3.26211425 0.00273961 -0.00379917 -0.00392497
C 11.40251315 21.52698593 6.33016184 0.00547220 0.00061893 -0.00153598
C 15.27456338 18.88175405 7.91204297 0.00232788 0.00834863 -0.00334775
C 11.68689813 21.58311679 11.13145004 -0.00049330 -0.00220182 0.00551286
C 14.98935938 18.44993096 12.46230317 -0.00170559 -0.00765056 -0.00429001
C 11.82220313 21.68808648 15.70857209 0.00109907 0.00445380 -0.00405894
C 15.10551102 18.79334386 17.11644996 -0.00408216 -0.00221208 -0.00523496
C 11.81938845 21.55581407 20.53041919 0.00302696 0.00464795 -0.00289266
C 15.18647062 18.72817757 22.12277062 -0.00196959 -0.00245208 0.00226213
C 12.29398010 27.06670597 1.51625261 -0.00114880 -0.00354649 0.00509253
C 15.47363461 24.15451907 3.06379696 0.00116814 0.00287747 -0.00373379
C 12.15746440 27.11734343 6.48824906 -0.00219015 -0.00301990 -0.00253662
C 15.29833217 24.28880480 7.78858013 0.00107430 -0.00111672 -0.00416594
C 12.14798701 27.49764471 11.15570138 0.00106710 -0.00111746 -0.00021364
C 15.25066608 23.96742728 12.58140028 0.00914462 0.00298059 -0.00207863
C 12.41841080 27.28197583 15.89586025 -0.00033156 0.00576445 0.00033066
C 15.38494585 24.16594875 17.17333856 -0.00424554 -0.00340834 -0.00091874
C 12.33381549 27.26479538 20.55781564 -0.00370912 -0.00070115 0.00507710
C 15.51998240 24.27325392 21.92244774 0.00085404 -0.00047495 -0.00808757
C 19.68285802 2.35133661 1.71667464 -0.00407069 -0.00028084 0.00401348
C 22.76238137 29.50008823 3.08402606 -0.00057186 -0.00183526 -0.00498748
C 19.41485463 2.41081275 6.50963249 -0.00274245 -0.00101067 0.00476871
C 22.78371133 29.47347248 7.83813045 0.00907186 0.00323083 -0.00444036
C 19.40595208 2.39927981 11.32100335 -0.00154502 0.00335868 -0.00417158
C 22.52111676 29.41858265 12.35154997 -0.00675903 -0.00351571 -0.00700692
C 19.21886893 2.43129525 16.08481809 -0.00665337 0.00018611 0.00530014
C 22.43823621 29.37414096 17.27546924 -0.00502465 0.00225283 -0.00108934
C 19.30576767 2.27941675 20.68705304 -0.00107923 0.00351577 0.00415271
C 22.58909061 29.55046492 21.91243353 -0.00864585 0.00395485 0.00565607
C 18.64794884 9.02585161 1.71899916 -0.00049715 0.00137979 -0.00056808
C 21.91927779 6.03413840 3.08908160 0.00438123 0.00113157 0.00003107
C 18.66539128 9.02427214 6.57224276 0.00177847 0.00377761 0.00024847
C 21.69959676 6.05719106 7.83777561 -0.00317238 0.00239631 -0.00486853
C 18.87824227 9.06844996 11.24013490 -0.00245604 0.00715209 -0.00345795
C 21.69317575 5.85107147 12.77923816 0.00281331 -0.00144308 -0.00288588
C 18.70018539 9.21816662 16.04418666 -0.00619697 0.00590932 -0.00037140
C 22.03648407 5.92605393 17.28727257 -0.00545620 -0.00125022 0.00188827
C 18.76947353 8.93649764 20.77238380 0.00556135 0.00560170 -0.00082018
C 21.67005979 6.13897734 22.01615151 0.00543754 -0.00192486 0.00100089
C 18.25957365 15.56808123 1.91991314 -0.00629457 0.00421330 0.00059397
C 21.06009100 12.48378354 2.99658052 -0.00264144 0.00387477 0.00051308
C 18.22784761 15.60897576 6.48971084 0.00959838 -0.00128382 0.00340452
C 21.05672044 12.79886076 7.78341953 -0.00040169 -0.00873189 -0.00326800
C 18.17603773 15.46330735 11.35744865 0.00568800 -0.00739044 -0.00026130
C 21.21564012 12.52528965 12.45688838 0.00202501 -0.00203286 0.00002276
C 18.18150387 15.86223230 16.06198682 0.00028570 0.00222718 -0.00233635
C 21.31935181 12.51521351 17.21531090 0.00311817 -0.00073256 0.00832037
C 18.36690233 15.43951872 20.57761895 -0.00152414 0.00119476 -0.00496207
C 21.34399330 12.68862752 21.92823805 0.00118575 -0.00065566 -0.00071412
C 18.52067020 21.22991626 1.91531044 0.00350879 0.00491047 0.00110306
C 21.57200897 18.26764056 2.99108443 -0.00066641 0.00223074 0.00152760
C 18.74366175 21.39613000 6.52164746 -0.00392083 -0.00373543 -0.00280163
C 21.71053359 18.32305418 7.85490845 0.00413990 0.00063960 -0.00233971
C 18.55383492 21.59174619 11.36037028 0.00135171 -0.00340150 -0.00364107
C 21.84654935 18.40994352 12.60632198 0.00794318 -0.00540617 -0.00129113
C 18.58810414 21.31785771 16.15732154 0.00315101 0.00273136 0.00169146
C 21.91692161 18.11886503 17.30930934 -0.00367717 0.00711921 -0.00318528
C 18.59147948 21.32999343 20.82919220 -0.00031218 0.00134509 0.00110895
C 21.92373322 18.17158553 22.11305582 -0.00043764 -0.00123011 -0.00110128
C 18.75044697 26.76909390 1.86701969 -0.00473804 0.00141302 0.00103981
C 22.05458529 23.97287494 3.10087028 0.00653899 -0.00282870 0.00181613
C 18.85697542 27.14979848 6.57209345 -0.00741937 -0.00255409 0.00099450
C 21.98765009 24.06988304 7.83966283 0.00345948 0.00377235 -0.00014987
C 19.10436806 26.85438468 11.27422359 -0.00557085 -0.00194815 -0.00025813
C 22.16674014 23.87392398 12.68815411 0.00300312 -0.00204211 0.00028512
C 19.14228328 26.60925041 15.92200981 0.00730126 -0.00087795 -0.00024365
C 22.15939963 23.69493616 17.50230738 -0.00550888 -0.00058758 0.00088005
C 19.13040881 26.83097305 20.69574551 -0.00101953 0.00484399 0.00317788
C 22.19294341 23.90188175 22.20384623 -0.00103855 0.00006189 -0.00192267
C 25.17037002 2.88602454 1.53187383 -0.00339530 0.00190955 0.00401865
C 28.13907139 0.14288444 2.90692048 -0.00437168 0.00249532 0.00305224
C 24.97724357 3.08710288 6.50543016 -0.00264044 -0.00028383 0.00158859
C 28.13050318 0.15184875 7.73162233 0.00062940 0.00051059 -0.00108611
C 24.83967377 3.29594942 11.32758477 0.00319129 -0.00525966 0.00601212
C 27.99767513 0.09274915 12.50731707 -0.00256042 0.00454268 -0.00301795
C 25.16219783 2.97457538 15.96532861 0.00339707 -0.00145961 0.00223985
C 28.23674665 0.02731164 17.29453306 -0.00066226 0.00209375 -0.00113436
C 24.84583563 3.02024968 20.74191164 0.00363438 -0.00371187 0.00385136
C 28.30693171 0.09357515 21.92347676 -0.00415644 0.00285076 0.00658633
C 24.33974208 9.50898043 1.71050453 -0.00332658 0.00346991 0.00073601
C 27.62174306 6.39518311 3.06848182 0.00254855 -0.00237524 0.00280706
C 24.14752999 9.48538072 6.39139713 0.00457115 -0.00364745 0.00531543
C 27.58969900 6.74441185 7.72977465 0.00816425 -0.00511341 0.00141590
C 24.30467083 9.58809399 10.92065750 0.00049173 0.00492857 0.00025773
C 27.61502885 6.36342848 12.51745137 -0.00078687 0.00409019 -0.00467340
C 24.38799355 9.53356523 15.72762506 0.00423774 -0.00620406 -0.00908013
C 27.55579482 6.72379355 17.23613128 -0.00284242 -0.00118053 0.00181946
C 24.34880216 9.46432969 20.60280209 -0.00157198 0.00890493 0.01064908
C 27.38704476 6.54607298 22.00993637 0.00397081 0.00933555 0.00074480
C 24.86154700 15.12290531 1.73212700 0.00545844 0.00227113 -0.00254502
C 27.91687082 11.90771525 3.11182230 0.00329632 -0.00467206 0.00000087
C 24.47843882 14.92064616 6.36328699 0.00222748 -0.00013575 -0.00054857
C 27.85593448 12.25979732 7.79696377 0.00294145 0.00159204 -0.00208140
C 24.73806163 14.98471246 11.07882573 0.00167649 -0.00297119 -0.00177820
C 27.66303050 11.95348928 12.55514561 -0.00261747 -0.00263531 -0.00275785
C 25.07432863 14.93912883 15.96834084 -0.00118658 0.00210300 -0.00422049
C 28.00718046 12.22993591 17.32694172 -0.00270469 -0.00256447 0.00044772
C 24.87138431 15.01835905 20.66300794 -0.00353330 0.00287694 -0.00301311
C 28.01576912 12.07456731 22.05331315 0.00180367 0.00305989 0.00435696
C 25.14487876 20.72178781 1.78159356 -0.00193041 0.00318486 -0.00807832
C 28.19655514 17.67355042 3.13517598 0.00249034 0.00014685 0.00090081
C 25.02958903 20.83139202 6.44033475 0.00025710 -0.00328371 0.00633525
C 28.43446049 17.79430586 7.84652505 -0.00060217 -0.00352865 -0.00120008
C 25.28060419 20.99464680 11.13198056 -0.00054655 0.00376989 0.00137994
C 28.16310822 17.61479229 12.57298081 -0.00153581 -0.00185745 0.00280782
C 25.33876816 20.80623952 15.94653077 -0.00311207 -0.00098692 -0.00716997
C 28.63185351 18.11087707 17.19044418 0.00115693 0.00195638 0.00672648
C 25.45722855 20.52811877 20.76388205 -0.00600537 -0.00135912 0.00326499
C 28.47602011 17.73770788 21.99664371 -0.00672557 -0.00419064 0.00514171
C 25.60873733 26.55349269 1.51385987 -0.00538674 0.00162700 -0.00456987
C 28.67664286 23.10449677 2.93514250 -0.00385221 -0.00566967 0.00588343
C 25.59930670 26.34101984 6.42037089 -0.00518706 0.00139024 -0.00024576
C 28.59457961 23.29837671 7.78967331 -0.00692762 -0.00570323 0.00606320
C 25.64754106 26.36606518 11.21596407 0.00470653 0.00227267 0.00779713
C 28.85020362 23.39208337 12.39809688 -0.00457506 0.00395045 0.00173828
C 25.77525475 26.30892435 15.74529740 -0.00103730 -0.00694570 0.00887821
C 28.77844907 23.47388554 17.12981441 0.00149753 0.00187800 -0.00039660
C 25.73831699 26.47612942 20.58690356 -0.00062919 0.00218283 -0.00049438
C 28.95460945 23.20774385 22.01149078 -0.00022304 -0.00195200 0.00455559
N 0.42364293 4.34368177 0.99962542 0.00142210 -0.00050016 0.00795152
N 3.81296215 5.34036061 3.93119732 -0.00146224 0.00386906 0.00338342
N 5.30417843 2.37756672 0.97494453 0.00044474 -0.00432605 0.00113550
N 1.86431259 1.55942177 3.84674796 -0.00013207 -0.00106803 -0.00287027
N 0.23214571 4.36137681 5.55432669 0.00310203 -0.00533321 0.00540384
N 3.47791365 5.47666412 8.63086149 -0.00106340 -0.00253769 0.00235388
N 5.26047368 2.35587484 5.65709105 0.00114941 -0.00189217 -0.00091157
N 1.66586932 0.98833127 8.45291770 0.00129594 0.00257599 -0.00179824
N 0.07141774 4.38458639 10.53874328 0.00176385 -0.00207773 -0.00117915
N 3.35740660 5.11083828 13.38571409 -0.00374139 -0.00091481 -0.00040599
N 5.36993973 2.50280615 10.39667899 -0.00244103 -0.00474302 0.00194014
N 1.45781946 1.18691829 13.34518451 -0.00160056 -0.00502230 -0.00879253
N 0.33756373 4.44627397 15.36015663 -0.00271634 0.00319769 0.00381061
N 3.73405092 5.40668648 18.02621539 0.00149582 0.00093930 -0.00289496
N 5.39999635 2.33658851 14.94666235 -0.00099431 0.00191610 -0.00220302
N 1.81621474 1.62478026 17.94416618 0.00444954 0.00107642 -0.00427764
N 0.16157035 4.48623042 19.90304867 -0.00411928 -0.00273609 0.00213244
N 3.37850889 5.47789267 22.91327078 0.00113003 0.00529810 -0.00154011
N 5.35273755 2.34897751 19.87562651 0.00092924 -0.00487920 0.00319746
N 2.05602473 1.77620790 22.79209320 -0.00107128 0.00239357 0.00466434
N 0.47123264 10.15464637 0.97438497 -0.00307560 0.00265695 -0.00584077
N 4.09089055 10.90701905 3.75692150 0.01149049 0.00165050 -0.00166329
N 5.64884386 7.88059664 0.94866547 0.00158087 0.00572740 0.00653762
N 2.37642479 7.06255725 3.79505068 -0.00858517 0.00575348 0.00066995
N 0.42792861 9.95472938 6.01498779 -0.00257869 0.00195951 -0.00156004
N 3.99486424 10.78634705 8.48788784 0.00668841 0.00024937 -0.00286365
N 5.81985987 8.02043091 5.81746829 0.00601289 -0.00302828 -0.00127997
N 2.11845295 7.35856700 8.62488982 -0.00110852 0.00393472 0.00591517
N 0.40358402 10.01961312 10.57036831 -0.00491246 0.00324587 -0.00405785
N 4.50383392 10.63755006 13.26236790 -0.00336983 -0.00062647 -0.00387484
N 5.99012599 7.74856287 10.56825202 -0.00295616 0.00057234 0.00348422
N 2.32261755 7.16572423 13.24381546 0.00802840 -0.00045202 0.00138029
N 0.53985588 10.09621994 15.28852391 0.00050971 -0.00015166 0.00448160
N 4.36344391 10.85966909 18.06495142 0.00116050 0.00681188 0.00342884
N 5.94115244 7.95115579 15.21765596 0.00164683 -0.00685457 0.00122715
N 2.50398097 7.33436887 18.08457001 -0.00253481 -0.00326031 -0.00723208
N 0.54976471 10.30472190 19.91285801 0.00041463 -0.00284918 0.00179478
N 4.14449211 10.91465090 22.95947800 0.00172246 0.00027528 -0.00031239
N 5.79768723 7.89362286 20.23444570 -0.00088914 -0.00610365 -0.00169065
N 2.02645113 7.38464758 22.72111081 0.00501529 0.00079887 -0.00554739
N 0.74077398 15.86942744 0.89496366 -0.00258564 0.00234670 -0.00592864
N 4.49466247 16.54742245 3.56224060 0.00119597 -0.00439213 -0.00280752
N 6.27868798 13.61342412 0.87286651 -0.00533244 0.00748542 -0.00198869
N 2.85321373 12.75037234 3.69703937 0.00024452 -0.00060973 -0.00688052
N 0.96710391 15.24956798 5.68263068 -0.00302770 0.00816833 0.00012055
N 4.66858924 16.50537708 8.41888792 0.00142045 0.00353557 0.00081705
N 5.94826629 13.48551023 5.69784556 -0.00240523 -0.00278827 -0.00082373
N 2.90542089 12.78311166 8.48276191 0.00562375 -0.00706308 -0.00344589
N 0.78016441 15.62850851 10.26324393 0.00736014 0.00157060 -0.00070824
N 4.45563551 16.59227988 13.30333529 0.00244914 -0.00220884 0.00177373
N 6.10461611 13.39010429 10.44313194 0.00017346 -0.00141736 0.00388081
N 3.16014241 12.59320622 13.15775175 -0.00378192 0.00486646 -0.00088925
N 0.91665529 15.53420126 15.01318198 -0.00181627 0.00627428 -0.00459092
N 4.46278075 16.57934450 18.22872430 -0.00485008 0.00247309 0.00225897
N 5.87850569 13.57852815 15.16510772 -0.00144095 -0.00023145 0.00514457
N 3.17730134 12.81726539 18.07984280 -0.00158700 0.00377581 0.00452190
N 0.94785000 15.55254989 19.76955797 -0.00415052 0.00524502 -0.00459080
N 4.63607378 16.61428065 22.61312063 0.00163270 0.00638613 0.00273898
N 6.25766784 13.50798294 20.00011376 -0.00606222 0.00098953 0.00447851
N 2.91211984 12.82446516 22.93763456 0.00103755 -0.00080585 -0.00682235
N 1.48335577 21.15440303 0.92603785 0.00441717 -0.00404365 -0.00658853
N 4.19041619 23.53172618 3.55777010 0.00238320 -0.00252790 -0.00171945
N 5.38568937 19.95493596 0.74782297 -0.00469328 -0.00418425 0.00028842
N 2.63886181 17.99017512 3.92078238 0.00313838 0.00505871 -0.00314622
N 1.41153369 21.04356349 5.58074077 -0.00081367 0.00552854 0.00173004
N 4.03846171 22.95773402 8.38041036 0.00011046 -0.00377154 -0.00561036
N 5.41168295 20.29005027 5.68589979 0.00555955 0.00643571 -0.00005851
N 3.00685839 18.07688589 8.54764959 0.00172596 -0.00066223 0.00554086
N 1.43695637 20.96748402 10.51209472 0.00414839 0.00197347 0.00416886
N 4.12820796 23.55663286 13.22541254 0.00001405 0.00032239 0.00218515
N 5.32083590 20.01601544 10.13934647 -0.00310979 0.00332529 -0.00165648
N 2.72491344 18.05035738 13.22817823 -0.00036347 0.00191735 0.00101535
N 1.45813849 21.21335271 15.10438811 0.00270852 0.00380068 0.00201607
N 4.02404953 23.15185047 17.97107930 -0.00491436 0.00100447 0.00275599
N 5.30441065 20.17101970 15.15808419 -0.00257635 -0.00418585 -0.00448695
N 2.65912086 18.04128464 18.05936484 -0.00172062 -0.00021075 -0.00222402
N 1.59438670 20.86017580 20.15654007 0.00028951 -0.01085456 -0.00174944
N 4.29534585 23.36289922 22.45808789 0.00478119 0.00497222 -0.00190194
N 5.50163757 19.89751587 20.01678573 -0.00088377 -0.00092787 -0.00268576
N 2.77372096 17.93817545 22.68583878 -0.00061780 0.00704136 -0.00907383
N 0.88064505 27.53682955 0.98999004 -0.01099686 -0.00361517 0.00320493
N 3.40165515 29.76692155 3.64620161 -0.00181781 -0.00176784 -0.00267147
N 5.02882747 26.38510546 0.77502317 -0.00021406 0.00164758 -0.00198408
N 1.97239345 24.28467840 3.73904844 -0.00149852 -0.00583739 0.00516876
N 0.87972948 27.58667564 5.84542405 0.00495489 -0.00091193 -0.00950612
N 3.65944516 29.89143919 8.45170775 0.00495102 0.00195200 0.00256632
N 4.51698629 26.66912038 5.63767859 0.00751981 0.00344883 0.00183136
N 2.05601328 24.17690846 8.47805234 -0.00094282 0.00228250 0.00325437
N 0.82522975 27.60328873 10.57009428 -0.00488363 -0.00282580 -0.00277330
N 3.26043774 29.78025712 13.48612343 0.00279237 0.00048240 0.00408262
N 4.74713056 26.72907593 10.42598125 0.00751748 -0.00282687 -0.00036184
N 2.09837018 24.53457344 13.15506491 -0.00438898 -0.00142472 0.00014238
N 0.65706487 27.58222098 15.24837783 0.00036852 0.00515183 -0.00485510
N 3.38500060 29.94159462 17.70091383 0.00565072 0.00502694 0.00033487
N 4.60793751 26.99233748 15.32721831 0.00183815 -0.00054443 -0.00213278
N 2.36625855 24.69443573 17.96886216 0.00450924 0.00290441 0.00375418
N 0.76435946 27.52652542 20.09737532 0.00000028 0.00180765 0.00886117
N 2.99088612 29.60832482 22.66564452 0.00298815 0.00060017 0.00142830
N 4.95002605 26.72237940 19.82997133 0.00505638 0.00231370 0.00643787
N 2.27498700 24.49466207 22.68495451 0.00446046 -0.00060132 0.00209067
N 6.82895709 4.01038120 0.89176451 -0.00435559 -0.00212037 -0.00282935
N 10.32557765 4.86556147 3.99111153 0.00301556 -0.00121851 0.00123185
N 11.99527429 1.63874356 1.28457199 0.00233555 -0.00803493 0.00699137
N 8.30784190 1.00744470 3.70458085 0.00422757 0.00379551 0.00025569
N 6.76631533 4.06702634 5.74534364 0.00313081 -0.00471263 -0.00390603
N 10.57097443 4.99636249 8.53964661 -0.00766474 0.00272281 -0.00363192
N 11.87813803 1.92150935 5.81734649 -0.00305583 0.00234836 0.00109780
N 8.37358059 1.00133755 8.31551649 0.00019993 -0.00237731 0.00069319
N 7.00754515 4.15211287 10.31577835 -0.00224681 0.00479148 -0.00488674
N 10.35693511 4.66979345 13.14217983 -0.00682413 -0.00397941 -0.00114763
N 11.97529225 2.08760559 10.49152308 -0.00596307 0.00057458 0.00028965
N 8.56987007 1.27726728 13.16011465 0.00436873 0.00334073 0.00233380
N 6.97506895 4.07006944 15.04518966 -0.00815693 -0.00960607 0.00174778
N 10.20033261 4.71630059 18.01218501 -0.00381140 -0.00363122 0.00011430
N 12.10159216 1.83425048 15.20847816 0.00053494 0.00134695 -0.00292118
N 8.50931478 0.95436486 17.71840380 0.00160812 0.00533696 0.00289147
N 6.94777809 3.97131458 19.95298209 0.00183185 0.00826998 0.00778667
N 10.48035976 4.71753135 22.96310992 -0.00153048 -0.00055192 -0.00196199
N 12.01004140 1.90106351 20.06432771 -0.00550067 0.00343553 0.00005546
N 8.62413988 1.13562276 22.55680548 0.00344327 0.00434196 0.00507478
N 7.23069121 9.55738803 1.08089406 0.00462462 0.00065124 0.00406463
N 10.87561399 10.48873812 3.62846428 0.00625860 -0.00112383 0.00273264
N 12.60640515 7.27535490 0.97044100 0.01100631 0.00404588 -0.00200805
N 9.11361703 6.80658828 3.67375212 0.00031791 0.00374520 0.00733231
N 7.30353132 9.75483474 5.78193793 -0.00064149 0.00229541 -0.00231161
N 10.69715669 10.92231322 8.41135742 -0.00166521 -0.00291115 0.00074953
N 12.59628422 7.39852034 5.68135552 0.00107618 -0.00721508 -0.00285505
N 9.13356901 6.86031649 8.55474481 -0.00297908 -0.00252882 -0.00202083
N 7.46074446 9.52249022 10.56599952 0.00244103 -0.00259317 0.00285083
N 11.10926889 10.82076341 13.09256207 -0.00433907 0.00294515 -0.00184530
N 12.64699287 7.73090010 10.51258182 -0.00161711 -0.00451244 0.00226528
N 9.38333891 6.77544174 13.43869604 0.00160918 0.00757531 -0.00345007
N 7.36163230 9.71249294 15.36200274 0.00316578 0.00419316 0.00099573
N 10.77266783 10.39660105 17.73465564 -0.00071823 0.00135645 -0.00333160
N 12.40117137 7.62958514 15.17343717 0.00606667 0.00074218 0.00261876
N 8.83637202 6.53354038 18.15856054 0.00104386 0.00539765 -0.00300841
N 7.21209689 9.71662393 20.02044044 0.00422139 0.00028604 0.00388831
N 10.46452952 10.30585242 22.71488460 -0.00904186 -0.00059891 0.00220816
N 12.36129863 7.54302933 19.89584375 0.00309624 0.00035975 0.00240264
N 9.06944234 6.50777309 22.71307805 0.00161189 0.00200039 -0.00565833
N 7.98541193 15.28127463 1.04102544 0.00637489 0.00172572 0.00329029
N 10.25706277 17.47683228 3.79159948 0.00484100 0.00030487 -0.00208917
N 11.94584476 14.26140025 0.96106073 -0.00589998 -0.00709785 -0.00553634
N 9.24060828 12.10898544 3.73063971 0.00356868 0.00113899 0.00252703
N 7.61921611 15.04834546 5.68395459 -0.00133487 0.00096108 0.00115558
N 10.50262069 17.49308028 8.56614991 -0.00423491 0.00221133 -0.00029272
N 11.86217516 13.83724285 5.79638349 0.00567634 0.00031506 0.00054357
N 9.16522608 12.62342902 8.46806903 -0.00462757 -0.00120143 0.00087648
N 7.53466304 15.21536635 10.24391924 -0.00443166 0.00143358 0.00127962
N 9.98915355 17.08055413 13.02638911 -0.00062074 0.00125859 0.00061166
N 11.87380544 14.14295806 10.52846806 0.00104981 0.00282900 -0.00492856
N 9.06681606 11.94000879 13.18457652 0.00183930 -0.00305039 0.00540490
N 7.55717272 15.10870489 15.05962476 0.00059567 0.00546576 0.00239503
N 10.62137425 17.53711280 17.95644334 -0.00608528 0.00808721 -0.00375548
N 11.57243857 14.35921733 15.21181363 -0.00158281 0.00316916 -0.00224865
N 9.32641503 12.17003967 17.85643038 0.00197678 -0.00136870 -0.00675006
N 7.74031106 15.26948230 19.83125166 -0.00408558 -0.00272145 0.00026762
N 10.27361720 17.32890274 22.54710879 -0.00277474 0.00230353 0.00423196
N 11.85911421 14.25520436 19.95522396 -0.00091164 -0.00332861 -0.00051450
N 9.17868999 12.18945253 22.68727621 -0.00271486 0.00473848 0.00029331
N 7.01464628 21.50099212 0.95519426 0.00136234 -0.00062141 -0.00005360
N 9.65838782 23.65515743 3.37611556 0.00468129 -0.00081570 -0.00344344
N 10.89597939 20.82182541 0.91987770 0.00100912 -0.00113510 0.00721259
N 8.19741114 18.48426945 3.82644831 0.00094453 -0.00097821 0.00112466
N 7.06697160 21.75645604 5.20809026 0.00148827 0.00392420 -0.00414925