2000
Time=55000.00000004 pbc="T T T" Lattice="31.00854793 0.00000000 0.00000000 0.00000000 30.27782316 0.00000000 0.00000000 0.00000000 23.64173116" energy=-12039.70653641 virial="-60.51976198 -11.85854960 -13.83769362 -11.85854960 -30.90902191 -3.75058170 -13.83769362 -3.75058170 17.93993609" stress="-0.00067059 -0.00058944 -0.00070690 -0.00058944 0.00077147 -0.00006322 -0.00070690 -0.00006322 0.00361949" Properties=species:S:1:pos:R:3:vel:R:3
C 30.44754730 3.80889525 1.70102317 0.00162117 0.00299172 -0.00069118
C 2.70939895 0.56696348 2.87677400 -0.00241466 0.00845429 -0.00829158
C 30.18229523 3.37032317 6.48898916 0.00378358 -0.00449457 0.00392059
C 2.53587560 0.21067266 7.62683037 0.00205050 0.00113641 -0.00388200
C 30.00428422 3.59145346 11.10795148 -0.00390932 0.00140339 -0.00755400
C 2.72569324 0.82848221 12.47557055 0.00960282 0.00294517 0.00293545
C 30.34859157 3.68465052 15.85052471 -0.00244937 -0.00550449 0.00710789
C 2.82464636 0.72803400 17.15368418 -0.00448551 -0.00714210 0.00431171
C 30.30702235 3.67204275 20.66789706 0.00310389 0.00091150 0.00324815
C 2.51320931 0.71535873 21.76759196 -0.00367943 -0.00658432 0.00659183
C 30.98294763 9.45312019 1.68995377 -0.00050996 -0.00272844 0.00342950
C 3.01174399 6.36567275 3.04011477 -0.00450939 -0.00136789 0.00569771
C 0.02033557 9.21445526 6.59756188 0.00539457 -0.00375306 0.00331943
C 2.77906384 6.01067677 7.79165671 0.00235779 -0.00737744 -0.00576187
C 30.82519935 9.39571700 11.25612891 0.00550703 -0.00297918 -0.00128656
C 2.75712013 6.18655256 12.47927885 -0.00687586 -0.00458292 -0.00152374
C 30.98101615 9.46111098 15.86856134 0.00107671 -0.00678528 0.00226568
C 2.91044376 6.26284850 17.23772350 -0.00542439 0.00347125 0.00151828
C 30.72390534 9.37397794 20.54445212 0.00604669 0.00646427 -0.00371749
C 2.86037319 6.05867667 22.13398687 0.00288807 0.00427336 -0.00561118
C 30.97179861 15.01092873 1.62788051 0.00269411 -0.01075004 -0.00110405
C 3.27543299 12.32624172 2.85661092 -0.00750585 0.00217540 0.00376400
C 0.26711432 15.00929849 6.42511955 0.00124119 -0.00524167 -0.00676700
C 3.39926072 11.78345135 7.68791438 -0.00249014 0.00567600 0.00418441
C 0.01720188 14.78762368 11.35431217 -0.00353530 0.00610281 -0.00437206
C 3.40053778 12.02456499 12.57241129 -0.00147684 -0.00190531 0.00539498
C 0.46682731 15.00905202 15.94596277 -0.01331518 -0.00020820 -0.00694990
C 3.52681323 11.82126611 17.22250670 -0.00527993 -0.00548351 0.00383213
C 0.67842091 15.07887111 20.57035792 0.00451082 0.00286419 -0.00501715
C 3.30906933 11.78246921 21.76259522 -0.00538686 0.00473231 -0.00481241
C 0.80406871 20.68314984 1.70253493 0.00196216 0.00088909 -0.00039578
C 3.40268327 17.46287227 2.89459709 0.00367182 0.00282474 0.00701631
C 0.50278508 20.66373348 6.55590077 -0.00104461 -0.01275905 0.00103338
C 3.81234995 17.80234741 7.77572714 -0.00133504 -0.00144650 0.00127177
C 0.65678680 20.60724934 11.27211045 0.00357089 -0.00264631 -0.00244792
C 3.76678189 17.40020147 12.39741104 -0.00160569 0.00023425 0.00094505
C 0.78913673 20.75050694 15.68497785 0.00071272 0.00287751 0.00105298
C 3.75892830 17.56369710 17.15948230 0.00665693 0.00003289 0.00651559
C 0.53008460 20.43691686 20.62568224 0.00088662 -0.00096197 -0.00617811
C 3.73316764 17.59877597 21.94124980 -0.00171551 -0.00179068 0.00152669
C 30.98859028 27.24090362 1.69899835 -0.00160060 -0.00032868 0.00209990
C 2.91378309 24.24133242 2.90868492 0.00181005 0.00545574 0.00412282
C 0.05161499 27.17141174 6.41980863 -0.00453100 0.00052842 -0.00025681
C 3.36443861 24.47353161 7.72164036 -0.00401290 0.00446107 -0.00308269
C 0.00522729 27.39376565 11.11156039 0.00208402 0.00087617 -0.00036235
C 3.09743406 24.20795896 12.49335221 0.00301257 -0.00574880 0.00075989
C 0.01482969 27.67607273 15.85223356 0.00382912 0.00102171 -0.00592771
C 2.98459848 24.04110294 17.17842138 -0.00002096 -0.00539270 0.00029393
C 0.05203778 27.33123261 20.64405846 -0.00036136 -0.00442898 -0.00535932
C 3.19219431 24.43031509 21.91549783 -0.00837365 0.00133580 0.00215819
C 6.25520996 3.60076698 1.67761346 -0.00940062 -0.00688748 -0.00487424
C 9.08293036 0.14750551 2.89702665 0.00719692 -0.00241536 -0.00296347
C 5.91064023 3.11296592 6.39503009 0.00522057 -0.00084261 -0.00059569
C 9.10560277 0.13269135 7.79522277 0.00070546 -0.00563854 -0.00173542
C 6.01237192 3.35476834 11.23953159 0.00169682 0.00428103 -0.00035376
C 8.98285482 0.27134523 12.42509336 0.00222655 0.00503576 -0.00752989
C 5.89928349 3.45439872 15.97117059 0.00888073 0.00278590 -0.00520290
C 9.07729036 0.31468201 17.16062231 -0.00086617 0.00508759 0.00323263
C 5.80508309 3.28429106 20.72818998 0.00135997 -0.00634471 0.00268387
C 9.01533809 0.21244863 21.94431747 0.00542198 -0.00336860 -0.00167982
C 6.42958719 9.16835585 1.80732465 -0.00305050 -0.00355755 -0.00186632
C 9.46115837 6.05733313 3.18941509 -0.00591064 -0.00204660 -0.00008613
C 6.27321739 8.67517354 6.58098414 0.00492656 -0.00357911 0.00221508
C 9.48884531 5.71029448 7.81617945 0.00161548 0.00891828 -0.00367656
C 6.48841602 8.95634726 11.26955338 -0.00456756 -0.00408893 0.00747696
C 9.50255794 6.08933319 12.60812693 -0.00067717 -0.00291423 0.00218061
C 6.57308588 8.92188713 15.88583102 0.00484511 -0.00236921 -0.00139324
C 9.23126966 5.65471330 17.24122313 -0.00095338 0.00343061 -0.00086551
C 6.57405622 8.88229488 20.66164832 0.00353431 0.00310608 -0.00262263
C 9.81855844 5.88432352 22.01264723 -0.00225708 -0.00394398 -0.00290754
C 6.98133671 14.39884874 1.77107470 0.00027645 0.00243723 0.00560037
C 9.69494809 11.13241479 3.04212776 0.00544172 0.00354565 -0.00434238
C 6.74348495 14.56253034 6.35346153 -0.00281760 -0.00000994 -0.00401933
C 9.85130419 11.48714512 7.77649861 -0.00350651 -0.00205251 0.00272717
C 6.97198542 14.56122871 11.18940931 0.00209508 0.00375408 0.01366813
C 10.12988958 11.64242198 12.52252907 -0.00639009 0.00432611 0.00466910
C 7.06573376 14.52896963 15.79901774 -0.00031554 -0.00281317 -0.00080586
C 10.31371618 11.61417564 17.17646524 -0.00137645 0.00140217 -0.00155913
C 6.86057758 14.57269125 20.54325528 0.00355119 0.00686848 0.00142086
C 9.96767063 11.61848973 21.90401085 -0.00344754 0.00137295 -0.01095477
C 6.27084997 21.07720324 1.77509772 0.00483197 0.00007307 -0.00786052
C 9.14110968 18.12821178 3.02141889 -0.00295252 -0.00190002 -0.00077815
C 6.26780242 21.50389479 6.39366537 0.00149776 0.00120195 -0.00630763
C 9.21904729 17.92276429 7.88004035 0.00406659 0.00724917 -0.00053438
C 6.45293360 21.17300700 11.14481897 -0.00092379 0.00148708 0.00203168
C 9.40807288 18.42433200 12.43032147 -0.00020752 0.00180818 -0.00766515
C 6.21269642 21.20401851 15.86115598 -0.00579574 0.00653802 -0.00166484
C 9.19987013 18.32719453 17.22496095 0.00055264 0.00447742 0.00199129
C 6.12099089 21.23152497 20.63651603 -0.00041153 -0.00300405 -0.00296592
C 9.35344619 18.42278298 22.08920403 0.00808014 -0.00071517 0.00691704
C 5.53496468 27.87169928 1.65051007 0.00288749 0.00308892 0.00065013
C 8.48129374 24.63951206 2.98911497 -0.00186902 -0.00450740 0.00160886
C 5.83974467 27.71419143 6.47021837 0.00419202 -0.00331533 -0.00335297
C 9.01934606 24.79444282 7.56575102 -0.00155259 -0.00192369 0.00774769
C 5.78113939 27.66041588 11.16545648 -0.00042833 0.00685037 0.00083132
C 8.79053699 24.84415340 12.40573320 0.00318812 -0.00116420 -0.00667634
C 5.54063022 27.87005118 15.90883278 0.00440133 -0.00036231 0.00323701
C 8.47754165 24.69930510 17.00403609 -0.00751634 0.00550896 0.00436954
C 5.54663720 27.85844326 20.60942076 -0.00020967 0.00218276 -0.00281082
C 8.58236315 24.77221910 21.83117990 0.00789433 -0.00023316 0.00393479
C 12.77978568 2.79937301 1.72334465 -0.00015878 0.00502703 -0.00042786
C 15.50505247 30.18079191 3.08165661 -0.00227842 0.00648681 -0.00645117
C 12.66705003 2.73362121 6.58284867 -0.00139754 0.00512696 -0.00606966
C 15.66841128 29.91220262 7.67997264 0.00818701 0.00215063 -0.00128468
C 12.27598897 2.67192737 11.25665003 -0.00160238 0.00191708 0.00418811
C 15.56574890 30.11096819 12.44618076 -0.00342505 0.00701481 0.00080704
C 12.53793249 2.51929512 15.93365879 0.00356360 0.00380517 -0.00274249
C 15.74445499 29.85543334 17.21618168 0.00504623 -0.00531838 -0.00465783
C 12.51646487 2.81705742 20.60905070 -0.00237815 0.00401585 0.00717568
C 15.69223530 29.99537847 21.94677265 -0.00252117 0.00287419 -0.00455204
C 12.80932684 8.17131958 1.77410022 0.00054742 0.00355440 -0.00437435
C 15.91214060 5.24878079 2.99995559 0.00070667 -0.00298359 -0.00530154
C 12.82068532 8.50336845 6.55297565 -0.00334920 -0.00090798 0.00029173
C 16.10315238 5.23097909 7.90474918 0.00233854 -0.00365316 0.00365065
C 12.89897520 8.52797177 11.17756869 0.00144649 0.00431536 0.00341624
C 15.74406609 5.40739347 12.62666900 -0.00609649 0.00314443 -0.00520828
C 13.05269859 8.36283445 15.98835658 -0.00640615 0.00057270 -0.00022062
C 15.80672098 5.29761849 17.14990189 -0.00559151 -0.00045973 0.00116633
C 12.87434708 8.37266665 20.75860746 -0.00348837 0.00455458 0.00195354
C 15.87542684 5.29336813 21.75532213 -0.00286064 -0.00368741 -0.00666881
C 12.41574620 14.94307067 1.69844764 0.00101777 -0.00140577 0.00303562
C 15.25926726 11.88006852 3.09756978 0.00699226 -0.00211514 -0.00666599
C 12.45628154 14.90812286 6.60386571 -0.01018903 0.00461294 -0.00322104
C 15.50713592 11.72352502 7.72492583 -0.00818036 0.00138103 0.00231554
C 12.39639724 15.21823741 11.11838670 -0.00256574 -0.00102774 0.00086280
C 15.43415415 11.99990672 12.48599138 0.00046678 0.00309176 0.00381904
C 12.60630321 15.49508651 15.97943591 -0.00365623 0.00084372 -0.00286056
C 15.36704256 12.17337149 17.18622342 0.00082504 0.00120936 0.00412117
C 12.21152598 15.26077836 20.66145344 0.00614013 -0.00391441 0.00512585
C 15.18129331 11.97485439 22.06263064 0.00222466 0.00140246 -0.00028083
C 11.90261107 21.75833008 1.73229070 -0.00082534 -0.00163249 -0.00288461
C 14.83563264 18.91846483 2.85912078 0.00403316 0.00390539 -0.00183770
C 11.84512800 21.98677685 6.39255785 0.00432669 -0.00455589 0.00082419
C 14.88890423 18.82224695 7.57106303 -0.00097741 -0.00516603 -0.00853014
C 12.03016589 21.75142097 11.20116130 0.00088981 0.00464431 0.00352468
C 15.07322428 18.79219333 12.22102317 -0.00196589 -0.00026457 -0.00619409
C 11.67174789 22.02692521 15.79365423 0.00361752 0.00349530 0.00794653
C 15.02328059 18.82540298 17.22400179 0.00213019 -0.00357817 0.00392837
C 11.81211159 21.88437708 20.42592204 -0.00026307 -0.00254392 0.00251618
C 14.81974393 18.69511317 21.74228822 0.00511042 -0.00917796 -0.00395221
C 12.01673541 27.44837474 1.82548844 0.00336011 -0.00985477 -0.00192006
C 15.48343165 24.42911688 3.00467030 0.00036825 0.00407939 0.00633057
C 11.99622073 27.50505308 6.43477463 -0.00613328 0.01127298 -0.00667713
C 15.01902678 24.33391685 7.81624824 0.00278063 0.00102494 -0.00549669
C 12.06917231 27.53578191 11.18284418 -0.00032601 -0.00551878 -0.00035548
C 15.16347331 24.26545252 12.46309054 -0.00692831 -0.01292441 0.00775154
C 12.02604775 27.43850001 15.80763437 0.00632747 0.00318857 0.00629727
C 15.38573385 24.45878505 17.22373089 0.00532649 0.00084123 0.00810154
C 12.14915563 27.63928765 20.63404540 0.00786612 -0.00399141 0.00003966
C 15.30634038 24.57514099 21.87618105 -0.00201129 -0.00028120 0.00342730
C 19.18491110 2.63366149 1.78505917 0.00653759 -0.00085246 0.00284091
C 22.06620620 29.75573903 3.02047113 -0.00495076 -0.00282815 -0.00415008
C 19.16230576 2.39037348 6.45795144 -0.00041829 -0.00403711 0.00904263
C 22.31071995 29.55846720 7.62810157 0.00128036 0.00454692 -0.00329034
C 19.26534774 2.36293226 11.11251064 -0.01062759 -0.00170932 -0.00417207
C 22.24706812 29.66586775 12.39332146 -0.00203696 -0.00494496 -0.00154300
C 19.03590381 2.43909175 16.05685747 -0.00663457 0.00517054 0.00074510
C 22.19765729 29.59284520 17.26866862 0.00007339 -0.00519194 0.00569082
C 19.26789360 2.46710400 20.80199577 0.00208466 -0.00382469 -0.00708282
C 22.35564298 29.90581021 21.99953750 0.00390452 0.00539791 0.00548214
C 18.35630674 8.89853753 1.83633483 -0.00004733 0.00715055 0.00758177
C 21.76866595 6.09234699 3.07691964 0.00039491 0.00631523 0.00496658
C 18.62017409 8.95575422 6.62288402 0.00214909 0.00210556 0.00036475
C 21.56746716 5.91855745 7.75346128 0.00048842 -0.00091201 -0.00089516
C 18.66482600 8.79719515 11.21814060 -0.00038264 -0.00612747 -0.00212558
C 21.52787811 6.07214452 12.72988124 0.00459078 0.00259501 0.00571793
C 18.40682826 9.34112609 16.05547111 0.00196110 -0.00220545 0.00555509
C 21.54517826 6.00477060 17.41270676 0.00893267 0.00255032 -0.00089110
C 18.50506105 8.92681057 20.53949985 -0.00168008 -0.00228119 0.00651998
C 21.85964314 6.14562905 22.07243133 -0.00683418 -0.00202423 -0.00374661
C 18.09679819 15.86856458 1.64171807 0.00164273 0.00459089 0.00371834
C 20.87385973 12.74178867 3.13948736 -0.00306094 0.00288100 0.00005276
C 17.75969376 15.80640912 6.29425362 -0.00106762 -0.00060690 -0.00463693
C 20.95267456 12.54218373 7.85573671 0.00320648 -0.00516045 0.00237429
C 17.95311615 15.80469876 11.23102475 -0.00653461 0.00562377 0.00067129
C 20.91217350 12.64590002 12.52343244 -0.00345538 -0.00315274 -0.00795600
C 17.90440229 15.88901258 15.83460860 0.00070315 0.00093189 0.00281332
C 21.18192867 13.05460267 17.14516965 -0.00125505 -0.00148237 0.00303984
C 17.98284974 15.81459397 20.57604194 -0.00259703 -0.00228703 0.00813881
C 20.96914007 12.55319062 21.87494405 0.00357604 0.00361222 -0.00501956
C 18.31569213 21.08286429 1.55944588 0.01033137 0.00049738 -0.00875706
C 21.36684474 18.43827493 3.13068532 -0.00686133 0.00112034 -0.00261953
C 18.45482861 21.59616274 6.31503842 0.00537249 -0.00447092 -0.00328511
C 21.71942798 18.24169266 7.76633392 -0.00048112 0.00098902 -0.01339954
C 18.59892605 21.58625685 11.07745624 -0.00674399 0.00018171 0.01165831
C 21.78987334 18.42276744 12.45830091 0.00307883 0.00125514 -0.00216095
C 18.35256710 21.48139234 15.81930711 0.00122198 0.00239893 0.00431606
C 21.70476290 18.38769914 17.14987326 0.00461201 0.00556678 -0.00052882
C 18.40425613 21.51082392 20.53082825 0.00337756 0.00130439 0.00493585
C 21.64940256 18.31555834 22.02520288 -0.00190316 -0.00647197 0.00499825
C 19.05999971 26.92948675 1.76851514 0.00491258 0.00213190 -0.00014604
C 22.31295464 24.04507291 2.85655602 -0.00190618 0.00623755 0.00830768
C 18.92119174 26.90798994 6.56877837 0.00193364 0.00346694 -0.00354224
C 22.12463879 23.99285249 7.52254183 -0.00503999 -0.00366415 -0.00469792
C 18.82787357 27.04006517 11.07547069 0.00233714 0.00003247 -0.00036314
C 21.64409375 24.16152288 12.39526050 0.00854627 -0.00420683 -0.00207809
C 18.81491888 26.86881634 15.56214138 -0.00194082 0.00275678 0.00127503
C 21.85676446 24.20842593 17.21336046 -0.00264484 -0.00059303 0.00109597
C 18.64986169 27.20741264 20.62842328 -0.00256325 0.00376233 0.00128969
C 21.86699395 23.88111157 21.92380532 0.00389009 -0.00406965 0.00496527
C 24.91733121 2.89022786 1.70803993 0.00740914 -0.00283317 -0.00426799
C 27.91916575 0.15197694 2.93681617 0.00143139 -0.00015763 -0.00242506
C 24.82571912 2.97904211 6.35291926 0.00016303 0.00167383 -0.00797093
C 27.58576226 30.04294907 7.70943671 -0.00024558 0.00132478 -0.00594537
C 24.79106571 3.09367287 11.26726925 -0.00062166 0.00723247 0.00213576
C 27.85407810 0.24841562 12.38267834 -0.00518907 0.00231023 -0.00306398
C 24.66907276 3.03290385 15.98722506 -0.00080104 -0.00129420 -0.00367875
C 27.75606483 0.36725474 17.16657441 0.00238978 0.00824737 0.00173389
C 24.54786618 3.00276815 20.73706785 -0.00412435 0.00147624 -0.00532428
C 27.94387923 30.20099073 21.85651034 -0.00193173 0.00003581 -0.00179025
C 24.02180080 9.71781618 1.53832271 -0.00192756 -0.00191415 -0.00421614
C 27.62174014 6.55845751 2.96004529 -0.00765597 0.00401167 0.00029182
C 24.32574436 9.60084587 6.40059401 -0.00342962 -0.00787482 -0.00134812
C 27.42710023 6.71360262 7.78048373 -0.00444755 0.00131592 -0.00007650
C 24.00148189 9.82105590 11.19395180 -0.00169320 -0.00596889 -0.00135439
C 27.25330348 6.72239322 12.45484419 0.00182882 0.00187892 -0.00351458
C 24.23337629 9.55625975 15.88923896 -0.00084693 0.00149276 -0.00570354
C 27.27861274 6.70037025 17.32639892 -0.00525595 -0.00568642 -0.00714045
C 24.27798813 9.67036751 20.57171088 0.00223057 -0.00207189 0.00265820
C 27.25102315 6.57015531 21.91539771 -0.00368894 0.00145053 0.00428084
C 24.52506841 15.07968442 1.63957975 0.00423136 -0.00253324 0.00357960
C 27.64712240 11.96076180 3.08008386 -0.00226999 0.00015322 -0.00289234
C 24.81559436 15.17660804 6.43459376 -0.00625618 0.00321969 0.00306942
C 27.87794642 12.18185960 7.94063189 0.00192904 0.00793885 -0.00261883
C 24.62925843 15.37518989 11.05960841 -0.00491254 -0.00441443 0.00747424
C 27.68425236 12.38274519 12.49693215 0.00052642 0.00066055 0.00198932
C 24.69758959 15.53370518 15.88291836 -0.00204680 -0.00486436 0.00345012
C 27.77631008 12.23561380 17.17077626 0.00104506 -0.00148167 0.00348536
C 24.97521269 15.24326251 20.42776891 -0.00423249 0.00543410 0.00152464
C 27.87496638 12.17617143 21.67675386 -0.00619848 -0.00684635 -0.00087088
C 25.10815289 20.73586866 1.61555321 0.00503555 -0.00474516 0.00089231
C 27.90680109 17.89436936 2.99275781 -0.00040681 0.00489189 0.00527639
C 25.22874720 20.71145131 6.48839280 0.00124338 0.01289507 0.00227632
C 28.13447139 17.94987600 7.79346413 -0.00319853 -0.00306723 0.00334341
C 25.04788601 20.98143746 11.17561915 0.01115007 -0.00302045 0.00773488
C 28.25055169 17.87679284 12.40667107 -0.00139285 0.00085305 -0.00080865
C 25.18389063 21.07309365 15.94113114 -0.00118100 0.00250458 -0.00318798
C 28.36900616 17.95411005 16.94408434 -0.00184657 0.00397644 -0.00332845
C 25.18585729 20.97186805 20.66051932 0.00408108 0.00068489 0.00242286
C 27.91985843 18.10545899 21.86755955 -0.00650091 -0.00410603 0.00247327
C 25.59234123 26.83763851 1.58221763 0.00327644 0.00572152 0.00349247
C 28.31689914 23.54430877 3.15631645 -0.00148653 -0.00084966 0.00103437
C 25.54994857 26.76686163 6.39336072 0.00577508 -0.00565952 -0.00191576
C 28.36736331 23.80552074 7.92880280 -0.00161261 0.00802348 0.00426346
C 25.43789771 26.57847043 11.28527274 -0.00085620 0.00029403 -0.00317817
C 28.74273756 23.56796903 12.69126209 0.00245244 0.00276399 -0.01041673
C 25.19719066 26.90809710 15.85334900 0.00232633 0.00066008 -0.00080896
C 28.50368794 23.55847338 17.25622420 -0.00027317 -0.00375355 0.00317362
C 25.56087875 26.64869616 20.63846133 0.00494756 0.00156695 -0.00348962
C 28.60651680 23.61166348 22.03940382 0.00149422 -0.00049227 -0.00297972
N 0.33867734 4.43873515 0.88173041 -0.00269610 -0.00298171 0.00044853
N 3.46085868 5.35176794 3.79268157 0.00530089 0.00233345 -0.00067384
N 5.39403921 2.69300609 1.07618189 -0.00026946 -0.00440870 0.00054327
N 1.69416197 1.18943223 3.56838855 -0.00010696 0.00225403 -0.00450018
N 0.05172914 4.14205932 5.84577468 0.00030603 0.00288877 0.00422325
N 3.52854561 5.05758857 8.42103497 -0.00058686 -0.00070774 0.00086913
N 5.10361290 2.28715953 5.60637688 -0.00342028 -0.00128035 -0.00445757
N 1.69041932 1.03966029 8.37892098 0.00009219 0.00296483 0.00288992
N 30.80672768 4.31641050 10.28947988 0.00142136 0.00342504 -0.00225196
N 3.71576178 5.43483045 13.14719680 0.00201505 0.00368469 0.00345118
N 5.26613740 2.35640918 10.74600543 0.00030941 -0.00000217 -0.00426061
N 2.05314288 1.70538207 13.24646864 0.00415027 0.00233150 0.00389205
N 0.15354436 4.61326033 15.21868340 -0.00211043 -0.00250768 0.00162026
N 3.34241638 5.35645273 18.13633543 0.00305866 0.00402922 -0.00191149
N 5.23687372 2.42812558 15.34019710 -0.00790090 -0.00100954 0.00225447
N 1.95369137 1.54691947 17.86228543 -0.00210636 -0.00086399 -0.00133480
N 0.16461294 4.39575054 19.94038449 0.00012050 -0.00330036 0.00127918
N 3.31614123 5.17478277 23.06102317 -0.00058954 0.00256043 -0.00475294
N 5.14091366 2.30098062 20.05041957 -0.00087705 -0.00000694 0.00171979
N 1.78202179 1.46086568 22.55577040 0.00245650 0.00136513 -0.00341871
N 0.69026089 10.27511950 0.84832393 -0.00089085 0.00108177 0.00710752
N 3.87037747 11.35168186 3.65865118 0.00131129 -0.00134870 -0.00908165
N 5.54807684 8.29059566 1.17164550 0.00321933 -0.00680860 -0.00516764
N 2.41349443 7.42808912 3.68930282 -0.00244497 -0.00003463 -0.00014144
N 0.50243896 10.25052367 5.92329658 -0.00549556 -0.00251146 0.00480975
N 4.07159443 10.82564274 8.35904484 -0.00553452 0.00483578 0.00322799
N 5.50912794 7.76984984 5.85159200 -0.00077986 0.00018408 0.00068124
N 2.26897100 6.98428557 8.60168789 0.00594164 -0.00175114 0.00238433
N 0.81016102 10.21673100 10.71584080 -0.00011983 0.00625006 -0.00755046
N 3.91408324 11.08132040 13.39441247 -0.00472831 0.00407226 0.00056751
N 5.58307305 8.20549435 10.62587735 -0.00415209 0.00440271 -0.00581701
N 2.07632614 7.02337942 13.35622510 -0.00114701 -0.00637834 0.00460025
N 0.63546370 10.35654887 15.05080904 -0.00049052 -0.00592077 0.00113388
N 3.98223347 10.77309442 17.97083149 -0.00263756 0.00128083 0.00118252
N 5.69429458 8.10121623 15.20358862 -0.00265914 -0.00169654 -0.00062741
N 2.39499650 7.36576895 17.84383065 0.00232918 0.00121975 0.00279930
N 0.51360953 10.17565231 19.77922317 -0.00442254 0.00363922 -0.00127828
N 3.76669020 10.69250537 22.41063818 0.00259190 -0.00668757 0.00002220
N 5.70023330 8.24420978 19.85087877 0.00209970 0.00090518 -0.00364184
N 2.26299109 7.20129481 22.60421197 0.00250363 0.00365796 0.00103762
N 0.51511470 15.88276026 0.83497737 -0.00371666 0.00045771 0.00296752
N 4.27472284 16.71573320 3.51549963 -0.00494736 0.00320590 -0.00199525
N 5.97288913 13.80889172 1.12704221 -0.00188806 -0.01173254 -0.00965313
N 2.60896911 13.18887563 3.63081874 0.00074349 0.00228014 -0.00019562
N 1.11218206 15.86122419 5.76998910 0.00654770 -0.00020374 0.00070274
N 4.77116120 17.19311432 8.50474123 0.00199778 0.00015409 0.00486222
N 6.08381896 13.62072362 5.61796272 0.00225663 0.00193229 0.00234416
N 2.70350950 12.59083792 8.55287676 -0.00256764 -0.00611802 0.00889047
N 0.82103116 15.56424648 10.60261676 -0.00327056 0.00193071 -0.00412097
N 4.76951640 16.76583798 13.08648984 -0.00405369 0.00074364 -0.00132875
N 6.15562681 13.67675073 10.56387704 0.00269111 -0.00135886 0.00048143
N 2.81132257 13.02573742 13.27384294 -0.00062459 -0.00264243 -0.00540521
N 1.22815699 15.74002784 15.12531312 -0.00884852 -0.00142318 -0.00406402
N 4.65593509 16.78431164 17.80926441 0.00146455 0.00019386 -0.00081566
N 6.21028075 13.69136635 15.14953274 -0.00188786 -0.00436583 -0.00114757
N 3.08482260 12.85107736 17.87998268 -0.00192592 0.00268898 -0.00327889
N 1.16800075 15.92149513 19.68562924 0.00044042 -0.00770013 0.00935896
N 4.69008645 16.95340770 22.68844504 -0.00455135 0.00849804 -0.00239757
N 5.98852537 13.71311811 20.01859399 0.00153774 0.00301908 0.00312655
N 2.84880934 12.76318151 22.51787013 0.00267936 0.00419830 0.00203504
N 1.47881512 21.57491287 0.93116499 -0.00367195 0.00086256 0.00339219
N 3.93726452 23.65057463 3.52252642 -0.00270469 0.00092989 0.00593361
N 5.39747849 20.28143355 1.15469012 0.00418079 0.00015086 0.00449223
N 2.53430634 18.31968399 3.64154346 0.00083176 -0.00249562 0.00252915
N 1.14401909 21.64459240 5.80740443 0.00073681 -0.00075478 0.00304342
N 4.14813553 23.69674829 8.45679073 0.00766548 -0.00229074 -0.00639842
N 5.50374280 20.58613618 5.65002421 0.00054904 0.00025480 -0.00213614
N 2.75994998 18.37867653 8.49512810 0.00453468 0.00037755 -0.00224826
N 1.40431504 21.41273097 10.53034640 -0.00124353 0.00365370 0.00207576
N 3.93260045 23.45400456 13.23898703 0.00324953 -0.00054650 -0.00011459
N 5.61541561 20.43159796 10.35477143 -0.00306763 -0.00151080 -0.00620371
N 3.16804871 18.40243089 13.06665675 -0.00176171 -0.00602597 -0.00065240
N 1.70742566 21.47996573 14.99759979 -0.00408727 0.00512608 0.00256232
N 4.00575046 23.45986470 17.92099795 -0.00377779 -0.00919527 0.00379144
N 5.34348712 20.34836522 15.20913267 0.00301210 0.00058598 -0.00051229
N 2.87697547 18.20625922 17.99389994 -0.00121480 0.00340824 -0.00167237
N 1.25469644 21.34268715 20.00483835 -0.00069172 0.00230675 0.00154215
N 4.14161462 23.77842950 22.61599606 -0.00000314 -0.00575308 0.00277498
N 5.25173770 20.55320898 19.85654193 -0.00264137 0.00189317 0.00666281
N 2.96364868 18.45942563 22.60460428 0.00755847 0.00055920 0.00251582
N 0.83913591 27.95320408 0.94838355 0.00234126 -0.00915976 0.00287061
N 3.49584757 30.02590746 3.65701617 0.00212640 -0.00131314 -0.00266771
N 4.87014220 26.97086968 0.87827430 -0.00734648 -0.00056841 -0.00288164
N 1.95333549 24.75148860 3.77877535 -0.00230163 0.00483997 0.00456994
N 0.90302363 27.89756959 5.63124742 0.00139151 -0.00086665 -0.00438777
N 3.48095402 29.90346059 8.36218640 0.00621630 -0.00028232 -0.00120638
N 4.98379522 26.94750811 5.71946398 -0.00458824 0.00080989 0.00572148
N 2.41270122 25.15554808 8.40016402 0.00055047 0.00093797 0.00160870
N 0.84526971 28.25827546 10.49977991 -0.00062288 -0.00122806 -0.00275857
N 3.53629809 30.22620610 13.13618253 -0.00104834 0.00144722 0.00702894
N 5.02289361 26.76536229 10.46056667 -0.00092790 -0.00122408 -0.00064300
N 2.21971847 24.95274258 13.18841297 0.00557090 -0.00199981 0.00196718
N 0.90270337 28.30607073 15.03367436 -0.00970027 0.00282028 0.00420960
N 3.72414014 0.06642444 17.88760322 -0.00669876 -0.00110410 -0.00373291
N 4.80153925 26.93941416 15.27687445 -0.00294670 -0.00255963 0.00725576
N 1.95896774 24.68685770 17.78240995 0.00462338 -0.00077452 -0.00813035
N 0.76267482 28.08211933 19.79699551 0.00494985 -0.00354622 0.00077673
N 3.40935317 30.21032263 22.43145892 0.00427213 0.00336632 -0.00243852
N 4.75518408 27.17268038 19.81166486 -0.00373100 0.00197789 0.00090463
N 2.16372691 24.98402889 22.69524874 -0.00461430 -0.00200332 -0.00811121
N 6.90341660 4.51225893 0.94232033 0.00543460 0.00196622 0.00153448
N 10.10215211 4.98616956 3.76679747 -0.00399113 0.00094081 0.00082526
N 12.10511911 1.83737221 0.99553101 0.00007677 0.00137786 0.00453089
N 8.72731438 1.23415429 3.58369730 0.00211941 0.00100458 0.00433371
N 6.79437112 3.92010822 5.75081317 0.00264885 -0.00342582 0.00177087
N 10.05591438 4.74646762 8.63341903 -0.00368262 -0.00183208 -0.00403173
N 11.85634426 2.13107620 5.67986823 0.00340430 0.00409020 -0.00376490
N 8.27038567 0.91508070 8.54166255 -0.00031231 -0.00467127 -0.00498035
N 6.56489051 4.13563704 10.28145355 -0.00367477 -0.00366019 -0.00296165
N 10.10257522 5.11921258 13.31526218 -0.00189283 0.00571425 -0.00149184
N 11.53046059 1.70898602 10.51087109 -0.00276181 0.00325032 -0.00753484
N 8.22766892 1.17793168 13.14668716 0.00194074 0.00225713 -0.00332899
N 6.66567561 4.26371482 15.19835102 -0.00099491 -0.00128833 -0.00161162
N 10.05546190 4.70266101 17.77081498 -0.00077592 0.00291148 0.00229749
N 11.59641884 1.70999526 15.27432933 0.00299161 -0.00261131 0.00151547
N 8.24013047 1.12357372 17.88792405 -0.00086428 0.00205486 -0.00158405
N 6.57509771 4.16771811 20.02762656 -0.00116908 0.00464446 -0.00242026
N 10.23820255 4.79802866 22.70892087 0.00162823 0.00706738 -0.00401673
N 11.79971311 1.76690707 20.05540654 -0.00047581 -0.00131625 0.00087209
N 8.22494983 1.07339178 22.65771383 -0.00683207 0.00415831 -0.00049343
N 7.00511564 10.13030319 0.97324171 0.00048223 0.00198219 0.00863727
N 10.64560425 10.64505052 3.87271068 -0.00093466 0.00006281 -0.00126193
N 11.99490671 7.43861772 0.99612628 -0.00086185 -0.00088228 0.01010415
N 8.81454420 6.88844161 4.10747061 0.00707042 0.00123778 0.00445403
N 6.98337659 9.60788607 5.91320682 0.00234689 -0.00106531 0.00327527
N 10.52344155 10.62978180 8.57177437 0.00397862 0.00353899 -0.00484340
N 12.02671283 7.66622595 5.80224340 0.00306256 0.00432910 0.00202428
N 8.96317178 6.71755529 8.49815113 -0.00027592 -0.00587330 -0.00614607
N 7.28043617 9.78202309 10.49991819 -0.00581318 -0.00222376 -0.00328317
N 10.95293418 10.86491627 13.28831948 0.00763021 -0.00597413 0.00464699
N 12.20569576 7.58605180 10.51484054 -0.00016448 -0.00512321 -0.00777587
N 8.85960388 7.08526107 13.32925153 0.00341598 -0.00123260 -0.00056196
N 7.19642076 9.80453664 15.09013728 -0.00553190 -0.00571321 -0.00017636
N 10.94226741 10.81299548 18.06722993 0.00718443 -0.00212467 0.00172987
N 12.31966963 7.50493458 15.12909779 -0.00122975 0.00003077 -0.00675478
N 8.83724568 6.66977850 17.98901345 0.00254010 -0.00161667 -0.00148081
N 7.34302233 9.85480479 19.96488936 0.00307173 -0.00345205 -0.00180325
N 10.77207774 10.80752727 22.59935587 -0.00544885 -0.00051673 -0.00307120
N 12.03766547 7.69440879 19.98810992 -0.00087230 -0.01181181 0.00438410
N 9.16335242 6.88894487 22.63869992 -0.00362930 0.00143216 0.00247833
N 7.76495478 15.25884138 1.06476696 -0.00219297 0.01107514 0.00214424
N 10.14903963 17.41147668 3.55821597 -0.00297745 -0.00468696 -0.00386686
N 11.53196635 14.45596895 0.87523128 -0.00078349 -0.00229668 -0.00168594
N 8.74543302 11.85139616 3.64818621 -0.00273431 0.00133191 0.00517445
N 7.54598360 15.42304577 5.71183092 -0.00168066 0.00621225 0.00681440
N 10.26056428 17.35346212 8.54654411 -0.00356498 -0.00590634 -0.00144930
N 11.52177930 14.16863967 5.95388061 -0.00182023 0.00282389 0.00319765
N 9.27700876 12.56681257 8.44883184 -0.00183284 -0.00020717 -0.00633606
N 7.86103143 15.25700993 10.40762100 0.00764477 -0.00038222 0.00255864
N 10.29603964 17.79112126 13.20123099 0.00684795 0.00381629 0.00015215
N 11.57253324 14.30003413 10.56236930 0.00246999 -0.00562200 -0.00300617
N 9.33796176 12.53669528 13.18518672 0.00678181 -0.00536097 0.00022170
N 7.80116794 15.41564072 15.06333840 -0.00227087 0.00040757 -0.00399915
N 10.20792383 17.64441265 17.82487426 -0.00556609 -0.00468660 -0.00610730
N 11.75112141 14.61162058 15.43959553 0.00613082 0.00482492 0.00110469
N 9.13783467 12.24652929 17.74020711 0.00225041 -0.00255280 0.00401278
N 7.61841489 15.28564678 19.66181288 -0.00117421 -0.00457799 -0.00368736
N 10.37199565 17.72575528 22.65435229 -0.00056601 -0.00095420 -0.00095457
N 11.53478390 14.30193431 19.94452024 0.00292734 -0.00818887 0.00071528
N 9.00183737 12.22198926 22.64714068 0.00325840 -0.00227758 -0.00161683
N 6.92803302 22.11335828 1.03858085 -0.00150199 0.00189131 0.00457023
N 9.32434453 23.78866337 3.68084852 0.00364647 -0.00291301 0.00325066
N 10.77392164 21.17581367 1.29274950 -0.00748428 0.00735614 -0.00257175
N 8.31901417 18.70574699 3.92871396 0.00007992 0.00213470 -0.00115371