2000
Time=25000.00000000 pbc="T T T" Lattice="31.21149915 0.00000000 0.00000000 0.00000000 30.20742703 0.00000000 0.00000000 0.00000000 23.63774727" energy=-12043.29118681 virial="-80.53407104 -26.18864067 17.82778692 -26.18864067 -84.86879969 4.26322575 17.82778692 4.26322575 -69.54413621" stress="-0.00148057 -0.00114524 0.00084777 -0.00114524 -0.00177796 0.00019569 0.00084777 0.00019569 -0.00016822" Properties=species:S:1:pos:R:3:vel:R:3
C 30.47963260 3.79752781 1.70856234 0.00351666 -0.00589679 -0.00345091
C 2.34773677 0.67593647 2.85548271 -0.00346285 -0.00282841 -0.00094640
C 30.28726657 3.75699464 6.63222586 -0.00573402 -0.00053885 -0.00265735
C 2.62447709 0.90205653 7.57781699 0.00647853 -0.00210553 0.00233479
C 30.62387714 3.69226269 11.22866413 -0.00158768 -0.00440065 0.01006043
C 2.35731063 0.66522379 12.58746965 -0.00103144 0.00581934 -0.00550192
C 30.57857252 3.80343168 15.83346785 -0.00070923 0.00096724 0.00027977
C 2.51335622 0.49280581 17.22854458 -0.00117313 0.00284614 0.00040161
C 30.45691132 3.69617263 20.65826593 -0.00008088 0.00534873 0.00450727
C 2.69902570 0.51993508 21.95476883 0.00412080 0.00550683 -0.00191123
C 31.06934312 9.56958112 1.79404252 0.00048085 -0.00560352 -0.00239630
C 2.84741719 6.40943868 3.10591454 0.00318247 -0.00207917 -0.00183129
C 31.08282187 9.35030562 6.46025106 0.00255950 0.00718773 -0.00239198
C 3.04996686 6.29584732 7.89287376 -0.00102164 -0.01150301 0.00020473
C 31.13243797 9.54055466 11.19339959 -0.00512226 0.00201311 0.00376234
C 3.16796999 6.39286331 12.58995240 0.00376392 -0.00158160 -0.00417491
C 31.18172240 9.71482484 15.78074243 0.00424489 -0.00150356 0.00261637
C 2.94652965 6.50592122 17.33204443 0.00544232 -0.00121929 0.00130954
C 30.92327536 9.53708823 20.60994696 0.00243440 0.00343627 -0.00548295
C 2.87729652 6.24976446 22.00371431 0.00295164 -0.01269987 -0.00216787
C 0.25016787 15.07871299 1.74684195 0.00616864 0.00119399 0.00114526
C 3.37850580 11.89445319 3.16211365 -0.00298698 -0.00268388 0.00969344
C 0.30373772 14.72897779 6.33312294 0.00677038 -0.00269709 -0.00983246
C 3.44694539 11.99579949 7.83783445 -0.00053626 0.00110621 -0.00220727
C 0.27426139 15.00253265 11.06312667 -0.00341999 -0.00303492 -0.00452904
C 3.58652694 11.97811556 12.39748650 0.00005099 0.00064375 -0.00052341
C 0.26323915 14.81252143 15.87616790 -0.00181356 -0.00134502 0.00001498
C 3.72621796 11.84748350 17.15157866 -0.00164803 -0.00728786 0.00834640
C 0.29623888 14.78040690 20.72651241 0.00106521 -0.00284955 0.00011767
C 3.33810052 11.74714042 22.18946173 0.00561077 -0.00561790 0.00001080
C 0.85218584 20.40669882 1.74340314 0.00225904 0.00681323 0.00033669
C 3.93611674 17.64737631 3.00818941 0.00316493 -0.00284366 -0.00009862
C 0.56438211 20.47073042 6.28737547 -0.00390396 -0.00077199 -0.00269156
C 3.80346000 17.33133680 7.75461227 0.00451466 0.00006018 0.00174546
C 0.69200590 20.40193432 11.03782969 0.00017497 -0.00129352 0.00117080
C 3.82191630 17.60206732 12.33240497 0.00061753 0.00450659 -0.00478506
C 0.41500368 20.30776210 15.79597547 -0.00347652 -0.00740589 0.00092644
C 3.79353756 17.47623243 17.10819743 -0.00051722 0.00260461 -0.00274833
C 0.68694617 20.35861704 20.54672992 0.00132736 -0.00026915 0.00161107
C 3.78926594 17.38353845 21.78191678 -0.00092337 0.00282733 0.00611983
C 0.13442899 26.87851321 1.64342179 -0.00211535 0.00802538 0.00180765
C 3.27211759 23.97217399 2.87931017 -0.00603989 0.00740952 0.00170718
C 31.06657538 26.91534405 6.37961423 0.00126019 -0.00471064 0.00376676
C 3.07208625 23.72893361 7.73042344 0.00160850 -0.00287505 -0.00346922
C 31.15652459 26.81721482 11.04582475 -0.00045620 -0.01405828 -0.00646046
C 3.11230722 24.17666966 12.33661667 -0.00389383 0.00648664 -0.00661032
C 30.95509571 27.24109456 15.96675469 0.00189029 -0.00510432 -0.00436780
C 2.98589217 23.91586858 17.07912261 -0.00652706 -0.00160297 0.00284611
C 31.05411007 27.06858855 20.44197849 -0.00081298 0.00277076 0.00066628
C 3.20550180 24.00767320 21.81703826 0.00588822 0.00490580 0.01085790
C 5.88116405 3.41367369 1.81424323 -0.00012148 0.00355260 -0.00067156
C 9.12294942 0.11698799 3.04713850 0.00288444 0.00315313 -0.00022217
C 5.96834623 3.10379950 6.65421903 0.00181481 -0.00024681 0.00025567
C 9.25027341 0.27534003 7.66814238 -0.00071964 0.00094734 0.00641635
C 6.29675001 3.23668344 11.34817200 -0.00439419 0.00023356 0.00098144
C 9.03634242 30.15002152 12.49880750 0.00078768 -0.00565560 -0.00911850
C 5.89572568 3.36396639 16.06186925 -0.00009112 0.00124760 0.00577777
C 9.20851719 0.10840146 17.30119599 0.00061166 -0.00417218 0.00292228
C 6.13607544 3.26404966 20.72101143 -0.00498484 -0.00251744 -0.00195508
C 9.06076786 0.29790562 21.88659911 -0.00037196 0.00118246 -0.00429559
C 6.16174724 8.80457313 1.86805688 0.00775725 -0.00255959 0.00569706
C 9.61958270 5.77988557 3.16963654 0.00113142 -0.00437642 0.00082468
C 6.49849288 8.72279814 6.47681686 -0.00135711 0.00526226 0.00188694
C 9.57896981 5.67353591 7.86633312 0.00020747 -0.00255109 0.00390388
C 6.52047768 8.80359276 11.18224684 0.00140529 0.00560421 0.00017300
C 9.80264397 5.57220560 12.68480660 0.00180037 0.00284145 -0.00008206
C 6.78572327 8.55777219 15.87828623 0.00901869 0.00338798 0.00704617
C 9.65715574 5.55408529 17.26603657 -0.00444763 0.00128129 0.00029976
C 6.33008706 8.93828109 20.46726123 -0.00376845 0.00448988 -0.00486039
C 9.56946874 5.82182161 21.86443504 -0.00230868 0.00221296 0.00353829
C 6.74910012 14.43675909 1.79774856 -0.00147493 -0.00116631 -0.00518887
C 10.04673579 11.72088930 2.99205705 0.00709651 -0.00461358 0.00216903
C 6.93776254 14.47705611 6.44282047 0.00152717 0.00269317 0.00105074
C 9.89697573 11.23587425 7.71310761 0.00005764 0.00404964 0.00986477
C 7.12031234 14.41053708 11.29788278 0.00600237 0.00054379 0.00401156
C 10.12988531 11.48395661 12.39010500 -0.00522586 -0.00402760 0.00047493
C 7.02334673 14.24385224 15.89836995 0.00081386 -0.00423434 0.00455142
C 10.07700688 11.53851057 17.28693213 -0.00139782 0.00694552 0.00163092
C 7.05281911 14.51117222 20.60026147 -0.00042389 0.00244008 0.00559742
C 9.61918424 11.46695726 21.92713827 -0.00335970 -0.00077721 -0.00438914
C 6.46179015 21.07578622 1.61411009 0.00219119 0.00026354 0.00501042
C 9.24783581 17.99275444 3.03238496 0.00542145 -0.01296349 0.00010894
C 6.33007713 21.23848113 6.40153048 -0.00173175 -0.00345629 -0.00151294
C 8.89223856 18.07825438 7.70183092 -0.00322032 -0.00185563 0.00216727
C 6.35679611 21.23564049 11.19158849 -0.00014791 -0.00000175 -0.00097117
C 9.40065049 18.11814325 12.54373959 -0.00675284 -0.00324955 -0.00343724
C 6.33923491 21.25548129 15.85645164 -0.00213879 0.00426498 0.00034936
C 9.20633468 17.88149914 17.25832549 -0.00277678 0.00164458 0.00141353
C 6.29018393 21.02544724 20.70136677 0.00161273 0.00023760 -0.00039833
C 9.43206252 18.13556817 21.88549982 -0.00318826 0.00248220 -0.00723074
C 5.69788067 27.82338647 1.60217958 0.00074216 -0.00188861 -0.00614707
C 8.63065193 24.72398457 2.90367974 -0.00132380 0.00493323 0.00153098
C 5.42551344 27.64493321 6.39208034 -0.00196286 -0.00903505 -0.00310376
C 8.52897795 24.74800424 7.67009271 -0.00302261 -0.00543728 0.00089804
C 5.49878124 27.64395407 11.18818203 0.00491203 -0.00385824 -0.00360342
C 8.72429505 24.95510501 12.48784538 0.00281382 0.00102968 -0.00490054
C 5.47553064 27.63709365 15.79614862 -0.00621196 0.00067332 -0.00690294
C 8.72282327 24.86201929 17.21147392 -0.00311412 0.00239472 0.00282620
C 5.44623803 27.73749501 20.60057588 0.00497922 0.00271971 0.00167212
C 8.85713132 24.72255207 21.97728857 -0.00528063 0.00568956 -0.00259202
C 12.64905808 2.90773939 1.69105731 -0.00066928 -0.00700805 0.00603976
C 16.00399237 29.84713505 2.79170099 -0.00427890 -0.00023955 -0.00357497
C 12.75103584 2.73554482 6.53042661 0.00684678 0.00439778 -0.00087845
C 15.81683880 0.01919678 7.59597439 -0.00556730 0.00294941 -0.00055121
C 12.78576384 2.76361023 11.28544447 0.00128242 -0.00274722 -0.00178328
C 15.88939454 29.95174411 12.61456629 -0.00008083 0.00833690 -0.00126317
C 12.77651026 2.73875749 15.94282885 -0.00127681 0.00281637 -0.00096222
C 16.10943192 30.19299253 17.16824784 0.00226072 -0.00096500 -0.00188301
C 12.65358313 2.86002251 20.69644059 0.00250608 -0.00330008 0.00361811
C 15.65110825 30.03001894 21.85805323 0.00038094 0.00346866 -0.00247357
C 12.61537456 8.48251155 1.85742436 0.00836610 0.00030930 -0.00984467
C 16.17245581 5.45213047 3.01227114 -0.00522802 -0.00445183 0.00797414
C 13.11798803 8.45913237 6.41944926 -0.00285610 -0.00405842 -0.00175075
C 16.53321699 5.47548250 7.68869831 0.00448456 0.00523497 -0.00213604
C 13.22662508 8.30873422 11.06468547 0.00240854 0.01095234 0.00001333
C 16.07007586 5.31726978 12.49682421 -0.00163064 -0.00063517 -0.00492590
C 13.18564775 8.36336744 16.12239041 0.00731974 0.00305050 -0.01006767
C 16.18882376 5.68168411 17.36153203 0.00350704 0.00048375 0.00019774
C 13.02471401 8.32152945 20.80217417 0.00415655 0.00102061 -0.00144677
C 16.36287226 5.55751759 22.02501181 0.00227853 -0.00640866 -0.00000433
C 12.52034952 15.12815445 1.57779996 0.00383174 -0.00016530 -0.00292290
C 15.64606343 12.50333026 3.07124904 0.00211857 0.00024359 0.00014755
C 12.31402432 15.23479769 6.35266137 0.00384349 -0.00453316 -0.00929288
C 15.51092593 12.03277836 7.79298871 0.00194619 0.00808334 -0.00414361
C 12.46639663 14.94191058 11.06163954 0.00490841 -0.00423932 0.00338319
C 15.55025295 12.19181614 12.51880087 0.00279414 -0.00014318 -0.00014888
C 12.68995619 15.17788017 15.99546448 0.00518461 0.00445288 -0.01021149
C 15.33539598 11.93284070 17.31354415 -0.00124201 -0.00216414 -0.00301225
C 12.46509548 15.13319047 20.61462630 -0.00493753 0.00956501 -0.00608077
C 15.43356339 12.17491790 22.00098942 -0.00334161 0.00541377 0.00066751
C 11.77173501 21.68554290 1.65150503 -0.00471742 -0.00126466 0.00724236
C 14.91643407 18.68573755 2.90713783 0.00679841 0.00297515 -0.00000209
C 11.81792400 21.76088125 6.40637928 -0.00124626 0.00641417 -0.00053314
C 14.89527407 18.74223241 7.64790122 -0.00006587 0.00238948 -0.00208608
C 11.55829187 21.87497861 10.95086346 0.00136239 -0.00214617 -0.00229366
C 14.92213310 18.93932521 12.35172547 0.00158688 -0.00342851 0.00001006
C 11.79166029 21.59203824 15.88956013 -0.00365073 0.00572269 -0.00158854
C 14.83094848 18.55700364 17.30133179 0.00513126 0.00376016 0.00322486
C 11.78938783 22.07270489 20.52713614 0.00461711 -0.00158832 -0.00078574
C 14.94563736 18.79446776 21.88983060 0.00974848 -0.00223833 0.00037326
C 12.21809139 27.48719422 1.54998366 -0.00723176 0.00126591 -0.00444981
C 15.33009519 24.43846462 2.91488756 -0.00604538 -0.00106817 0.00275368
C 12.23075875 27.38467493 6.50695883 -0.00568495 0.00115984 -0.00266523
C 15.26396425 24.24246403 7.63990791 0.00068188 -0.00234405 -0.00171442
C 12.24625017 27.42652251 11.20006032 0.00004392 -0.00138831 0.00379254
C 15.34467062 24.45998749 12.46293064 0.00084072 0.00264559 0.00501393
C 12.19054929 27.52319963 15.86764475 0.00225564 -0.00350917 0.00139239
C 15.36673069 24.39075863 17.04796204 -0.00022624 0.00447037 -0.00053210
C 12.14233741 27.60770481 20.58780083 -0.00153039 -0.00291481 0.00222665
C 15.39131162 24.35416402 21.84984975 -0.00023017 0.00172514 -0.01293909
C 19.41968077 2.38133320 1.54042077 0.00050579 0.00691130 -0.00494750
C 22.51551839 29.63520180 2.92749175 -0.00302786 -0.00767989 0.00462674
C 19.32236064 2.47009671 6.45494561 0.00064566 -0.00310321 0.00044557
C 22.34991858 29.37183265 7.83621968 -0.00601754 0.00130966 -0.00126414
C 19.45442111 2.34295601 11.24437551 -0.00258806 0.00545870 -0.00075858
C 22.27178986 29.87052510 12.45218581 -0.00256464 0.00525203 0.00042902
C 19.43433701 2.37117664 15.88392627 -0.00272591 0.00740744 -0.00093985
C 22.29410353 29.71988113 17.07280491 -0.00754589 -0.00098293 -0.00458571
C 19.32641134 2.45801244 20.49504958 -0.00093437 -0.00184895 0.00665535
C 22.25574415 29.83387079 21.81271858 -0.00031700 0.00054946 -0.00275782
C 18.74151735 9.16159996 1.73857648 0.00659285 0.00242264 -0.00153779
C 21.96737217 6.05088383 3.03404625 -0.00214753 0.00035720 -0.00662758
C 18.80296228 9.30218551 6.41825307 0.00613658 0.00861015 -0.00532683
C 21.88166456 6.07438272 7.76049945 -0.00044872 -0.00665333 -0.00063485
C 18.82403889 9.05466914 11.22586449 -0.00268740 -0.00144118 0.00535314
C 21.79454435 5.98952339 12.55201505 -0.00094244 0.00165281 -0.00736757
C 18.80421392 9.03951050 15.98518803 0.00330942 -0.00380952 0.00919691
C 21.99751670 5.99266281 17.25555696 0.00263936 -0.00175752 -0.00334434
C 18.73491395 9.03787940 20.69922190 -0.00532077 -0.00169932 -0.00646687
C 22.11345025 6.32583524 22.07556924 0.00083218 -0.00026531 -0.00337516
C 17.99217930 16.08568295 1.65341517 0.00025830 -0.00354773 0.00109065
C 21.29115507 12.65864020 3.00476063 0.00493961 0.00404768 0.00121479
C 18.07499220 15.64711334 6.43443148 0.00275124 -0.00455709 0.00680899
C 21.30865514 12.76908087 7.82720314 -0.00168697 0.00131835 -0.00346610
C 18.25623017 15.54778108 11.37825775 -0.00460454 0.00022829 0.00403135
C 21.42143918 12.71774208 12.51997549 -0.00082230 -0.00211126 0.00175587
C 17.99290930 15.98227475 15.89688919 -0.00983705 0.00092011 -0.00059892
C 21.31638018 12.54628820 17.38628192 -0.00011284 -0.00054676 0.00481089
C 17.97957975 15.62317634 20.58325512 -0.00740871 -0.00130544 0.00579443
C 21.29946216 12.86916293 22.04138554 -0.00059048 -0.00032497 0.00844680
C 18.48158543 21.52591706 1.70919291 -0.00229360 0.00148567 0.00276298
C 21.55846491 18.23206382 2.88815796 0.00246301 0.00036105 -0.00922174
C 18.51462423 21.20478614 6.44284849 -0.00288702 0.00488393 -0.00081139
C 21.54642194 18.31998642 7.77448172 0.00141796 0.00208908 -0.00579184
C 18.29882329 21.27451860 11.21507136 0.00315495 -0.00117695 0.00184532
C 21.59149248 18.40362121 12.49021301 0.00220564 -0.00705389 -0.00750007
C 18.47673208 21.44936359 15.99747386 0.00339945 -0.00194426 0.00481675
C 21.49609066 18.27833669 17.22150995 -0.00545479 -0.00441984 -0.00333682
C 18.39000023 21.39167443 20.58937421 -0.00105319 0.00405421 -0.00304519
C 21.72413293 18.46972127 21.71864326 0.00195945 0.00605935 0.00831148
C 18.88342667 27.07666910 1.54132764 -0.00447309 0.00731090 -0.00121389
C 22.22332523 24.16575021 2.84897902 0.00242267 -0.00841046 0.00328605
C 18.95096355 26.84937616 6.49143429 -0.00633530 -0.00433200 -0.00226281
C 21.89604672 23.73660015 7.72763811 -0.00601965 0.00671058 -0.00722816
C 18.86776164 26.88769558 11.18951848 -0.00068498 0.00549970 -0.00107169
C 22.23086444 23.92053985 12.31239627 0.00077367 0.00099845 0.00765443
C 19.09565104 26.78451542 15.81576501 0.00296489 -0.00450125 -0.00138477
C 21.96769347 23.91679159 17.13679522 -0.00271065 0.00235484 0.00597011
C 18.88252068 27.00362648 20.44124331 0.00092715 -0.00101172 -0.00522698
C 21.89945769 23.97380279 21.97745631 0.00496110 0.00068997 -0.00251400
C 24.94525615 3.16873748 1.74305716 0.00774228 0.00400381 0.00790622
C 28.28789186 0.12555204 3.03640481 0.00087881 0.00354010 -0.00833625
C 25.02192364 2.86623159 6.33809758 0.00605270 0.00340773 -0.00381674
C 28.22536972 0.26969120 7.76895152 0.00026194 0.00210121 -0.00080570
C 24.76367895 2.84452420 10.96478392 -0.00735419 0.00084043 -0.00378819
C 28.13092776 30.18809470 12.46958530 0.00020717 -0.00163780 -0.00146899
C 24.96500964 3.12039076 15.77652788 -0.00152350 0.00159970 0.00291628
C 27.85201473 30.06988270 17.16891131 -0.00382629 -0.01391681 -0.00041018
C 25.14262604 3.00122072 20.58333482 0.00446560 0.00032644 -0.00651208
C 28.21708818 29.96417435 21.77323101 0.00333848 0.00233342 -0.00041267
C 24.32405150 9.82365566 1.88771772 -0.00045327 -0.00137996 -0.00274653
C 27.34695835 6.58007519 3.16562175 0.00823353 0.00735051 -0.00243694
C 24.62331616 10.06991815 6.39363491 0.00303958 -0.00038109 0.00853983
C 27.52913132 7.07243288 7.87319393 0.00606175 0.00091588 0.00964556
C 24.36474991 9.85069892 11.21424300 0.00388274 0.00255243 -0.00233416
C 27.71397307 6.86417877 12.59684207 -0.00264631 -0.00068688 -0.00194629
C 24.38372952 9.80462101 15.98815303 0.00352084 -0.00151707 -0.00164607
C 27.81592116 6.65855218 17.25227468 -0.00061827 0.00301102 0.00115052
C 24.50769613 9.68362029 20.81232352 0.00021870 -0.00373091 0.00433930
C 27.63328320 6.58727149 22.10308147 0.00049065 -0.00349975 -0.00898544
C 24.79657362 15.32651733 1.52814673 0.00428747 0.00538330 -0.00157857
C 28.11066346 12.06471532 3.04542493 -0.00353733 -0.00337047 0.00388434
C 24.59238967 15.38378099 6.37584910 -0.00192117 0.00307435 -0.00214758
C 27.80762993 12.37564149 7.88918451 -0.00360055 0.00647678 0.00577772
C 24.73759281 15.47452675 11.06148982 -0.00512493 0.00099576 -0.00334964
C 27.72077017 12.44465232 12.71740652 0.00294528 -0.00153942 -0.00451675
C 24.77256470 15.36092566 15.97299482 -0.00085474 0.00347664 -0.00012380
C 27.83867149 12.25138049 17.30347263 -0.00210695 -0.00439169 0.00300373
C 25.03008320 15.14028830 20.66915983 -0.00670851 -0.00037354 0.00463710
C 27.86719703 12.34826252 21.99031738 0.00314760 -0.00010494 -0.00203929
C 25.02177643 20.86362638 1.66904490 -0.00369754 0.00232540 0.00000147
C 28.41364221 17.73092592 3.16183502 -0.00108522 -0.00232200 -0.00453308
C 25.16743953 20.60239225 6.27122911 0.00857443 0.00319545 -0.00351741
C 28.51599864 17.91857854 7.65980028 0.00007535 0.00467553 0.00161876
C 25.11626302 20.86334728 11.05972070 0.00478197 0.00296420 0.00629291
C 28.04312262 17.86840155 12.61014854 0.00311114 0.00116161 -0.01123842
C 25.17589369 20.83173143 15.89184919 0.00242859 -0.00145422 0.00318333
C 28.44954816 18.10790105 17.20724374 -0.00237051 0.00136568 0.00546690
C 24.99868696 20.75794635 20.57440282 -0.00346188 -0.00295560 0.00013850
C 28.25190566 17.70069074 21.91222636 0.00602947 -0.00651805 0.00712748
C 25.70328865 26.62235348 1.58150071 -0.00285068 0.00238971 -0.00329857
C 28.55586087 23.57371109 2.97969548 -0.00702507 0.00341641 -0.00446941
C 25.70705190 26.51434481 6.46250165 -0.00428452 -0.00257733 0.00937207
C 28.58690258 23.40418127 7.64751356 -0.00019036 -0.00173895 0.00579404
C 25.66765973 26.72522884 11.19957612 -0.00006559 -0.00154934 0.00087043
C 28.81304980 23.52522066 12.34764092 0.00472495 -0.00117531 -0.00075614
C 25.41012420 26.58978833 15.80842454 -0.00808831 0.00213472 0.00173507
C 28.52946261 23.42935839 16.94663922 0.00145393 0.00160597 -0.00051447
C 25.71257770 26.62191487 20.48352991 -0.00926888 0.00513317 0.01003275
C 28.36993273 23.38225364 21.93769650 -0.00244567 0.00675661 0.00684381
N 0.26077445 4.46659377 0.91115577 -0.00364538 0.00179317 0.00983426
N 3.29703366 5.36969287 3.91649159 0.00054404 -0.00317896 0.00002024
N 5.08970924 2.48892143 1.14859214 -0.00191034 -0.00180659 0.00352459
N 1.67737940 1.59616529 3.59637333 0.00388307 0.00573998 0.00398626
N 31.07939612 4.55826811 5.87906880 0.00375375 0.00005263 -0.00150316
N 3.51730844 5.32982548 8.63620281 -0.00189434 -0.00653110 0.00079997
N 5.23059206 2.24484024 5.83572597 0.00018218 0.00414650 0.00143658
N 1.96769418 1.66776624 8.49774513 -0.00114816 0.00319441 0.00471789
N 0.14705956 4.59757102 10.55541139 -0.00117448 -0.00404729 0.00138230
N 3.76923358 5.35927168 13.27299822 0.00138910 -0.00051775 0.00784528
N 5.53365102 2.24493480 10.75252176 -0.00552407 0.00554807 0.00532651
N 1.54825256 1.39960638 13.42361127 -0.00377020 -0.00384169 -0.00327027
N 0.02305751 4.76981004 15.15883161 -0.00529039 0.00095830 0.00407677
N 3.50649415 5.43591830 17.99837681 0.00094705 0.00367128 -0.00344804
N 5.11944223 2.43914693 15.38989503 0.00156523 -0.00143548 0.00181589
N 1.80168274 1.44824247 17.84797075 -0.00270031 -0.00250216 0.00254336
N 31.10272866 4.58806458 19.79581203 0.00319697 0.00020240 -0.00357517
N 3.55089325 5.37606527 22.79860131 0.00167988 0.00045052 0.00424779
N 5.30104701 2.44499570 19.99829245 -0.00072665 -0.00502667 0.00248908
N 1.92724919 1.47721465 22.63337593 0.00073575 -0.00233330 0.00348693
N 0.75208951 10.31192024 1.04502194 -0.00182224 -0.00203300 -0.00433631
N 3.95301286 10.93873063 3.91303898 -0.00406306 0.00233230 -0.00218782
N 5.71174160 7.92841537 0.90351883 0.00163093 0.00464909 -0.00490847
N 2.13231770 7.32422283 3.78750445 0.00143243 -0.00052583 0.00051022
N 0.54648448 10.17219068 5.62383330 -0.00401689 -0.00017307 -0.00801161
N 4.20989686 10.97396862 8.39300801 0.00284112 -0.00157962 0.00012529
N 5.66963260 7.85691815 5.89370701 -0.00041703 0.00062539 0.00344451
N 2.42203295 7.35409872 8.58655881 -0.00067966 -0.00019325 -0.00395938
N 0.75721480 10.21561906 10.33369227 -0.00455355 -0.00248037 0.00393970
N 3.93800613 10.89053328 13.10057903 0.00652155 0.00237919 -0.00094453
N 5.75573484 7.84875068 10.55065620 -0.00104081 -0.00135833 -0.00292913
N 2.53875498 7.33996341 13.34523871 -0.00219896 0.00642375 0.00797635
N 0.70088190 10.50840519 14.94575578 -0.00120335 0.00301245 0.00341348
N 4.15156385 10.77156017 17.85032191 0.00629381 -0.00050819 0.00126576
N 6.03967785 7.79100512 15.06711169 -0.00480878 0.00098948 -0.00456107
N 2.21702714 7.42107055 18.04621993 0.00131414 -0.00086161 -0.00294854
N 0.54829854 10.37366647 19.97811860 -0.00022597 -0.00460891 -0.00036264
N 4.21302917 10.97184623 22.87791798 -0.00326858 -0.00032814 -0.00404164
N 5.60287812 7.95191876 19.81908996 0.00525934 -0.00056734 -0.00296195
N 2.13161774 7.17694160 22.63493109 0.00144938 0.00535992 -0.00104738
N 1.12053213 15.74617099 0.86596585 0.00169548 -0.00080027 0.00622969
N 4.57970660 16.73818084 3.78564909 0.00246040 0.00169070 0.00456327
N 5.92346011 13.63470907 1.09096219 -0.00143473 0.00127671 0.00024509
N 2.84560472 13.00034958 3.86059974 -0.00548627 0.00599779 0.00132154
N 1.13423010 15.65648410 5.70193634 0.00145975 -0.00440521 -0.00587409
N 4.61549417 16.67173796 8.60319587 0.00996800 0.00079218 0.00466439
N 6.13210033 13.63261370 5.71278279 0.00015996 -0.00381984 0.00478082
N 2.98047648 12.97229465 8.70509416 0.00185808 -0.00511918 -0.00949358
N 0.95432289 16.01235916 10.44607800 -0.00001967 -0.00490257 0.00002728
N 4.74782524 16.89859953 13.13179367 0.00388874 0.00482182 -0.00156376
N 6.39446025 13.45828894 10.59712045 0.00218781 0.00129959 0.00470311
N 2.81821300 12.88734653 13.09949128 -0.00094844 -0.00072439 0.00495340
N 1.13353743 15.72761986 15.37082233 -0.00326264 -0.00234824 0.00983003
N 4.58240481 16.68689775 17.87407710 0.00223569 -0.00388107 0.00064165
N 6.19902923 13.47174368 15.15094063 0.00604865 -0.00338552 -0.00570263
N 3.09727035 12.72805333 17.94731301 -0.00032763 -0.00325933 -0.00172222
N 1.26761151 15.40995819 20.00821562 0.00539413 0.00032212 -0.00473597
N 4.74509013 16.67080683 22.46267655 -0.00271213 -0.00240358 0.00689001
N 6.23793613 13.70699071 19.84544160 -0.00485893 0.00056877 0.00022611
N 2.81975322 12.90690112 22.75467093 -0.00004860 0.00049733 0.00541678
N 1.64639874 21.11628215 0.89561975 -0.00541296 -0.00415608 -0.00172015
N 4.20301555 23.32961923 3.68398058 0.00770539 0.00172765 0.00894208
N 5.54963215 20.26027562 1.03386127 0.00138991 -0.00271858 0.00645043
N 3.03188076 18.49156406 3.65869207 0.00117713 -0.00210964 0.00136271
N 1.31392950 21.31046323 5.53336888 0.00235829 0.00134824 0.00438964
N 3.93271867 23.22647165 8.64667089 0.00012925 -0.00167368 0.00264305
N 5.53659769 20.27565079 5.85648000 0.00809862 -0.00132810 -0.00616971
N 2.95806265 18.21702237 8.35867604 0.00796341 -0.00085656 0.00086422
N 1.52230455 21.11022267 10.24701170 -0.00211789 -0.00468549 -0.00456018
N 4.11028047 23.49683634 13.00267792 -0.00175539 -0.00308091 0.00730363
N 5.39566945 20.43329360 10.69693582 0.00464073 -0.00885868 0.00052661
N 2.82948406 18.21947553 13.00809094 -0.00142348 -0.00178720 0.00157396
N 1.35083212 21.10540661 15.18606799 -0.00039784 0.00313025 -0.00251123
N 3.95538280 23.41418445 17.90001320 0.00082019 -0.00017763 0.00357146
N 5.39474020 20.61756082 15.13551618 0.00432541 0.00258286 -0.00318150
N 2.82880339 18.18449397 17.79436618 -0.00237824 0.00004527 0.00402504
N 1.29256921 21.31839840 19.86212355 -0.00012739 0.00263219 0.00008665
N 4.28787777 23.55256787 22.49236849 0.00105881 0.00489822 -0.00178609
N 5.48364211 20.25482460 19.94563315 0.00001008 0.00204742 0.00457366
N 3.02570348 18.22463850 22.55567023 0.00021031 0.00303941 -0.00095236
N 0.99096193 27.53694297 0.76818489 0.00794078 -0.00009414 0.00068285
N 3.05262899 29.95523385 3.61400014 -0.00186919 0.00589927 -0.00401953
N 4.96109964 26.98074636 0.85327506 -0.00004450 0.00448961 0.00390916
N 2.31704651 24.78788607 3.48284524 0.00100437 -0.00503133 0.00290773
N 0.78660078 27.79017865 5.68784182 -0.00008740 -0.00169832 -0.00142432
N 3.52200651 30.20622490 8.09493815 -0.00341308 -0.00102024 -0.00313016
N 4.70434069 26.69231893 5.73512333 0.00199194 0.00435324 0.00409758
N 2.06081751 24.41187790 8.27791627 0.00005067 -0.00284450 -0.00278102
N 0.87502207 27.63324162 10.37058107 0.00041143 -0.00642074 -0.00583832
N 3.20010869 30.01786651 13.24884830 -0.00534895 0.00337060 0.00763947
N 4.67184436 26.74494638 10.50309250 -0.00211117 -0.00086762 -0.00446714
N 2.08468097 24.67510322 13.12418585 0.00004790 0.00052543 0.00387576
N 0.67489903 27.98394612 15.27637330 -0.00235638 0.00141933 -0.00149718
N 3.10680766 29.76087242 18.01798900 0.00010010 -0.00292788 -0.00177930
N 4.79472710 26.83716180 14.92235799 -0.00801569 -0.00114514 -0.00030924
N 1.96014071 24.59115008 17.71887159 -0.00106148 -0.00368428 0.00318396
N 0.72426733 27.82393709 19.69373130 -0.00674060 -0.00342797 0.00127021
N 3.36477945 29.81833777 22.69922964 -0.00038279 -0.00757023 0.00020998
N 4.95064999 26.67810625 19.88726886 -0.00182135 -0.00226144 -0.00210336
N 2.17806517 24.36799004 22.66727332 0.00093132 -0.00502128 -0.00342891
N 6.67689273 4.11930143 0.97999473 0.00141106 -0.00102113 -0.00152402
N 10.22378830 4.70059880 3.72005769 0.00054424 0.00134774 0.00534117
N 11.71941099 2.13576702 1.01519378 0.00515460 0.00097331 0.00233651
N 8.48867723 1.03527777 3.84066375 0.00573240 0.00326012 0.00113798
N 6.80822780 3.96778952 6.08991556 -0.00250918 0.00476218 0.00147566
N 10.31151640 4.80380413 8.57909674 -0.00061837 -0.00242844 -0.00597653
N 11.85470349 1.92342057 5.89184198 -0.00149504 -0.00449783 -0.00152323
N 8.53678582 1.12195440 8.48024894 0.00177121 0.00247647 -0.00152648
N 6.87816033 4.11920111 10.49681553 0.00204997 -0.00333886 0.00377147
N 10.20682436 4.57207314 13.47858919 0.00143717 -0.00670462 -0.00292045
N 11.95181906 1.94856081 10.58921792 -0.00050447 0.00053214 0.00294210
N 8.54851552 0.92674265 13.30255012 0.00095240 -0.00135440 0.00647414
N 6.74981294 4.05125649 15.28012625 -0.00129048 -0.00169112 0.00169164
N 10.13614291 4.45989305 17.99334489 0.00319368 -0.00408281 -0.01066356
N 11.99516570 1.94892954 15.18966806 0.00977705 -0.00696026 -0.00465936
N 8.47733409 1.12505671 17.88697089 0.00262659 0.00185649 -0.00692913
N 6.79017077 4.14781951 19.98008745 -0.00181928 -0.00264821 -0.00079261
N 10.24296433 4.81966901 22.52894359 -0.00235972 -0.00438649 0.00029035
N 12.10431271 1.98602240 19.86011775 -0.00046366 -0.00553005 -0.00144525
N 8.37024295 1.31998163 22.52492573 0.00434079 0.00352302 -0.00337806
N 7.11686234 9.61775786 1.36869166 0.00062007 0.00095951 -0.00448311
N 10.96279973 10.96513768 3.70844354 0.00153643 0.00353014 0.00540923
N 11.85515062 7.68458153 0.99727129 -0.00007780 0.00480585 0.00416807
N 8.90493609 6.59944326 4.01531160 0.00129169 0.00181861 -0.00332008
N 7.07480863 9.60895331 5.61885748 0.00003403 0.00304773 -0.00201112
N 10.77356796 10.63989184 8.53941125 -0.00000396 0.00699797 -0.00230474
N 12.36525576 7.49748367 5.79123383 -0.00225397 0.00139241 -0.00092630
N 8.90347795 6.59361710 8.60289965 0.00257698 0.00049422 -0.00737342
N 7.40953175 9.49612789 10.44637042 0.00311724 0.00383022 0.00056653
N 10.83398887 10.57283990 13.12819866 -0.00504309 0.00084044 0.00867895
N 12.65120328 7.31125604 10.40887690 -0.00402461 -0.00314460 -0.00200418
N 9.08588595 6.57642998 13.34393570 0.00291024 -0.00353377 -0.00513223
N 7.56513582 9.49286020 15.25309370 0.00805627 -0.00079223 -0.00002456
N 10.87591602 10.59275529 17.93189286 0.00222858 0.00238603 -0.00234249
N 12.46609961 7.41109110 15.41868675 -0.00358377 0.00140234 -0.00016568
N 8.85692339 6.39754321 17.95631521 0.00645455 -0.00173178 0.00278562
N 6.88679880 9.85213633 19.64059256 0.00547598 -0.00293448 0.00184341
N 10.62206227 10.77059450 22.61462225 -0.00358301 -0.00663485 -0.00273677
N 12.17702820 7.64792989 20.00746639 -0.00277955 -0.00236320 0.00235646
N 8.79997510 6.68731742 22.60776214 -0.00614744 0.00387462 -0.00523397
N 7.46409435 15.32666867 1.10650466 -0.00085456 0.00280470 0.00559797
N 10.28241739 17.38138918 3.70330188 0.00094627 -0.00088610 -0.00195566
N 11.54928335 14.41677467 0.92515487 -0.00027164 0.00190137 0.00547025
N 9.18180722 12.41712793 3.75105298 0.00471060 -0.00532240 -0.00381029
N 7.82013530 15.32439075 5.70338205 0.00758950 0.00193248 -0.00607087
N 10.02878043 17.59227200 8.25973332 0.00465243 0.00355453 0.00498718
N 11.42259460 14.55491401 5.54752760 -0.00274291 -0.00268833 0.00902719
N 9.10649720 12.20302650 8.26332140 -0.00201809 -0.00663527 -0.00002252
N 7.86459647 15.26033940 10.53063570 0.00655910 0.00380259 -0.00223271
N 10.35065173 17.51803304 13.29049640 0.00535488 -0.00334541 -0.00108209
N 11.64819737 14.22288019 10.32160879 -0.00019477 0.00334233 -0.00066941
N 9.48213596 12.39133212 13.21225604 -0.00203025 -0.00217325 -0.00403238
N 7.84092885 15.04294787 15.19555011 0.00465863 -0.00283134 0.00265654
N 10.28889959 17.40951165 18.00322248 -0.00526712 0.00497007 -0.00218309
N 11.81684931 14.37216392 15.30043668 0.00353795 0.00455266 0.00282417
N 9.55011314 12.52378381 18.06874790 -0.00189493 0.00106034 -0.00186001
N 7.69550565 15.41350861 19.86842324 -0.00266887 -0.00253304 -0.00430435
N 10.35936965 17.56116051 22.70908446 0.00193809 -0.00865126 -0.00164690
N 11.64149827 14.38131510 19.85179339 0.00094835 0.00135223 0.00650982
N 8.83627547 12.16864637 22.77475732 -0.00246929 0.00084555 -0.00763744
N 7.26872293 21.82966744 0.84352124 0.00154362 0.00054508 -0.00654075
N 9.53333302 23.94870432 3.50966150 0.00388213 0.00008720 -0.01094624
N 11.03198975 20.84613785 0.93096233 0.00394881 0.00056200 0.00223969
N 8.46312108 18.85144491 3.81517139 -0.00485787 0.00189948 0.00044940
N 7.05958898 21.99755178 5.53930339 0.00350655 0.00602032 0.00619200