2000
Time=76000.00000007 pbc="T T T" Lattice="30.96381483 0.00000000 0.00000000 0.00000000 30.37008396 0.00000000 0.00000000 0.00000000 23.67003330" energy=-12042.24391067 virial="-78.34889575 -22.92315211 -22.18451857 -22.92315211 -78.64647545 8.20065902 -22.18451857 8.20065902 -117.66767839" stress="-0.00150855 -0.00097555 -0.00099085 -0.00097555 -0.00120388 0.00037872 -0.00099085 0.00037872 -0.00259316" Properties=species:S:1:pos:R:3:vel:R:3
C 30.37404894 3.56213764 1.77180340 0.00102335 0.00132312 0.00081437
C 2.75729535 0.72322608 3.09506604 -0.00231245 0.00214203 -0.00052089
C 30.20871648 3.64981245 6.32236539 -0.00044033 0.00706693 0.00074985
C 2.11487541 0.51911663 7.68540859 -0.00191565 -0.00200710 -0.00063418
C 30.43532607 3.79254166 11.28762796 -0.00288156 0.00352500 -0.00010742
C 2.42557589 0.70206433 12.36200477 0.00190197 0.00333953 0.00644883
C 30.44955697 3.61351604 16.04921472 -0.00295088 0.00172921 -0.00719523
C 2.08969906 0.53661328 17.21367712 0.00511435 0.00204609 0.00043793
C 30.35481369 3.76939995 20.92355238 0.00043414 -0.00734002 0.00470869
C 2.28663263 0.36838269 21.97687115 -0.00497261 0.00583192 -0.00294184
C 30.77630826 9.24053236 1.95616383 -0.00236318 -0.00318178 -0.00282676
C 3.01392643 6.33704538 2.90023414 -0.00094413 0.00421723 -0.00305472
C 30.65090556 9.32666227 6.56833885 -0.00027169 -0.00633322 0.00678191
C 2.94480260 6.24739840 7.76676986 -0.00744065 -0.00114601 -0.00222732
C 30.50521644 9.70200164 11.37130686 -0.00315454 -0.00137389 0.00409719
C 2.80581634 6.34228667 12.59739728 -0.00333877 0.00624380 -0.00813205
C 30.68738820 9.30561827 16.08668141 -0.00280486 0.00170828 -0.00032652
C 2.87194681 6.33509443 17.31901022 0.00177267 -0.00213677 -0.00475298
C 30.71669290 9.36463932 20.76803120 0.00389382 0.00527601 0.00490708
C 2.96204240 6.20459431 21.94158676 -0.00003775 -0.00295819 -0.00136764
C 0.27992724 14.72792328 1.91630542 -0.00119798 0.00284557 -0.00380869
C 3.48137934 11.68986851 3.21348438 -0.00105734 -0.00137258 0.00211698
C 0.24341420 14.95424040 6.58265790 -0.00232915 -0.00436089 -0.00589021
C 3.27076527 11.84089755 7.95559043 -0.00448191 -0.00165084 -0.00330494
C 0.07826555 14.86310776 11.24241055 0.00309754 0.00577195 0.00309526
C 3.25659202 12.03555882 12.65846906 0.00137925 0.00350135 0.00167072
C 30.91803228 14.96589739 16.11664217 -0.00446508 0.00760618 -0.00567768
C 3.22805574 12.25874741 17.27971566 -0.00226009 -0.00094708 -0.00732304
C 0.47047408 14.87100722 20.80379552 0.00324735 0.00307635 -0.00458062
C 3.31339460 11.93071545 22.04679987 -0.00256387 -0.00047911 0.00003465
C 0.73338321 20.67138137 1.69104399 0.00655942 -0.00382482 0.00751876
C 3.77360730 17.42393183 3.09002314 0.00218189 -0.00158114 0.00179742
C 0.65413579 20.19428805 6.36808357 -0.00487883 0.00328460 -0.00522019
C 3.66375891 17.62334419 7.90931416 -0.00155996 0.00830604 0.00687003
C 0.51675430 20.64994759 11.15489112 0.00016974 0.00725357 0.00033010
C 3.47095270 17.59823787 12.61083303 -0.00372395 -0.00508555 0.00128644
C 0.76015361 20.61801191 15.97380032 0.00373141 -0.00098213 -0.00098340
C 3.67309584 17.42983973 17.32985205 0.00309708 0.00349373 0.00385555
C 0.73611759 20.56966045 20.60205926 0.00511829 0.00081880 0.00041975
C 3.91073532 17.68895025 21.98818781 -0.00218263 0.00357231 0.00026863
C 0.00669498 27.12206374 1.68597825 0.00113297 -0.00290885 -0.00158141
C 3.17269758 24.53862556 2.94887424 0.00447645 -0.00970726 0.00364347
C 30.42210669 27.42070115 6.38479066 -0.01136626 0.00105821 0.00187795
C 2.92338810 24.25331704 7.76109528 -0.00104788 -0.00365202 -0.00135720
C 0.14366344 27.55492487 11.09985047 -0.00715867 0.00681434 0.00306062
C 3.23872843 24.26896508 12.43822736 -0.00289503 -0.00412521 -0.00097699
C 0.06868199 27.16764875 15.96488001 -0.00393432 0.00466972 0.00441195
C 2.97655151 24.25633860 17.39080107 -0.00089988 -0.00071197 -0.00154740
C 0.08140769 27.19934391 20.62242868 0.00167546 -0.00098226 0.00119133
C 3.12039374 24.14903240 21.95917489 0.00030833 0.00076096 0.00039454
C 6.17171828 2.98658391 1.85330246 0.00422987 -0.00330011 -0.00372103
C 8.91111859 30.33660671 2.81391729 0.00245855 0.00131384 -0.00612214
C 5.97275563 3.39955854 6.45747611 0.00303214 -0.00371603 0.00626725
C 9.15954767 30.35942201 7.75759954 -0.00086023 -0.00244778 -0.00174664
C 6.03871779 3.42371296 11.34084134 0.00167636 0.00246451 0.00369562
C 8.87009076 0.18031725 12.35018043 0.00183063 0.00282102 0.00307361
C 5.93543127 3.32782612 15.92445060 0.00172806 -0.00438395 -0.00315827
C 8.99672610 0.34756449 16.99243372 0.00112937 -0.00254990 0.00383013
C 5.95330043 3.37743008 20.72076406 0.00355404 -0.00076078 -0.00236329
C 8.95479118 0.32933426 21.65267141 -0.00317704 -0.00571434 -0.01013053
C 6.37935045 8.67966873 1.58057037 0.00217133 -0.00539511 -0.00087733
C 9.44146004 5.86970569 2.95750196 -0.00277262 0.00096554 -0.00012851
C 6.41760994 8.62485277 6.49577945 -0.00650501 -0.00635263 0.00306107
C 9.61621023 5.83841238 7.56859898 -0.00119487 -0.00141768 0.00200218
C 6.66829296 9.03641427 11.20258515 -0.00000111 0.01076829 -0.00132040
C 9.32433389 5.82855481 12.61959597 0.00026569 0.00422864 -0.00145779
C 6.48309564 8.96519010 15.82465932 0.00415691 -0.00224720 0.00373356
C 9.24995996 6.00474253 17.25447445 -0.00242709 0.01069137 -0.00636035
C 6.20277983 8.97373219 20.49938328 -0.00029313 0.00010102 0.00549233
C 9.31281886 5.74509531 21.92517266 -0.00194335 -0.00460653 -0.00004019
C 7.03124792 14.24302510 1.83766354 -0.00118866 0.00195678 -0.00196450
C 10.01355897 11.62217751 3.11847964 -0.00056845 0.00089331 0.00874374
C 6.93292699 14.59682150 6.46734433 -0.00360019 0.00411709 -0.00298137
C 10.06842872 11.41745617 7.74777788 -0.00000025 -0.00315458 0.00050940
C 6.80871465 14.51481901 11.18212881 0.00090417 0.00017436 0.00689651
C 9.90442198 11.48594804 12.46458324 0.00090287 -0.00331948 -0.00277053
C 7.06462284 14.66731163 16.05071138 -0.00521140 -0.00037943 -0.00014600
C 10.04887208 11.78581892 17.33403445 0.00623434 -0.00080822 -0.00412621
C 6.87409025 14.49686660 20.80917384 0.00693003 0.00278101 -0.00601474
C 9.81858379 11.30726420 22.06432027 0.00038931 -0.01011257 -0.00161802
C 6.30955852 21.27692794 1.80251655 0.00177028 0.00150191 -0.00293424
C 9.56411422 18.30648504 2.90801549 -0.00514707 -0.00202678 0.00159052
C 6.31939792 21.67432209 6.44834427 -0.00296875 0.00740287 0.00014601
C 9.46638739 18.25520888 7.81421013 0.00423291 -0.00111588 -0.01018393
C 6.19221127 21.25172709 11.17514082 0.00613261 -0.00103860 -0.00213649
C 9.17558214 18.46270794 12.25884333 -0.00092614 0.00329720 -0.00029832
C 6.30891152 21.19057830 15.97360078 -0.00697678 0.00003417 0.00179896
C 9.49241177 18.54873028 17.26754892 0.00114902 0.00096812 -0.00472417
C 6.27843657 21.29203137 20.71319074 -0.00178379 -0.00371841 0.00067930
C 9.20218849 18.36035162 21.94332506 0.00380068 0.00981074 0.00265173
C 5.75673158 27.64196572 1.81823947 0.00146152 -0.00281798 0.00173170
C 8.88614480 24.89031057 3.10890954 0.00055421 0.00020111 0.00665922
C 5.44324229 28.20925395 6.37298489 -0.00147440 0.00355998 -0.00012323
C 8.69983047 24.89881808 7.72287644 -0.00439190 0.00103577 -0.00395294
C 5.32911050 27.89649327 10.98537779 0.00283712 0.00397672 0.00226956
C 8.88449671 25.13180862 12.29571815 0.00265256 -0.00130507 0.00023270
C 5.46735020 27.68709749 15.75136778 0.00244698 0.00503186 -0.00060051
C 8.61508949 24.82653661 17.09000051 0.00227091 -0.00566078 0.00382645
C 5.46505996 27.99927392 20.51623018 0.00086589 -0.00280001 0.00289317
C 8.68123715 24.86035279 21.97279098 0.00057561 -0.00384779 -0.00126877
C 12.52421752 2.77371226 1.77869453 -0.00888322 0.00176713 -0.00548035
C 15.60360512 30.19585989 2.88425616 -0.00111408 0.00061497 -0.00060983
C 12.71317187 2.82433689 6.54142338 -0.00343353 0.00810340 0.00602390
C 15.58480880 30.21044216 7.68883785 -0.00498600 0.00190768 -0.00130104
C 12.67019495 2.56898816 11.31139772 -0.00182879 -0.00559791 -0.00135945
C 15.61211328 30.16903157 12.49551772 0.00064735 0.00680272 -0.01069520
C 12.38831219 2.81551833 16.06276300 -0.00012569 -0.00684556 0.00664360
C 15.52832292 30.20036798 17.14368992 0.00325804 0.00239163 -0.00558408
C 12.23146534 2.78092166 20.81093953 -0.00475352 -0.00134631 0.00644153
C 15.62396893 30.01127325 21.79821802 0.00239538 0.00080176 0.00232188
C 13.26079593 8.39304121 1.66109536 -0.00450713 0.00572737 0.00672930
C 16.20846679 5.51056666 3.05360366 0.00314456 -0.00372051 -0.00055834
C 12.85165290 8.49490479 6.31140824 -0.00314933 -0.00338254 -0.00194869
C 16.10857967 5.62168483 7.78021219 -0.00104846 -0.00160593 0.00542970
C 13.05168204 8.04329375 11.17204112 0.00219493 0.00162686 0.00491836
C 16.06375298 5.23425090 12.48182083 0.00607514 -0.00416545 0.00286218
C 13.02102690 8.57531740 15.84711745 -0.00165582 0.00366169 0.00774753
C 16.00732394 5.46132051 17.24601865 0.00229484 -0.00607697 -0.00431823
C 12.99446425 8.39132681 20.66845603 -0.00233366 0.00438633 -0.00557338
C 16.14164201 5.56213792 21.98617737 0.00000548 0.00202483 -0.00195251
C 12.45549153 15.41469011 1.63402033 -0.00617789 0.00542775 -0.00060160
C 15.71283996 12.15739092 3.03245418 -0.00403890 -0.00188517 -0.00351659
C 12.62817659 15.36927306 6.30002310 0.00593256 0.00426941 0.00492569
C 15.55728482 12.22937633 7.74019361 0.00713725 -0.00053257 -0.00429533
C 12.55088780 14.92808300 11.15527189 -0.00626202 0.00276536 -0.00532582
C 15.45158870 12.15269260 12.48719106 0.00284879 -0.00177559 0.00609028
C 12.27458797 15.43623185 15.87167271 0.00580999 -0.00149718 0.00150903
C 15.45108702 12.25810144 17.31512959 -0.00168946 -0.00290845 0.00991050
C 12.44294830 15.34075887 20.68696489 -0.00103586 0.00600004 -0.00464332
C 15.61206356 12.14665609 21.85294049 -0.00272410 0.00452849 -0.00124542
C 11.80558253 21.96490238 1.47451240 0.00079291 0.00352173 -0.00000879
C 15.06699026 18.95262983 2.85373836 0.00259968 -0.00007743 0.00341404
C 11.80327009 21.99886510 6.51514560 -0.00459728 -0.00042328 0.00063330
C 14.86007364 18.79541416 7.55497782 -0.00213207 -0.00026286 0.00792319
C 11.72533737 21.90280457 11.03983235 0.00080879 0.00113767 0.00790003
C 14.94401732 18.99061302 12.44252036 0.00964397 -0.00086370 -0.00056364
C 11.74096011 22.19609037 15.81665353 -0.00158801 -0.00727501 0.00059390
C 14.86442302 18.90502095 17.04753353 0.00354380 0.00000108 -0.01362737
C 11.93292735 22.16469844 20.45618119 -0.00186758 0.00252540 -0.00081068
C 14.87432109 18.80868829 21.93210016 -0.00582385 -0.00843312 -0.00349543
C 12.29272278 27.56997860 1.50908750 -0.00224449 -0.00094583 -0.00398287
C 15.23200729 24.42031942 3.00288075 0.00180944 -0.00302727 0.00323092
C 12.19820009 27.90125507 6.38944390 0.00370371 0.00001074 -0.00659019
C 15.51552463 24.44662376 7.74338743 -0.00049262 0.00061699 0.00221249
C 12.40248821 27.46012357 11.10082963 -0.00233533 -0.00158099 -0.00289664
C 15.42927154 24.52944730 12.50274030 -0.00573017 -0.01016423 0.00207452
C 12.02579744 27.71284443 15.78918686 -0.00073669 0.00586486 -0.00324372
C 15.10657958 24.49029026 17.08869930 0.00643840 -0.00419740 -0.00435606
C 12.12327040 27.44465082 20.51014416 -0.00463847 0.00190604 0.00316521
C 15.55371475 24.39157701 21.78865321 0.00332393 0.00157236 -0.00350025
C 19.06156096 2.25163052 1.64510723 0.00047601 -0.00302095 0.00343660
C 22.18202051 29.81757022 2.73875624 -0.00865378 0.00270922 0.00149066
C 19.37502704 2.46211383 6.34854278 0.00287938 -0.00619939 0.00647552
C 22.36362512 29.72090890 7.49019245 0.00143080 -0.00277904 0.00025028
C 19.37755381 2.41322028 11.07526635 -0.00374861 0.00023677 -0.00147871
C 22.39901008 29.80250311 12.25076920 0.00182840 -0.00095774 0.00058682
C 19.00167733 2.35328052 15.96466503 -0.00257189 0.00476368 0.00356715
C 22.22058879 29.59138721 16.92291364 0.00773187 0.00557884 0.00325230
C 18.93085984 2.09431862 20.61548510 0.00117130 0.00080181 0.00094094
C 22.31727578 29.89827417 21.73953926 0.00606411 -0.00616921 -0.00296285
C 18.73239360 8.98096800 1.77046173 -0.00563164 0.00785051 0.00320214
C 21.60733853 6.22737545 3.06722727 0.00399337 0.00324821 0.00763558
C 18.49539446 9.49950475 6.69239153 0.00172712 -0.00912269 -0.00035220
C 21.73555795 6.07803618 7.68960405 0.00248935 0.00207002 -0.00292153
C 18.82973407 9.11436549 11.37575234 0.00161943 0.00218354 0.00012307
C 21.74853293 6.21630832 12.63122349 0.00492819 0.00602882 0.01298413
C 18.48671915 8.86431999 15.96746561 0.00260953 0.00121163 0.00274275
C 21.67495218 6.02409189 17.19836568 -0.00212147 -0.00841802 -0.00746408
C 18.49899186 9.01997960 20.70337247 0.00205055 -0.00191073 0.00284502
C 21.58179440 5.97733919 22.14589237 -0.00775188 0.00192324 -0.00336531
C 17.89058725 15.61263858 1.65377110 -0.00139785 -0.00166821 0.00266260
C 21.18370918 12.70945754 2.98961748 -0.00391659 -0.00347929 0.00189077
C 17.94765685 15.80117776 6.42813814 0.00570277 0.00091445 0.01123154
C 20.83655723 12.87663739 7.69978859 0.00422068 0.00395010 0.00091100
C 17.93458395 15.72720056 11.21554279 -0.00037706 -0.00077782 -0.00168902
C 20.94578043 12.77535016 12.42378913 0.00074921 0.00684444 0.00046528
C 17.69930539 15.61203870 15.91214866 0.00466061 -0.00073575 0.00841357
C 21.14707720 12.70556158 17.11826881 -0.00220959 -0.00062091 -0.00367089
C 17.85449060 16.00711044 20.81124093 -0.00606653 0.00420053 0.00536120
C 21.06321176 12.61839309 21.90289006 0.00969974 -0.00460610 -0.00321152
C 18.67548016 21.78094617 1.78274091 -0.00273374 -0.00056901 -0.00212200
C 21.39671729 18.14024156 3.00735319 0.00023981 0.00902021 0.00190651
C 18.40315318 21.53074444 6.41953223 -0.00097772 0.00137861 0.00599155
C 21.26703041 18.46631145 7.90462165 -0.00262008 -0.00340515 0.00300129
C 18.53023781 21.70377483 11.08570848 0.00028681 -0.00348584 -0.00178143
C 21.35065864 18.40281671 12.57614024 0.00215659 -0.00021758 -0.00088064
C 18.58525187 21.85597072 15.80042450 -0.00569466 -0.00075849 0.00256427
C 21.13825684 18.27876345 17.26141026 0.00599507 0.00134412 -0.00710568
C 18.37215018 21.77210129 20.71405932 -0.00255765 0.00011410 0.00677836
C 21.62539790 18.39834901 21.78090356 0.00340917 0.00120684 -0.00058156
C 18.76628408 27.12760302 1.66912588 0.00306076 0.00169531 -0.00307916
C 21.80782386 24.32874770 3.24870729 -0.00151881 0.00302860 0.00191083
C 18.98395199 27.05428884 6.22735851 -0.00464092 0.01044816 -0.00209951
C 21.82981385 24.14744148 7.84019999 -0.00558604 0.01536837 -0.00222362
C 18.73934084 27.17885939 11.05774658 -0.00252138 -0.00220937 0.00169145
C 21.94390135 24.19339006 12.57171110 0.00771575 0.00462032 0.00340929
C 19.05045031 27.12808531 15.71342450 -0.00312072 -0.00333150 0.00113920
C 22.41419728 24.17793537 17.22986975 0.00006486 -0.00002074 -0.00657987
C 18.58811735 26.95921680 20.60780282 -0.00097164 0.01186602 0.00414726
C 22.23691350 24.20782921 22.12522890 -0.00776120 -0.00260971 0.00057481
C 24.80772500 3.20699129 1.83737343 -0.00018895 0.00297058 -0.00301767
C 27.94094877 30.29004796 3.15115857 0.00148525 0.00416885 0.00104530
C 24.83318618 3.02659052 6.76181798 0.00007447 0.00079592 -0.00035103
C 27.65671897 30.36339500 7.88073681 0.00128888 -0.00452163 -0.00458162
C 24.88641313 3.13833380 11.47931926 -0.00613635 0.00757234 -0.00579449
C 27.86926622 0.17104813 12.53044808 -0.00580498 -0.00090704 -0.00500386
C 24.88373460 2.76446657 16.10133723 -0.00095706 -0.00203424 -0.00175952
C 28.14278270 0.19819963 17.38816866 0.00051138 0.00150942 -0.00136319
C 24.68302723 2.85570474 20.78326342 0.00327638 0.00284091 -0.00110409
C 27.74126712 30.33069256 22.05974502 -0.00208753 -0.00236221 0.00285557
C 24.14937226 9.70977063 1.60838123 0.00140681 -0.00315163 0.00128433
C 27.08836875 6.74943958 3.12975274 0.00300698 0.00279114 -0.00523035
C 24.05601829 9.71329986 6.42388306 -0.00140750 0.00541266 0.00631976
C 27.32111094 6.74387745 7.78365961 -0.01130677 -0.00251998 -0.00513793
C 23.99542317 9.89830023 11.13801778 -0.00198238 0.00586900 0.00087668
C 27.06042718 6.73453595 12.30790433 -0.00075317 0.00201160 0.00173615
C 24.17539433 9.91155215 15.93432710 -0.00474088 0.00052606 0.00253758
C 27.12764031 6.56588557 17.20608781 0.00324854 -0.00266918 0.00518623
C 24.04528314 9.51917420 20.58975506 -0.00101571 -0.00712789 -0.00052455
C 27.38419863 6.66076648 22.05477723 0.00012840 0.00563369 0.00146792
C 24.72684599 15.38445432 1.71927757 -0.00669826 -0.00214429 -0.00330598
C 27.63327857 12.22739833 3.16541052 -0.00545484 -0.00598273 0.00352176
C 24.54384117 15.63355452 6.46581802 -0.00119365 -0.00095455 0.00365384
C 27.77492795 12.53437344 7.83237680 0.00093795 0.00225748 0.00249740
C 24.49335439 15.45670990 11.25662287 0.00154872 -0.00497132 -0.00183203
C 27.38433419 12.48294343 12.57535927 -0.00009180 -0.00403415 0.00341271
C 24.32273211 15.57068035 15.97723990 0.00501824 0.00009104 0.00343345
C 27.45975457 12.50366279 17.34160697 0.00851967 -0.00280221 0.00569376
C 24.46723739 15.56532928 20.64915206 0.00432223 -0.00135935 0.00110335
C 27.53084292 12.05449619 22.00809239 0.00017849 -0.00126733 0.00721832
C 24.65211257 20.93818618 1.69412501 0.00332257 0.00213581 0.00262942
C 28.10047696 17.73559186 2.94303467 -0.00034425 -0.00613559 0.00050966
C 24.99395871 21.02150147 6.26071357 -0.00147686 -0.00377426 -0.00442983
C 27.97419781 17.99311173 7.73637669 0.00402399 0.00212689 -0.00094238
C 24.86693856 20.98353155 11.19096554 -0.00706342 -0.00922828 0.00189117
C 27.86551360 17.99379087 12.40280695 0.00082101 0.00453032 -0.00649461
C 24.68412192 21.15705349 15.89134564 0.00392397 -0.00439485 -0.00447345
C 28.24451280 18.05253670 17.13833154 0.00283818 0.00773774 0.00196554
C 25.10118269 20.73310560 20.47560659 0.00159072 0.00507149 -0.00159735
C 28.29110107 17.72019630 21.96919680 0.00397423 -0.00038302 -0.00476891
C 25.59003943 26.75918081 1.67519043 0.00658455 0.00336848 -0.00638075
C 28.13186543 23.55905891 3.08394023 -0.00357372 0.00103026 -0.00931076
C 25.50916585 26.81503634 6.48262265 0.00538297 0.00545774 0.00035181
C 28.49325579 23.63197171 7.68509704 0.00253335 0.00219576 -0.00815912
C 25.55518686 26.76972996 11.16533302 0.00355388 -0.00584595 -0.00140078
C 28.39950071 23.78184382 12.46101847 -0.00132475 0.01212864 0.00619678
C 25.54539002 26.89557276 15.89448777 0.00622246 -0.00365736 0.00465194
C 28.45899221 23.53728354 17.28797595 0.00220561 -0.00307268 0.00386786
C 25.50577322 26.53541508 20.52654147 -0.00468296 -0.00339614 -0.00335483
C 28.43559792 23.33903422 22.01295981 -0.00086231 0.00083531 0.00133945
N 0.18419104 4.44446060 1.08574510 -0.00402369 -0.00239266 -0.00130048
N 3.63457661 5.38443616 3.62887049 -0.00123989 -0.00624060 0.00450778
N 5.35546580 2.11479510 1.21898804 -0.00142899 0.00318111 -0.00142938
N 1.87496688 1.61532625 3.60877634 -0.00266623 0.00179394 -0.00581560
N 0.08368835 4.42709580 5.62345083 0.00211356 0.00208594 0.00194055
N 3.56881710 5.28404626 8.52253127 0.00528800 0.00158533 0.00165535
N 5.10835624 2.55806902 5.79081865 -0.00265816 0.00185844 0.00468918
N 1.18289794 1.23663739 8.39790908 0.00935313 -0.00036644 0.00009151
N 0.08801711 4.83531468 10.60135403 0.00905774 -0.00025837 -0.00873229
N 3.56055238 5.35573031 13.34258586 0.00272571 0.00100075 0.00212236
N 5.13831523 2.61465158 10.69789967 0.00563237 -0.00045111 0.00200484
N 1.75215930 1.59920199 13.18346777 0.00122519 -0.00029592 0.00396682
N 0.29594813 4.46962330 15.32129162 0.00725492 -0.00779184 -0.00284292
N 3.31978433 5.32381020 18.08030666 -0.00470170 -0.00188888 -0.00363705
N 5.26966292 2.42126451 15.20606100 0.00207278 0.00192414 0.00586818
N 1.45661676 1.30087076 18.22973741 -0.00168270 0.00033955 0.00339670
N 0.23935885 4.57845174 20.16427105 -0.00112428 -0.00015196 0.00360922
N 3.78511780 5.32730769 22.60429743 0.00265395 0.00548730 0.00000161
N 5.08396181 2.67710535 19.93652608 -0.00091718 0.00392382 -0.00014001
N 1.80201957 1.48228595 22.63261548 0.00142774 0.00315912 -0.00860905
N 0.36917465 10.29950494 1.28162354 -0.00419809 -0.00457821 0.00195653
N 4.04969442 10.68857237 3.92708944 -0.00176991 0.00025938 0.00405196
N 5.63466230 7.89767303 0.72854012 0.00463843 0.00391595 -0.00890934
N 2.31662711 7.21401073 3.66136849 -0.00030239 -0.00139483 0.00565984
N 0.38630227 10.16205020 5.79229737 -0.00745852 -0.00453660 -0.00552182
N 3.52414381 10.67391676 8.73797426 -0.00111329 0.00412493 0.00450575
N 5.47974462 7.90843245 5.81031976 -0.00436609 -0.00522940 0.00310044
N 2.28259582 7.17506503 8.48202609 0.00430087 -0.00270951 -0.00340087
N 0.52237444 10.21589034 10.58083420 0.00312227 0.00308025 0.00221499
N 4.06875105 11.13640332 13.23654091 0.00371547 -0.00536991 -0.00417884
N 5.88206666 8.19723932 10.45525122 0.00647359 -0.00287245 0.00076100
N 2.29615664 7.31850890 13.30515023 0.00014915 0.00027359 0.00427427
N 0.30478414 10.24694542 15.32762717 0.00263129 0.00180390 0.00413326
N 3.83133838 11.15426874 17.75328662 -0.00357791 -0.00397697 -0.00228205
N 5.62171614 8.18167273 15.15819542 -0.00062402 0.00415629 0.00370756
N 2.18350749 7.34188255 18.02719419 -0.00432423 0.00537533 -0.00536992
N 0.53878364 10.27544441 20.08111939 0.00540592 -0.00415793 0.00264647
N 3.89393376 11.01079021 22.83454570 0.00136940 0.00439291 -0.00768685
N 5.44218370 8.15553063 19.72092472 0.00330234 -0.00318120 0.00058134
N 2.22423601 7.10181155 22.66478248 -0.00540924 0.00244286 -0.00068198
N 1.07103435 15.59696095 1.26434597 0.00454202 -0.00478090 0.00302484
N 4.56095235 16.47177744 3.65399474 -0.00860360 -0.00067738 0.00904536
N 6.42813601 13.31027873 1.04028480 -0.00683699 -0.00056917 0.00232390
N 2.73356507 12.59084942 3.96736844 -0.00355604 0.00157475 -0.00273634
N 0.96975134 15.70592059 5.79750935 -0.00074341 0.01486741 -0.01476071
N 4.52115411 16.86205698 8.63478050 0.00212310 -0.00229245 -0.00625971
N 6.16941580 13.58023539 6.05797083 0.00226760 -0.00110579 0.00080558
N 2.98042573 12.94283420 8.70813995 0.00204271 -0.00169701 -0.00171971
N 0.79809919 15.73747510 10.49973408 0.00384758 0.00031900 -0.00404519
N 4.37988486 17.03461669 13.40749913 -0.00038959 -0.00414221 -0.00519421
N 6.12078977 13.60678823 10.44384856 -0.00067203 0.00675914 0.00152109
N 2.62893291 12.95548256 13.40129533 0.00706322 0.00100495 -0.00206832
N 0.74734613 15.88474621 15.40608223 -0.00043384 0.00086169 -0.00418004
N 4.55764960 16.68626398 18.04114430 -0.00385102 -0.00443084 -0.00159275
N 6.42957465 13.69962228 15.36249954 0.00224712 0.00114537 -0.00569195
N 2.65557852 13.04292146 18.21980533 0.00231319 -0.00065501 0.00319300
N 1.35714970 15.68492092 20.04252696 -0.00104718 0.00062587 0.01286071
N 4.61894995 16.63715678 22.50214422 -0.00182077 0.00053305 0.00438752
N 6.10516890 13.69086528 20.01282303 0.00060331 0.00193131 0.00271614
N 2.96461909 13.04906642 22.77544945 0.00559799 0.00134898 -0.00206625
N 1.51372356 21.57869353 1.06793229 0.00270099 0.00263835 -0.00143633
N 3.85573780 23.77268108 3.75287091 0.00358467 0.00616448 0.00138477
N 5.72782429 20.19529765 1.11029223 -0.00414111 0.00195528 -0.00519233
N 3.12261451 18.20332225 3.92786187 -0.00092477 -0.00396648 0.00281583
N 1.45082549 21.15955924 5.89987614 0.00574541 0.00705880 -0.00368617
N 3.95524153 23.78132558 8.48417721 0.00172460 0.00290195 -0.00369079
N 5.47347954 20.69861686 5.95487644 0.00485264 -0.00541327 0.00444658
N 2.77127690 18.33378045 8.61578997 -0.00011796 -0.00068197 0.00311434
N 1.39658924 21.31676875 10.44667456 -0.00018830 0.00534778 0.00083050
N 4.38760547 23.83619903 13.10247212 0.00458900 0.00055744 -0.00225790
N 5.64476695 20.25456542 10.41532483 -0.00595562 -0.00243753 0.00309932
N 2.60261252 18.46901887 13.18911432 -0.00173955 0.00716111 -0.00114552
N 1.50409824 21.51237110 15.33201798 -0.00203016 0.00415429 0.00213820
N 4.15223752 23.82694190 18.02859733 -0.00241047 0.00810831 0.00103198
N 5.39787308 20.46524979 15.36104693 -0.00028699 -0.00399191 0.00219565
N 2.92349789 18.23300394 18.11937589 0.00339110 -0.00061135 -0.00348634
N 1.60595709 21.39333368 19.91354256 0.00268432 -0.00038117 0.00399188
N 4.04022110 23.52144492 22.74031280 -0.00176302 -0.00453535 0.00111537
N 5.58261122 20.43296184 19.89103642 -0.00419488 -0.00040564 -0.00088315
N 3.11560394 18.27400124 22.85421247 -0.00472163 0.00210722 0.00425591
N 0.94417694 27.80806664 1.01782613 0.00821651 -0.00148307 0.00046582
N 3.26887367 30.19315018 3.93304367 0.00416844 -0.00156171 0.00102342
N 4.83721179 26.97276832 1.08735437 -0.00053842 0.00399499 0.00047628
N 2.19858527 25.34583149 3.58074534 -0.00279317 0.00013175 0.00186079
N 0.28051216 28.31048274 5.74744478 0.00205226 0.00222348 0.00817587
N 2.99618078 30.15492139 8.40887094 -0.00099321 0.00435563 -0.00437192
N 4.74227855 27.34357371 5.62340066 0.00320237 -0.00307088 0.00006239
N 1.87950650 24.71185568 8.55460092 0.00100493 0.00447713 -0.00315069
N 1.05232612 28.23330262 10.35644434 0.00787334 -0.00249631 -0.00130504
N 3.23878045 30.10578192 13.00227024 -0.00218017 0.00314970 0.00084295
N 4.40852783 27.22103245 10.23375775 0.00475926 -0.00072932 0.00172132
N 2.25643202 24.73917755 13.12545030 0.00737913 0.00227672 0.00589121
N 0.71072410 27.98457166 15.13569025 -0.00503587 -0.00376757 0.00285911
N 2.94114191 30.00166636 17.75290918 -0.00208699 0.00028856 0.00365796
N 4.62477223 26.89906770 14.96760476 -0.00372853 -0.00429277 0.00150255
N 2.05581715 24.82470190 18.18065373 0.00247415 0.00398775 -0.00009230
N 0.83068190 27.96583446 19.86839598 0.00754355 -0.00004327 0.00078957
N 2.93706532 29.86555358 22.81280231 -0.00397825 -0.00277395 0.00372622
N 4.58797460 27.15353349 19.98656960 0.00652500 0.00262235 0.00083238
N 2.06243824 24.71207474 22.67616317 -0.00714835 0.00044599 -0.00265382
N 6.85846236 3.94366208 1.16197799 -0.00449051 -0.00038043 -0.00142364
N 10.34003586 5.05616337 3.68345863 -0.00455958 -0.00075610 -0.00036763
N 11.57088848 2.11483302 1.07673353 -0.00224092 -0.00547356 -0.00530311
N 8.17841062 0.89283928 3.54220739 -0.00288805 0.00260804 0.00306423
N 6.86255699 4.04455177 5.59153489 0.00027728 0.00445625 -0.00035198
N 10.33070484 4.93910773 8.27066342 0.00133397 -0.00022977 -0.00311094
N 12.04424384 1.87787183 5.85292618 0.00396494 -0.00276235 0.00126887
N 8.70624476 1.11194804 8.41669597 -0.00305885 -0.00043795 -0.00227358
N 6.77058607 4.20671202 10.52844153 0.00490059 0.00397594 -0.01107565
N 9.98988653 4.78718840 13.31787835 0.00517716 -0.00608087 0.00043382
N 11.78231911 1.79543809 10.60333951 0.00243835 0.00575687 0.00335115
N 8.28445312 1.16611890 13.03654916 0.00824464 -0.00559306 -0.00361512
N 6.80953779 4.13995279 15.17819139 0.00438101 -0.00340733 0.00210591
N 9.80648300 4.99770171 17.99487083 -0.00748803 -0.00670442 -0.00201903
N 11.76160466 1.97732976 15.23942456 -0.00457009 -0.00261756 -0.00552807
N 8.25767202 1.04987485 17.86991339 -0.00363814 -0.00849613 -0.00880487
N 6.69171602 4.31359323 20.01099860 -0.00156425 -0.00344171 -0.00157790
N 10.03360878 4.74318439 22.53932365 -0.00344171 0.00270681 0.00180125
N 11.59781339 1.97988306 19.89423872 0.00309905 -0.00178693 0.00556199
N 8.50365327 1.16786693 22.61602496 0.00220292 -0.00310988 -0.00456312
N 7.33812809 9.48855873 1.02264736 -0.00165720 -0.00765127 0.00315923
N 11.15631780 11.01724446 3.63782393 0.00179334 -0.00454373 0.00420375
N 12.43760493 7.56139578 0.95646882 0.00003841 -0.00901713 0.00662605
N 8.77368647 6.85279631 3.59584638 -0.00181966 0.00308386 0.00446182
N 7.24132489 9.45712926 5.74622659 0.00152289 -0.00261462 0.00138555
N 10.82036017 10.68257400 8.56255358 -0.00003450 -0.00454396 -0.00619007
N 12.25580215 7.69390291 5.42969729 0.00114137 -0.00287566 0.00798770
N 9.02853244 6.88027501 8.19378811 0.00002585 0.00204549 0.00169021
N 7.38916485 9.91881720 10.46856301 0.00250337 0.00019490 0.00221932
N 10.64404423 10.49118866 12.99806767 -0.00096584 -0.00250344 0.00127346
N 12.14466216 7.47846769 10.30423570 -0.00276759 -0.00920844 -0.00781081
N 8.76361098 6.78709536 13.35650868 0.00345836 -0.00590043 0.00398665
N 7.17524686 9.83335756 15.06908018 -0.00560847 0.00918563 0.00684444
N 10.64365651 10.75378584 18.07084307 0.00117571 -0.00215558 -0.00204010
N 12.41123036 7.55620731 15.23111012 -0.00483291 0.00007420 0.00023014
N 8.52656871 6.90107708 17.91128315 -0.00121189 0.00528810 -0.00086351
N 7.00719864 9.81531654 19.87339253 -0.00274589 -0.00200659 -0.00114887
N 10.57942106 10.36490125 22.70981119 -0.00118257 0.00032730 0.00070037
N 12.03030253 7.69400780 19.96315256 0.00491457 -0.00110754 -0.00396239
N 8.82074402 6.73459042 22.67155849 -0.00203750 -0.00932833 0.00744165
N 7.73358550 15.22682724 1.15303820 -0.00319474 0.00089281 -0.00493331
N 10.53810430 17.92679673 3.77478142 -0.00144002 -0.00115682 -0.00095348
N 11.52795690 14.68475162 1.02137253 0.00020445 -0.00499543 -0.00427447
N 9.19959495 12.26056588 3.96177503 0.00644015 -0.00402160 -0.00175406
N 7.56888952 15.34532403 5.55987501 -0.00541918 0.00070703 -0.00266304
N 10.39980406 17.72773017 8.63279217 0.00630085 0.00082537 -0.00465998
N 11.59963163 14.82604027 5.68393858 0.00125321 0.00327837 -0.00175168
N 9.34877157 12.41041688 8.33791764 -0.00202684 -0.00326175 0.00157170
N 7.54195356 15.44549693 10.44969394 -0.00159626 -0.00007224 -0.00062870
N 10.26150123 18.00414747 12.91349213 -0.00562170 0.00238853 -0.00173152
N 11.54640101 14.17056132 10.61098750 0.00078036 0.00081374 0.00275188
N 9.24585464 12.27437790 13.36597994 -0.00353661 0.00433567 -0.00382288
N 7.77391342 15.49919391 15.23016189 -0.00036226 -0.00544721 -0.00238282
N 10.58672802 18.04156495 17.99803355 0.00125989 -0.00467638 -0.00144857
N 11.61494999 14.56838508 15.09865497 -0.00121701 -0.00208560 -0.00073139
N 9.34178901 12.65264375 18.06240714 -0.00889685 0.00312282 -0.00182155
N 7.61014637 15.45636472 20.10697216 0.00243981 0.00433130 -0.00098994
N 10.32609234 17.96170191 22.57677932 -0.00215672 -0.00021819 0.00200065
N 11.61325933 14.63428572 19.88508573 -0.00257427 -0.00143998 0.00212956
N 9.06443446 12.09783882 22.87169101 -0.00505623 -0.00416145 0.00247655
N 7.11782901 22.11875442 1.11472394 0.00208175 -0.00083327 -0.00413163
N 9.74610146 23.98223040 3.63376897 0.00054226 -0.00004042 0.00398258
N 10.95937923 21.11870433 0.76062170 -0.00461114 0.00603105 0.00247884
N 8.47134244 18.72273678 3.56477138 -0.00426887 -0.00348929 -0.00184249
N 7.08571077 22.26256649 5.47426490 -0.00627705 0.00156239 0.00189420