1920
Time=40000.00000002 pbc="T T T" Lattice="24.32462090 0.00000000 0.00000000 0.00000000 30.29531346 0.00000000 0.00000000 0.00000000 28.74508316" energy=-12188.91646647 virial="-76.57194809 8.61458419 -23.61784190 8.61458419 -96.34532907 -18.73701390 -23.61784190 -18.73701390 6.64744727" stress="-0.00006450 0.00052440 -0.00108106 0.00052440 -0.00116975 -0.00087123 -0.00108106 -0.00087123 0.00374654" Properties=species:S:1:pos:R:3:vel:R:3
O 4.05912159 30.01990476 15.25900612 -0.00218287 0.00047449 -0.00024729
O 5.41255748 27.64530951 9.48343091 0.00253334 -0.00903125 -0.00012058
O 1.34841073 22.63616013 26.48013210 -0.00499561 0.00648807 -0.00264015
O 4.35263240 3.72971169 9.08515437 0.00204382 -0.00097423 0.00363263
O 20.97828448 12.72857621 1.40415639 -0.00056359 -0.00577509 0.00387120
O 22.70838510 15.47806772 25.73822228 -0.01119838 -0.00742336 -0.00832405
O 9.53477504 20.47763307 19.74755232 -0.00136512 -0.00060946 0.00181523
O 2.55326069 0.66506870 3.82059309 -0.00515915 0.00618207 0.00121767
O 8.98193007 29.49367470 15.64058230 -0.00060589 -0.00356936 0.00015959
O 0.22474505 0.86687719 8.94307834 0.00305384 -0.00114375 0.00150816
O 22.88397549 17.61715822 0.69882634 0.00271249 0.00913176 -0.00249973
O 11.71258062 4.39478583 22.90783330 -0.00565003 -0.00375505 0.00045490
O 16.87819001 17.46166407 2.22516191 -0.00672379 0.00270038 0.00205630
O 3.40886797 18.94446663 23.74742395 0.00182053 -0.00384589 0.00654824
O 11.33112569 19.84083567 13.85610349 -0.00143485 -0.01745544 -0.00688842
O 9.10141294 6.74603335 14.46502816 0.00060180 -0.00804205 0.00207378
O 9.96125615 4.77272969 13.13418370 0.00304720 -0.00130071 -0.00273023
O 8.33608154 8.66685808 0.67793100 -0.00196943 0.00205408 -0.00431791
O 5.28402190 8.18889281 26.13949169 -0.00599107 0.00126767 0.00603128
O 10.80938206 10.15900459 20.25959899 -0.00101480 -0.00448995 0.00018905
O 21.82203223 13.19101432 6.28751425 -0.00552268 0.00208203 -0.00174684
O 7.16294982 13.22299314 11.70349593 -0.00862555 -0.00159224 -0.00224452
O 14.31809375 23.84719052 24.95153246 0.00033582 -0.00133612 0.00233319
O 9.05187951 11.11325051 18.56542906 0.00088020 -0.00183142 -0.00069555
O 6.66738328 3.87515947 11.66716473 -0.00510796 -0.00138913 -0.00477837
O 2.78437762 11.91020075 0.26661366 0.00213494 -0.00959056 0.00083993
O 23.66977429 12.93151198 25.92407563 0.00245127 0.00013218 0.00299885
O 1.17594001 7.32843819 12.67084736 0.00466065 0.00304088 -0.00711637
O 22.98488630 9.00128788 6.18132045 -0.00166173 -0.01042058 0.01085884
O 11.74496271 14.39827740 15.96523827 0.00019605 0.00337609 0.00239347
O 8.11300320 24.40383479 22.76402152 0.00432904 -0.00077565 -0.00200338
O 22.70520481 25.55117012 7.14432865 0.00028578 -0.00103622 0.01311797
O 14.21452237 24.41373887 3.06948378 -0.00002957 -0.00266059 0.00283144
O 4.62548277 24.32111712 7.79741158 0.00181701 0.00327891 -0.00004214
O 12.26691855 22.97945771 9.68742784 -0.00086749 0.00284750 -0.00454634
O 4.24446587 19.30726560 18.98463162 0.00025959 -0.00181394 -0.00204154
O 0.47945539 27.33841079 18.12910386 0.00723503 0.00143712 -0.00395594
O 17.34223493 26.15420167 28.64768582 0.00180036 -0.00082262 0.00461779
O 5.31294418 27.41146953 1.37024191 -0.00470406 -0.00603149 0.00045384
O 5.73408230 0.27473010 24.83483594 0.00297044 -0.00395532 -0.00806985
O 24.07547219 23.87896316 21.73602922 0.00210033 -0.00152200 0.00188664
O 2.17955744 28.13043591 12.11827080 -0.00289624 0.00022078 0.00323103
O 6.99748021 25.81636098 7.30413101 -0.00235187 0.00395773 -0.00909932
O 3.52372114 22.67377917 27.82011827 -0.00187349 0.00614928 0.00673933
O 10.54827616 9.03292267 25.25593487 0.00091393 0.00534608 -0.00140149
O 17.85282957 22.93746398 5.38144216 -0.00053496 0.00538400 0.00791983
O 10.85082188 24.48312434 26.39644252 -0.00523875 0.00641640 0.00181968
O 23.45269782 28.97620800 21.69159894 0.00044545 -0.00582388 -0.01016346
O 19.27216616 19.96383723 22.62463206 0.01137504 0.01190643 0.00895571
O 22.63053874 23.46565799 0.71916009 -0.00098911 0.00445015 0.00276782
O 19.83253502 0.76632514 21.59724157 -0.00960762 0.00707369 0.00525567
O 2.83122496 28.93133305 27.50249378 -0.00166615 -0.00004394 0.00083995
O 4.47193922 4.31482582 26.02276454 -0.00007847 0.00337327 -0.00299615
O 1.61973616 25.15413993 22.57058811 -0.00408056 0.00723961 0.00054184
O 24.09521070 17.90943646 15.04447816 0.00449186 0.00554545 -0.00061407
O 0.08092380 26.75412817 27.85342732 -0.00458501 -0.00407069 -0.00021001
O 14.78875887 23.33963705 9.10239082 0.00459433 0.00161870 -0.00086409
O 3.77913895 25.49349376 2.37016565 0.00131447 0.00052159 -0.01142315
O 15.39221659 27.96952822 16.29266292 -0.00124705 -0.00560942 0.00229401
O 21.65356636 15.97033162 20.74965893 0.00726657 0.00369631 0.00018714
O 3.03761811 2.68636623 16.83778932 0.00152238 -0.00783533 -0.00301140
O 4.55836499 30.28086833 20.70146104 0.00791550 -0.00226495 -0.00548977
O 5.53763940 15.28247591 14.71601149 -0.00290251 -0.00193511 0.00638646
O 0.81787701 3.47967200 27.15885782 0.00604145 -0.00123387 0.00176390
O 3.80594386 14.18148623 0.15421193 -0.00044166 -0.00573270 0.00734368
O 4.12533436 1.03042380 5.86375926 -0.00060281 -0.00035758 -0.00764423
O 15.52861433 8.07963360 23.28585314 0.00461962 0.00902167 -0.00210608
O 11.85686430 11.05679637 11.05829636 0.00485813 -0.00540905 0.00105817
O 10.96180830 8.53295502 1.18580976 -0.00031245 0.00475339 0.00242473
O 14.64811127 11.89425833 5.10072480 0.00792423 -0.00504186 -0.00979507
O 15.37647387 6.17703861 11.53606911 0.00605821 0.00016454 -0.00151185
O 20.74894947 13.53233305 11.53309298 -0.00275280 -0.00371870 -0.00549834
O 19.91375493 4.64931054 19.32348677 -0.00497993 -0.00280280 -0.00687189
O 8.22995683 7.46970171 5.14369950 -0.00594885 -0.00126171 0.00299896
O 19.01508067 11.30833561 27.50543897 0.00238620 -0.00217398 -0.00441252
O 0.97946701 9.38492783 4.02378782 -0.00291100 0.00370115 -0.00582915
O 6.67126305 17.60194406 0.75736965 -0.00381535 -0.00053300 0.00460659
O 20.73761999 10.54192723 6.89086475 0.00294848 -0.00225654 -0.00301295
O 13.54481865 2.14208530 6.94964366 -0.00607697 -0.00179847 0.00364530
O 21.00145962 3.90979887 4.49518183 0.00103725 -0.00429470 0.00050223
O 23.58578671 1.06618698 22.72520412 0.00769434 0.00345168 0.00359651
O 3.99683069 11.28639292 22.78780215 -0.00654785 -0.00961442 -0.00014353
O 10.20581321 15.79291604 17.54503666 -0.00381471 -0.00101754 -0.00054828
O 0.17807502 5.78385494 27.69881141 0.00075077 0.00342957 0.00334563
O 6.02932832 19.51510636 23.47628198 0.00024463 -0.00957326 0.00011890
O 17.72254958 0.86599206 14.44471212 0.00133130 -0.00267066 0.00904166
O 10.93581180 25.88677434 20.39522210 -0.00028282 0.00411709 0.00111109
O 16.01023025 5.45022089 0.76805427 0.00215432 0.00345711 0.00514383
O 4.19330927 13.73351185 22.84116421 -0.00179691 0.00008467 -0.00342755
O 5.76885561 5.33285418 21.01155824 -0.01150508 0.00396603 -0.00766562
O 8.49275961 11.83800369 22.33306108 -0.00482338 0.00214345 0.00361815
O 16.57665875 11.54646866 16.95366430 0.00307313 -0.00152839 0.00176335
O 13.61814877 13.56380744 24.57741152 -0.00038581 -0.00236908 0.00295366
O 14.32719610 6.21669747 13.87769363 -0.00268808 0.00376757 0.00308169
O 12.23986707 2.67117380 17.61008436 -0.00389713 0.00491320 -0.00371919
O 15.82013673 14.62266744 7.60912194 -0.00565488 -0.00118344 -0.00141748
O 2.53401317 13.08740594 4.54578651 -0.00221185 0.00404264 -0.00910440
O 10.03221486 11.46038268 7.87014222 -0.00183347 -0.00672008 -0.00264236
O 12.19873226 8.05156900 3.48081145 0.00514756 -0.00426572 -0.00342271
O 5.56493511 15.43723979 12.18744948 0.00410284 0.00362276 0.00307267
O 11.19795330 1.82511884 8.29960059 0.00122915 -0.00495786 0.00222416
O 14.43081347 26.03975448 13.43174770 -0.00229367 0.00275763 -0.00127625
O 9.32139961 18.27855841 12.98955147 -0.00041758 0.00314180 0.00634429
O 12.08737016 17.45134035 7.24964499 0.00747058 -0.00962940 -0.00197696
O 16.90224065 21.11428136 17.54940481 -0.00783261 -0.00450682 -0.00031202
O 3.05478277 9.94503365 10.65402317 0.00543183 0.00344853 -0.00118930
O 11.19648232 9.12314721 9.68838541 0.00384711 0.00033418 0.00093474
O 8.15261447 1.13254382 25.27384509 0.00174443 -0.00080219 -0.00400357
O 8.32785290 26.64612085 21.23151937 -0.01216724 -0.00012108 -0.01103658
O 13.29256619 24.95544007 19.81348228 -0.00042417 0.00397427 -0.00072726
O 8.24290918 21.02700379 7.23572204 0.00326634 -0.00320451 0.01226551
O 14.22536404 16.67341481 18.14154556 0.00434142 0.00179345 0.00034149
O 19.78015336 15.29025448 19.44936528 0.00355665 -0.00195277 -0.00446896
O 3.71395360 6.65126210 14.37510653 0.00125407 0.00168983 -0.00144609
O 16.87389982 24.79198397 11.68022051 0.00586355 -0.00245732 0.00362316
O 13.39597317 28.06557382 26.80276961 -0.00033775 -0.00629836 0.00418735
O 9.11008936 3.69440781 23.46218118 0.00397699 -0.00356723 -0.00432499
O 16.96028147 20.37780686 23.58095554 0.00425197 0.00594209 -0.00084521
O 14.76621299 16.81174457 15.69919066 -0.00304266 -0.00202317 -0.00204075
O 14.07910238 22.58704389 20.53749926 -0.00087257 -0.00056165 0.00321838
O 8.09474613 9.90536935 5.17433286 -0.00403853 -0.00290737 -0.00401609
O 1.37259103 11.49962498 17.86734335 0.00372623 0.00171081 0.00008601
O 16.21448603 30.04677216 8.42659670 0.00334023 -0.00311033 0.00668652
O 2.30498407 13.31358213 7.20776811 -0.00008044 0.00184993 0.00385041
O 12.57346000 27.49935115 12.39688734 0.00808815 -0.01087076 -0.00701533
O 13.68643903 22.57409871 1.24133460 -0.00107348 0.00561787 0.00275834
O 11.99736114 17.41376892 9.84889220 0.00325541 -0.00682746 -0.00230969
O 8.80081595 21.81411835 4.06145968 0.00589822 0.00211429 0.00218631
O 0.37643935 28.46379411 10.25634555 -0.00516160 -0.00682402 -0.01006600
O 22.46247571 10.44653736 21.97322903 0.00242613 0.00191217 0.00842464
O 4.05857464 0.60976349 1.64296692 -0.00079370 -0.00385465 -0.00221563
O 14.85421627 13.19111025 1.09902603 0.00178417 0.00370308 0.00420406
O 14.79651716 17.84587725 7.00543419 0.00922159 0.00300050 0.00104756
O 4.25821894 18.77990184 0.02418874 0.00150139 -0.00505041 0.00478113
O 21.17400793 0.92556554 6.61206059 0.00272411 -0.00130245 -0.00375550
O 18.01408766 28.64406306 3.64372977 -0.00656771 -0.00234011 -0.01021454
O 3.89650682 22.04506466 18.64387205 0.00021636 -0.00842686 0.00457322
O 23.96758091 6.44386163 17.24597112 0.00604441 0.00512240 0.00280448
O 9.45068680 0.99312002 5.03398252 0.00495517 -0.00027546 -0.00472526
O 19.54792652 18.79632260 25.99004748 0.00539778 0.00637274 0.00102869
O 19.56212332 6.96197379 19.85622134 0.00119836 0.00536737 -0.00853120
O 22.63277018 14.52536232 1.83199497 -0.00277653 -0.00360911 -0.00124469
O 17.32257354 5.32983753 8.54147149 -0.00949057 0.00238417 -0.00490369
O 20.37691236 11.43426243 22.73967737 -0.00191810 -0.00237929 0.00263646
O 6.81818159 28.85302691 16.46292459 -0.01018450 0.00742957 -0.01013853
O 13.66094810 16.33447615 24.92846104 -0.00006628 -0.00141125 0.00412290
O 15.82893116 6.73374255 27.28514695 -0.00761510 0.00179870 -0.00410601
O 17.39017479 15.44854720 21.03628103 0.00172659 0.00021852 -0.00052958
O 18.95818108 13.01863456 18.72675884 -0.00004209 -0.00226637 0.00349563
O 4.04371670 2.57943343 19.27215219 -0.00564651 0.00218787 -0.00393603
O 21.96967900 14.70834742 9.66770102 0.00145243 0.00084528 -0.00485604
O 20.49632664 6.64076625 27.00698304 0.00268701 -0.00084853 -0.00564130
O 17.84310532 25.85597940 8.28356820 0.01429923 -0.00250163 -0.00252856
O 9.62099045 17.99396500 20.40471164 0.00052357 0.00681510 0.00613271
O 16.89705312 1.06024743 24.51670534 0.00206902 -0.00230490 -0.00178785
O 15.39183707 8.47609037 5.12741015 0.00781476 0.00159358 0.00745968
O 17.65013053 17.98289865 13.04515512 0.00005900 0.00051128 0.00189444
O 1.25191550 7.37585365 22.61100329 -0.00612214 0.00525287 -0.00108338
O 3.11707002 17.60970940 10.48591820 0.00436946 -0.00523191 0.00714833
O 23.86580098 28.36741409 0.75929698 0.00905311 -0.00313697 -0.00377843
O 19.13040281 19.65634074 6.15474395 -0.00693134 0.00482229 -0.00079675
O 21.31308339 23.07433618 12.83998386 0.00180308 0.00568550 -0.01465884
O 17.45266547 28.55148559 0.95100035 -0.00294246 -0.00782675 -0.00495797
O 2.02307591 0.01718560 13.68341104 0.00673475 0.00615421 -0.00568267
O 20.30828630 3.84749405 14.32800571 0.00002553 -0.00219089 -0.00354165
O 7.31346567 22.19363596 1.92315126 -0.00708347 0.00059448 0.00125983
O 13.40861365 15.52354639 1.76469387 0.00537812 0.00822991 0.00066051
O 11.20729988 22.02701072 25.89279742 0.00083523 0.00761606 -0.00813241
O 20.87558236 11.58010430 13.10562527 -0.00223866 -0.00068235 0.00288263
O 21.35829600 19.88217624 7.14627304 -0.01361254 -0.00654766 -0.00255314
O 14.42922459 3.55699013 1.44253228 -0.00324202 -0.00002239 0.00362291
O 3.46489991 19.23197306 6.06776335 -0.00857132 -0.00266238 -0.01233290
O 19.34710953 27.50212986 27.80095125 0.00144971 -0.00245805 -0.00637873
O 1.66449413 19.66625172 1.47812912 -0.00857596 0.00401986 0.00152571
O 9.20894884 13.41874715 6.12659879 -0.00581049 -0.00401294 0.00406654
O 23.32723141 20.06068477 15.72168236 -0.00192215 0.00456509 0.00560037
O 18.83452992 5.51208767 12.50356394 0.00014986 0.00459607 -0.00077168
O 16.63884121 29.22477124 5.83084893 0.00421932 -0.00387372 -0.00784393
O 18.31535187 23.27068241 18.22389943 -0.00036135 0.00250440 0.01409618
O 23.86526402 23.89115799 8.64802037 -0.00046379 0.00050808 0.00503540
O 19.84047583 4.67376940 25.35571628 0.00087510 0.00571202 0.00179552
O 7.97174382 17.60452775 17.33398688 0.00236367 0.00048505 0.00250817
O 15.74720026 2.86413596 18.72457424 0.00782775 0.00419796 -0.00253453
O 22.49839571 26.11661668 16.12953141 0.00248453 0.00029673 -0.00019677
O 21.34760289 21.29410591 0.42267092 -0.00040373 0.00411717 0.00198434
O 10.28073724 28.92768734 5.20617611 0.00075304 0.00176951 0.00017512
O 16.72834311 24.49421110 24.25348778 0.00646628 -0.00335442 -0.00088175
O 22.23192728 3.64129463 10.71036781 -0.00735201 -0.00202059 0.01006805
O 20.62186762 27.80471359 15.53120975 -0.00149828 0.00639105 -0.00261491
O 6.98879666 24.14457991 13.55814873 0.00501149 0.00500659 0.00382334
O 14.41542917 8.65588493 21.06639453 -0.00499378 -0.00297504 0.00439859
O 14.61889888 18.58687613 1.22739677 -0.00001126 -0.00486569 -0.00654786
N 15.65875473 21.76926314 7.66442729 0.00894733 0.00069094 0.00598080
N 2.08773162 1.96788096 9.81157780 -0.00270762 -0.01579460 0.00553105
N 8.97520641 26.87047757 7.33746529 -0.00270839 0.00614221 -0.00288318
N 1.18918049 7.95614090 10.44399726 0.00386242 -0.00101122 -0.00593578
N 0.97525219 2.21715828 16.10978815 0.00628445 0.00503503 -0.00400863
N 1.29597683 19.49391300 23.16185881 0.01177224 -0.00157822 -0.00073550
N 9.15135745 26.03107527 26.37933679 -0.00183678 0.00307393 0.00066091
N 23.64376824 27.57947067 6.63189524 -0.00525116 0.00318228 -0.00277725
N 23.18186699 22.59256506 19.99814612 -0.00373646 0.00448759 -0.00039446
N 3.18716470 10.31459264 1.93717289 -0.00088006 0.00286641 -0.00394292
N 16.08823862 28.60639896 18.34654883 -0.01013309 -0.00243888 -0.00140579
N 12.00706837 6.40660251 23.97619412 -0.00601413 -0.00988574 -0.00228046
N 8.89079357 7.85294544 26.21461953 -0.00484926 -0.00752489 -0.00149201
N 11.08496732 12.17124572 15.47987188 0.00368186 -0.00299436 0.00567340
N 5.03665179 16.95140683 16.25766028 -0.00126025 0.00506393 -0.00297587
N 7.25368542 7.92764823 14.58505949 0.00404586 0.00559151 -0.00685918
N 8.12126432 2.08253854 12.11842173 -0.00310572 0.00370555 0.00421830
N 3.02021114 26.10280531 12.69271065 -0.00663738 -0.00359403 0.00904309
N 21.90560027 18.66779152 27.69230686 0.00744944 0.00545785 -0.00065881
N 23.34153385 17.40749644 20.36128682 -0.01102990 -0.00712572 -0.00679757
N 21.52714291 8.21463213 4.63268981 -0.00170432 -0.00075664 -0.00105537
N 19.62402181 23.43484996 4.15868719 -0.00107996 -0.00406210 -0.00217344
N 12.04975878 21.71630296 14.98249843 0.00563068 -0.00173978 -0.00104745
N 0.48112296 1.94346676 25.45288626 0.00897799 0.00718354 -0.00158619
N 10.62881245 29.61220582 14.12047935 0.00079808 -0.00590536 -0.00239899
N 3.07261114 23.53738349 3.37482750 -0.00111127 0.00596768 0.00129669
N 0.30369453 10.88207097 26.19750207 -0.00869737 0.00313035 0.00723982
N 4.22828779 23.79095902 26.07908762 -0.00445454 0.00121538 0.00151317
N 18.84674560 16.91096765 3.26474582 0.00126992 -0.00508779 -0.00217301
N 5.20578784 28.35728401 19.93288796 0.00053089 0.00300626 0.00588202
N 9.68476726 22.93794116 21.88663812 -0.00477877 0.00093908 -0.00644148
N 22.63021208 26.94277077 22.51189919 0.00510405 -0.00476944 0.00566701
N 7.96854099 11.72472695 3.72725335 -0.00515111 -0.00003589 0.00992489
N 7.39812153 5.54330225 6.00315782 0.00264921 -0.00504954 -0.00377929
N 11.48545614 6.94741887 8.90873556 0.00304814 0.00110865 0.00609908
N 15.53030842 11.03478188 15.07676889 -0.00472014 0.00366640 0.00728287
N 10.84604535 27.25315501 10.83795580 0.00435421 0.00985276 0.01045819
N 18.98748465 10.87542214 8.33180922 0.00217321 -0.00133847 0.00361110
N 6.89001927 19.35186774 8.05429128 -0.00994143 -0.00181134 0.00119627
N 15.40410317 13.81805389 9.58401348 -0.00381239 -0.00466300 0.00113573
N 17.21859435 19.17754416 16.38656007 0.00204186 -0.00326013 0.00715487
N 6.66974975 7.32308442 20.23220050 0.00360607 0.00582114 -0.01103278
N 17.01496808 30.18962496 10.51365394 -0.00098127 -0.00122760 -0.01370664
N 1.76158869 7.24072544 4.06819299 0.00584439 0.00909175 -0.00376546
N 8.99027305 28.81749272 21.26086997 -0.00766401 -0.00329984 0.00187338
N 13.45931244 4.34673394 14.97162030 -0.00287684 -0.00656448 -0.00059385
N 11.14036406 16.10974638 11.56866972 -0.00875662 0.00510094 0.00171406
N 21.19178694 4.81209468 2.41492076 0.00037963 -0.00216253 0.00317685
N 6.00719042 14.63463066 23.86211422 -0.00498460 0.00253531 0.00195473
N 5.02718402 9.82274088 9.61918545 -0.00658421 -0.00544018 0.00737715
N 17.87305590 12.34746934 25.83979770 -0.00977382 0.00145962 0.00305895
N 2.10023189 12.25917392 9.25841759 -0.00114042 0.00581291 -0.00344910
N 13.51365965 11.62878090 25.81889832 -0.00922995 0.00144595 -0.00615897
N 15.29124001 25.08253366 18.75128725 0.00482016 0.00678772 -0.00554471
N 13.94377291 4.40572857 6.72678923 0.00697846 0.00195967 0.00080652
N 10.82460550 22.41350359 4.88604765 0.00017481 0.00433048 0.00771422
N 21.64835510 3.78922251 18.25268786 -0.00986152 -0.00358173 0.00336431
N 2.68363757 9.79667160 18.78794231 -0.00136722 0.00035669 -0.00061347
N 9.74471532 13.76847463 22.61551848 -0.00201356 -0.00714304 -0.00189803
N 9.17540337 1.23411685 27.28352162 -0.00337692 -0.00409768 -0.00372019
N 8.33571794 18.78321102 28.45276733 -0.00161152 0.01399249 -0.00067537
N 14.95561336 21.48943908 28.57736465 0.00500485 0.00333460 0.00029720
N 12.74103066 0.61515797 18.56300868 0.00673089 -0.00225987 0.00739073
N 14.97839280 17.14138037 20.23432251 -0.00202878 0.00983336 0.00382532
N 19.21000099 21.53421063 0.93298626 -0.00055230 -0.00524386 0.00364945
N 22.70711850 8.26374707 16.76920546 -0.00077510 -0.00050614 -0.00690384
N 13.57168156 2.24398148 28.46103369 0.00330752 0.00458908 -0.00012794
N 15.87253310 8.04220988 2.85346145 -0.00157595 0.00139839 -0.00862644
N 20.84761105 28.68865275 13.41669057 0.00469037 -0.00277990 0.00002723
N 0.35985805 15.33827660 2.10490436 0.00168936 0.00829667 -0.00130565
N 8.40864097 14.74823167 4.39140221 0.00792913 0.00126092 0.00276622
N 22.80755148 30.20060181 1.58219250 0.00689868 0.01216005 -0.00096926
N 19.99537206 10.47965523 14.94520603 0.00350560 0.00091527 0.00059163
N 8.87671390 17.64110425 22.56941230 -0.00083948 0.00081572 -0.00024748
N 18.68292660 25.43435539 23.33432145 0.00213523 -0.00313818 -0.00279503
N 17.54286620 17.72984122 26.10008832 -0.00309526 0.00603764 0.00780100
N 19.21746393 29.78693363 27.55285365 -0.00310451 -0.01267556 -0.00622012
N 1.55748266 5.20842445 23.39058723 0.00353182 -0.00535586 0.00793622
N 15.28876938 8.60781522 18.87551890 0.00276152 -0.00560257 0.00690179
N 21.04176961 11.80578302 24.82189324 0.00467917 -0.00234298 0.00091646
N 19.35221032 26.87397965 9.50918014 0.00107182 0.00247167 0.00011746
N 22.58668900 19.15828817 8.94434219 0.00566512 0.00062661 0.00261619
N 9.09677529 2.32386392 3.13561502 0.00450980 -0.00213307 0.01029740
N 23.83844086 4.69258099 11.99722799 0.00115561 0.00159752 0.00291879
N 18.74129963 17.92252786 10.95489064 -0.01444320 -0.00320044 0.00105376
N 2.81544920 19.60678519 3.42419127 -0.00541611 -0.00075361 -0.00352197
N 19.47373023 5.99717218 8.19349496 -0.00273791 0.00880401 0.01154195
N 12.49146295 19.59190327 1.98336866 -0.00192607 -0.00402760 -0.00186748
N 5.26092682 23.88662910 18.32563914 0.00970291 0.00118916 0.00129750
N 11.64113573 27.78440409 3.66585928 0.00027205 0.00764684 -0.00367494
N 15.03185458 2.36034044 23.87059721 0.00342748 -0.00673239 -0.00433710
N 2.31631288 19.08838971 8.08019717 0.00803424 0.01086804 0.00051769
N 18.24793393 8.24943271 21.33202400 -0.00832386 -0.00167364 0.00245086
N 6.96347110 22.51544360 15.05778269 -0.00998876 -0.00529528 -0.00181109
N 1.62242623 17.40725707 12.13148528 -0.00104740 0.00370422 0.00057600
N 21.16696335 20.68869589 16.22188068 -0.00398549 0.00846201 -0.00248184
C 6.89631729 30.27787480 12.94124074 0.00250448 0.00712312 -0.00136288
C 2.65735452 30.04471999 8.76320996 0.00709245 0.00200356 -0.00941608
C 22.59967026 20.58758417 26.67979750 0.00460492 -0.00989759 0.00431604
C 3.24418245 6.65702479 10.93046116 0.00357191 0.00370516 -0.00114702
C 20.39539934 9.27077646 2.62033332 -0.00573190 -0.00314135 -0.00520364
C 1.22469059 17.42860467 24.51088242 0.00167331 0.00560944 -0.00567752
C 11.08003157 22.46430087 17.11963233 0.00484042 0.00128314 -0.00479187
C 24.11510340 29.97013934 5.82351868 0.00222937 -0.01439043 -0.00688415
C 5.87633513 29.80939881 13.67580631 0.00139751 0.00641086 0.00273279
C 3.44834470 28.90839295 8.67644118 0.01115391 -0.00059672 -0.00495870
C 23.47175983 21.65804921 26.38957604 -0.01364963 -0.00558045 -0.00564075
C 4.07441346 5.58305317 10.63436553 -0.00204569 0.00136991 0.00042014
C 20.30498635 10.43708172 1.79516573 -0.01269762 -0.00106918 0.00376358
C 0.47113699 16.45430413 25.02112740 -0.00513609 0.00496188 0.00894735
C 10.43694740 22.22745935 18.28466957 0.00578075 0.00090944 0.00488438
C 0.64082317 0.46591677 5.23645897 0.00090281 0.00003919 -0.00649411
C 5.15246115 0.25753789 14.58893093 -0.00767410 -0.00453952 -0.00898203
C 4.57786243 28.76463860 9.47834973 0.00776428 0.00571157 -0.00242486
C 0.45910017 21.69332361 26.87850254 0.00380093 -0.00591531 0.00301598
C 3.69807147 4.89365544 9.47269456 -0.01487766 -0.00643946 -0.00443670
C 21.09779902 11.61349721 2.08471692 -0.00424323 0.00671300 -0.00820591
C 23.34873835 16.48918820 25.00858805 -0.00600490 0.00034676 -0.00034395
C 10.23408940 20.80002472 18.60714542 0.00507171 0.00370038 -0.00083576
C 1.59580142 30.21397928 4.42423366 -0.00465613 -0.00196539 0.00057909
C 5.54787000 1.54805882 14.78728703 -0.01015424 -0.00676274 -0.00358764
C 4.95758864 29.88907768 10.21579139 0.00574627 0.00961801 -0.01005976
C 0.70410994 20.58313876 27.78854752 0.00432977 0.01234754 -0.00824384
C 2.81664158 5.34436390 8.45383993 0.00748462 0.00077216 0.00716768
C 22.00974686 11.49159722 3.15668328 0.00102708 0.00288986 0.00744353
C 22.70453147 17.43950755 24.24272575 0.00513543 -0.00192558 0.00388591
C 10.71758872 19.80019152 17.82576199 -0.00076682 0.00536361 0.00231728
C 1.77301977 28.85700290 4.30796626 -0.00600367 -0.00453153 -0.00701120
C 6.49361865 2.14702421 13.95346090 0.00513015 -0.00282946 0.00669811
C 4.09089104 0.71511063 10.42254187 -0.00187743 0.00759160 0.00486193
C 24.14709824 19.58237197 28.22124072 -0.00561889 0.00539740 -0.00344475
C 2.01998892 6.44948601 8.80267482 0.00170023 0.00489842 0.00298878
C 21.99243829 10.46229096 4.00884054 -0.00125467 -0.00154599 0.00648075
C 23.54384130 18.43607088 23.64087272 -0.00091688 -0.00533835 -0.00487969
C 11.22391705 20.15882583 16.60785379 -0.00107453 0.00815289 0.00457194
C 0.91109721 27.97795631 4.90970489 0.00104281 0.00652727 -0.00608817
C 7.19256353 1.34262398 13.01926052 -0.00677734 -0.00186331 -0.00733384
C 2.86911913 0.81866508 9.69923416 -0.00200810 -0.00931200 -0.00135181
C 22.90332245 19.56133220 27.56883649 0.00647232 0.00958993 0.00064685
C 2.08342020 6.89495909 10.05294209 -0.00113156 0.00731273 0.00816484
C 21.25918698 9.29750656 3.77905451 0.00628789 -0.01051830 0.00480035
C 0.53860076 18.45206696 23.78158308 0.01397155 0.00044766 -0.00435610
C 11.44069017 21.46448446 16.22140474 -0.00557665 0.00356130 -0.00278843
C 24.27925338 28.46552831 5.78055839 -0.01151262 -0.00330796 0.00028849
C 7.70258337 3.29973279 11.40970884 0.00348428 0.00164176 0.00069404
C 0.86410194 1.88969726 9.26799583 -0.00537165 -0.00237052 0.00319788
C 21.99841885 17.64742393 28.60292573 -0.00743619 -0.00370977 -0.00277561
C 0.89351377 8.16215965 11.83999063 0.00802624 -0.00680632 0.01045795
C 22.41466708 8.04052200 5.64262293 -0.00201427 0.00161025 -0.00040135
C 2.55958546 19.77733123 23.38776199 0.00445807 0.00222283 -0.00251294
C 12.05619274 20.80607427 13.93292387 0.00183696 -0.00174850 0.00420023
C 23.26664498 26.24336265 6.31047991 -0.00191637 0.00907019 -0.00437012
C 0.74282461 23.87717906 19.52831257 0.00421910 -0.00681260 -0.00848991
C 0.23552768 3.22368799 8.97090798 0.00570232 -0.00018491 -0.00703042
C 7.00278225 28.05812926 6.51630878 -0.01345021 0.00275347 0.00559936
C 11.60285061 4.38857763 25.29841607 0.00048456 0.00142390 0.00161588
C 8.55770926 9.13644434 24.07569831 0.00270986 -0.00618735 -0.01016835
C 2.93780300 21.20707543 23.01131749 0.01250540 0.00500985 0.00297742
C 8.64584748 23.69093296 25.83720567 -0.00571140 0.00146476 0.01092325
C 7.54538308 6.54100532 12.69028806 0.01167135 0.00356840 0.00651615
C 11.30352307 1.39893440 12.96738783 0.00357726 0.00079492 -0.01014094
C 4.96660776 8.62537172 1.95164390 0.00255555 -0.00079058 -0.00377969
C 2.64270637 10.74433368 25.44803743 0.00348497 0.01261389 -0.00241237
C 12.33930356 8.57755299 23.05468244 0.00365701 -0.00141440 0.00218915
C 20.99266617 16.09036545 4.03264695 0.00664768 0.00259732 0.00154551
C 9.92843249 11.52582235 13.35947543 -0.00244340 -0.00029730 0.00360260
C 11.94024997 22.34514466 22.53826258 0.00463237 -0.00038346 -0.00192071
C 8.67770379 8.20096620 16.52786000 0.00162164 -0.00439694 0.00391855
C 11.03407698 2.68827652 12.58374092 0.00670563 0.00702434 0.00799915
C 6.22426564 8.19214221 1.58579952 0.01088533 0.00059478 0.00265168
C 3.89379770 10.14056780 25.66692384 0.00899647 -0.00745550 -0.00620572
C 11.87269376 9.57991027 22.22629530 -0.01182426 0.00036116 -0.00517302
C 21.81021997 15.20743700 4.87854445 0.00198986 -0.00174475 -0.00134668
C 8.90423567 11.79363168 12.54859197 -0.00016540 -0.00068498 -0.00733083
C 13.05874439 22.47500990 23.40018704 0.00300365 0.00140858 0.00256349
C 9.23914545 9.08207165 17.41666261 -0.00121539 -0.00528723 -0.01005131
C 10.17498721 3.49607953 13.40973635 0.01639968 -0.00476366 -0.00369672
C 7.17856518 8.99982659 0.89353634 -0.00171589 0.00054594 -0.01433649
C 4.06160020 8.86390486 26.15930327 -0.00601507 -0.00541494 0.00041440
C 11.11699282 9.29558099 21.06490771 -0.00168626 0.00296281 0.00400091
C 21.14599412 14.07531487 5.43911631 -0.00455680 0.00627368 0.00472184
C 8.16058711 13.00461406 12.56146359 0.01111917 0.00539079 0.00335389
C 13.24761986 23.68767977 24.03884638 0.00005842 -0.00332745 -0.00557687
C 8.54033463 10.28677520 17.72258787 0.00172776 0.00121757 -0.00052361
C 9.72582898 2.99860439 14.62218661 -0.00346756 -0.00635376 -0.00401372
C 6.56301774 10.21027319 0.40830152 0.01248664 -0.00393663 0.00226108
C 2.94142494 8.34386623 26.81813485 -0.00083454 0.01112123 -0.00215470
C 10.84574421 7.84656243 20.78924589 -0.00449321 -0.00296581 -0.00448568
C 19.83981790 13.87211719 5.11472765 0.00031690 0.00628647 0.00472512
C 8.56126294 14.03734045 13.41138068 -0.00092346 -0.00001044 0.01017581
C 12.31640283 24.77830861 23.85773177 0.00448629 0.00255579 0.00349663
C 7.35218483 10.58132364 17.01615838 -0.00702183 0.00054539 0.00732020
C 9.77547324 1.58972261 14.82242056 -0.00546888 -0.00686889 0.00116433
C 5.27454677 10.67279286 0.71589228 -0.00604992 -0.00695434 -0.00522894
C 1.62704777 8.87220011 26.69565381 -0.00660075 0.00447405 -0.01102297
C 11.16655141 6.93787807 21.72347106 0.00621026 -0.00758882 0.00892229
C 19.04987065 14.74056732 4.32897619 -0.01019872 0.00660790 -0.00080156
C 9.50773528 13.70697914 14.27563316 -0.00746469 -0.00264298 0.00097514
C 11.07518675 24.50716908 23.20372554 0.00053649 0.00135880 -0.00771547
C 6.95143635 9.86563775 15.92152866 -0.00201685 -0.00644793 -0.00516329
C 10.45795502 0.70300012 13.93596475 -0.00434565 0.00188052 0.00106329
C 4.38072479 9.82263305 1.44599181 -0.00220328 0.00910485 0.00516846
C 1.48355356 10.13723538 26.02304331 -0.00072288 0.00876562 0.00149164
C 11.88776994 7.24162073 22.88231561 -0.00644811 -0.01717977 0.00875121
C 19.62562257 15.91389048 3.79307869 0.00248475 -0.00369855 0.00343480
C 10.14145272 12.45416892 14.49305190 -0.00081052 0.00585999 0.00517851
C 10.89943623 23.28136841 22.56267743 0.00463173 -0.00486351 -0.00155777
C 7.67511743 8.68731078 15.63848313 0.00467691 0.00597018 0.00011222
C 9.55066909 28.92634126 14.71093692 0.01366597 -0.00761273 0.00348256
C 2.50294033 11.40335074 1.35692308 0.00350139 -0.00127941 -0.00528175
C 24.11837733 11.92410546 25.42050222 -0.00043594 0.00091091 -0.01198536
C 11.78367477 5.09517044 23.97315567 -0.00673866 -0.00252117 0.00007419
C 17.74978799 16.64802900 2.42846379 0.00412404 -0.00002862 -0.00014152
C 11.82810868 13.15491350 16.21300044 0.00925348 0.00239136 -0.00539341
C 8.43826588 23.41111100 22.12634048 0.00340644 -0.00075003 -0.00082308
C 8.00945958 7.05631188 13.96388425 0.00674334 0.00177035 0.00152305
C 16.48401012 21.82679272 9.88440657 -0.00434452 -0.00033996 -0.00547667
C 1.29498531 11.88548648 2.14221769 -0.00046954 0.00073827 -0.00318128
C 17.68102569 28.07274472 16.52700536 0.00141558 0.00770191 0.00100238
C 0.15108633 9.44512935 12.13907743 -0.00616347 0.00836078 -0.00100987
C 1.67193554 4.51980149 16.00419629 0.00194071 -0.00305802 -0.00099827
C 12.64985065 12.71019778 17.38691827 -0.00228315 -0.00596730 0.00342715