1920
Time=99999.99999996 pbc="T T T" Lattice="23.75653386 0.00000000 0.00000000 0.00000000 30.82895234 0.00000000 0.00000000 0.00000000 29.34328733" energy=-12182.14882863 virial="-64.91489906 27.72227748 -13.17140458 27.72227748 -63.00174919 -1.75062289 -13.17140458 -1.75062289 -106.15661108" stress="0.00036366 0.00129900 -0.00058616 0.00129900 0.00048565 -0.00009473 -0.00058616 -0.00009473 -0.00153896" Properties=species:S:1:pos:R:3:vel:R:3
O 5.99171737 27.05412294 12.24695420 0.00529750 -0.00431837 0.00404355
O 4.69901328 28.73934056 10.04372497 -0.01128967 -0.00387941 0.00101089
O 2.73424836 23.44015227 28.20335255 -0.00412837 -0.00557053 0.00984665
O 5.24831875 4.80442881 10.41126500 -0.00207455 0.00287813 0.00198923
O 20.53249545 12.44692019 2.89382090 -0.00381797 0.00113534 0.00603275
O 21.10627457 15.90267710 25.40889192 0.00148818 0.00609422 -0.00038991
O 9.65691588 18.95485918 19.64139506 -0.00102757 -0.00088884 -0.00168668
O 3.74649028 0.37604165 5.22641681 -0.00537732 -0.00189797 -0.00135020
O 8.75316247 29.44376877 14.10860463 0.00294235 -0.00248496 0.00838895
O 23.08474549 1.02327661 10.64087032 -0.00681838 -0.00191438 0.00266010
O 23.34378632 18.02746589 29.10091081 0.00845339 -0.00245740 -0.00514570
O 12.69334143 4.12117679 25.49418869 -0.00287585 -0.00558065 -0.00312016
O 15.18404052 17.71151447 2.16092569 -0.00554266 0.00102284 -0.00379449
O 1.18616227 20.44809243 24.21679234 0.00509589 -0.00591839 0.00008679
O 10.37349866 21.55753193 14.03390818 -0.00356924 -0.00663067 -0.00291887
O 9.09225368 7.24625355 14.30237631 -0.00587377 -0.00355494 0.00297838
O 8.28484679 4.85899977 14.85468254 -0.00029052 0.00769330 -0.00135586
O 7.82257955 7.79447604 28.62709109 -0.00155851 -0.00014572 -0.00519489
O 3.01875217 7.84089496 25.28430185 0.00216698 0.00236544 -0.00282691
O 9.98884916 8.30655343 21.55833321 -0.00793364 -0.00067943 -0.00089604
O 20.78536231 13.57717207 5.86731179 -0.00601603 -0.00204487 0.00314856
O 7.59808780 13.20788701 10.57367738 -0.00322571 0.00417092 -0.00511240
O 13.20079311 24.61184620 25.19093645 0.00162690 0.00514634 0.00438661
O 10.52860727 10.30780629 19.91857196 0.01087489 -0.00406212 0.00460335
O 6.03186442 2.42635007 11.53004705 0.00234117 0.00162381 0.00309272
O 3.10265925 12.23323123 29.32580905 -0.00251471 -0.00095275 -0.00531948
O 23.05647615 14.58564474 26.52808882 -0.00341138 -0.00044112 0.00799983
O 0.19890985 7.63743698 12.98379925 0.00029501 -0.00175199 -0.00218982
O 22.99178694 7.93789604 6.64530838 0.00357132 -0.00117831 0.00946475
O 10.63552838 13.07951152 16.20990783 -0.00342868 0.00905962 0.00156135
O 7.71266953 25.17002565 21.84322068 -0.00570322 -0.00209227 0.00689969
O 21.57220051 27.03023525 7.46439571 0.00398067 -0.00492540 -0.00080230
O 14.04939514 25.05250354 3.27603972 0.00327953 -0.00120064 -0.00038767
O 3.11403068 23.45838757 9.91192529 0.00519055 0.00284539 0.00389764
O 11.07187490 22.97747363 8.85004385 0.00127883 0.00233146 0.00037156
O 3.57225566 20.77464097 20.43108259 0.00038199 0.00160025 0.00537288
O 5.58847515 29.76847707 15.84670772 -0.00270987 0.00930641 -0.00641477
O 17.00753112 26.65615542 28.33303334 -0.00302413 0.00993607 -0.00236681
O 4.37234406 28.82458366 1.04626581 -0.00389299 -0.00057471 0.01212193
O 6.60752202 0.36392874 22.87583321 0.00492291 -0.00170307 0.00175050
O 23.70285129 23.92307970 19.98340305 -0.00957348 0.00174086 0.00069184
O 1.23650530 28.52154256 13.37002482 -0.00377191 -0.00219554 -0.00017908
O 6.78501279 27.55549236 8.38082856 0.00622886 0.00101244 0.00583773
O 3.76452760 24.83580648 23.47877031 -0.00184973 0.00127512 -0.00017935
O 7.97605432 7.50435508 26.11940896 0.00268480 -0.00531510 0.00008123
O 18.56913934 26.31318458 4.74422738 0.00338426 0.00139189 0.00455753
O 9.51188438 24.68920210 26.52526677 0.00296886 0.00387749 0.00391666
O 22.45689149 28.27221619 21.82762948 0.01237536 0.00472603 0.00354791
O 18.03544379 21.61426188 23.86675103 0.00620284 0.01088892 0.00046888
O 20.84179266 25.06789448 0.80604869 0.00091187 0.00441014 0.00077385
O 19.71743860 0.84505036 25.39449334 -0.00223194 0.00055059 -0.00219422
O 0.47155526 29.76108062 28.38301123 -0.00782531 0.00767499 -0.00084746
O 6.23531407 3.33976501 19.75040803 -0.00257219 -0.00266384 0.00897202
O 0.93236140 25.90442566 21.34481511 -0.00540513 -0.00030915 0.00090411
O 1.70565012 17.45196307 18.35125563 0.00239582 0.00851199 0.00100912
O 21.69762602 25.41065481 27.55548791 -0.00155351 -0.00068334 0.00282892
O 13.58912769 23.01621822 8.86529572 -0.00463599 -0.00675140 -0.00001350
O 3.13235924 27.02411606 2.73063354 0.00026740 0.00201339 0.00960724
O 16.92439139 1.78323235 19.57272388 -0.00119161 -0.00166446 -0.00727519
O 21.15153869 16.42344481 21.36528138 -0.00357596 -0.00446675 -0.00571099
O 0.82879314 2.45840773 18.23603994 0.00912596 0.00107851 0.00350343
O 4.86500625 0.19228091 20.72398050 0.00203511 0.00462689 -0.00913228
O 6.67023350 16.24615218 14.95103084 -0.00220519 0.00439309 -0.00013773
O 2.43665646 2.49811757 28.93775299 -0.00572593 -0.00221082 -0.00278280
O 3.78499605 14.58249055 28.03235321 -0.00372485 0.00166061 -0.00372650
O 5.13907538 1.90544847 6.93625097 -0.00005977 -0.00270859 0.00007369
O 14.37890729 7.96556819 24.36711455 -0.00210591 0.00742336 0.00682920
O 13.85934904 8.70879614 11.16860418 0.00001046 -0.00343769 0.00412035
O 12.36682488 6.79919502 2.58510729 0.00251279 -0.00157734 0.00712922
O 14.84484150 7.76553384 7.19857477 -0.00424244 0.00426929 -0.00598813
O 14.12128429 3.43438354 12.82685465 -0.00027491 0.00133911 0.01168703
O 21.28551419 15.58588801 10.35819504 0.00264688 -0.00602103 0.00352790
O 22.54564428 6.00657214 21.23337665 0.00299438 0.00113163 -0.00022180
O 8.63652457 8.09169384 3.87597774 -0.00124170 -0.00602766 -0.00465137
O 18.80281415 10.66824624 28.48502364 -0.00534747 -0.00313718 0.00334578
O 1.88740904 10.11931504 5.33421812 -0.00643621 -0.00006349 -0.00004450
O 6.17083303 18.16345971 28.42997773 0.00971449 -0.00265824 -0.00930822
O 19.83881009 11.48707019 6.73554526 -0.00195920 -0.00614729 0.00064036
O 14.12636354 2.18154074 7.00096160 0.00088948 0.00115550 -0.00388701
O 20.99706482 4.01382029 4.64628929 -0.00845879 0.00530476 -0.00197566
O 22.72571476 0.99518785 25.14263526 0.00532495 0.00208449 -0.00176754
O 6.41103134 10.85140861 22.60629614 0.00272956 0.00319777 0.00760847
O 10.40940855 14.87043686 18.02827092 -0.00422492 -0.00940755 0.00252082
O 23.00254853 7.32634681 0.24285717 0.00590179 -0.00220151 0.00599264
O 3.45428319 21.21824130 23.17088551 0.00150727 -0.00223328 -0.00544009
O 16.85192566 1.37723404 16.31612216 0.00092121 -0.00456154 -0.00140340
O 11.17202942 28.33767171 18.90861086 0.00488805 0.00030515 0.00722268
O 15.97718409 4.10050254 0.13110418 -0.00523889 -0.00229857 0.00628078
O 5.59256013 16.05718852 22.02045789 0.00448415 -0.00036891 -0.00433945
O 4.25135601 7.14994347 17.68814815 0.00364852 -0.00881773 -0.00215222
O 8.64583507 12.06301635 23.24859766 0.00114973 0.00592568 -0.00112617
O 15.86866597 13.84896115 14.97269038 0.00252847 -0.00538610 0.00010981
O 11.21110298 11.52905102 27.81326330 0.00782501 0.00188888 0.00044125
O 12.65259225 5.24543662 14.37171610 0.00254162 0.00379172 -0.00259121
O 8.42130154 3.14802471 18.30472628 0.00276913 -0.00087788 0.00541568
O 16.48692718 14.17792617 6.71033416 -0.00425439 0.00390405 0.00224561
O 2.83580723 12.25891107 4.09408137 0.00261784 -0.00048407 0.00082110
O 7.68468027 11.17982535 5.33926150 -0.00104728 0.00067972 0.00923586
O 11.71306208 8.44315459 4.45987136 0.01359334 0.00544659 -0.00124545
O 3.32121142 15.11272869 13.96974016 0.00337334 -0.00704581 -0.00042301
O 11.55921532 2.43503145 11.49780713 -0.00945420 -0.00677910 0.00208291
O 13.74288483 25.38240694 13.76852107 0.00052503 -0.00020100 0.00953539
O 11.34894046 20.18672896 11.88789158 0.00467513 -0.00047351 -0.00238767
O 10.38426130 17.76788851 7.40163677 -0.00365503 -0.00313309 0.00397461
O 17.39941375 20.75947211 17.80651678 -0.00053456 0.00034457 0.00016984
O 4.78595254 9.05031729 12.01567891 -0.00039003 -0.00313252 0.00116157
O 11.34810952 7.71531048 10.87288670 0.00158220 -0.00066065 0.00304156
O 7.30451409 4.36489508 0.75183140 -0.00330563 0.00360356 0.00008834
O 9.04256088 27.32637424 20.99458987 0.00142119 -0.00164289 -0.00239430
O 12.70684282 23.32056771 20.29199402 -0.00627566 -0.00117856 -0.00541466
O 6.96319561 15.65440356 11.20208315 0.00934786 0.00313332 0.00248694
O 14.25727474 17.13278990 17.43169469 -0.00173796 0.00203095 0.01018250
O 18.96846167 15.24145483 20.19477164 0.00071822 -0.00119594 -0.00196154
O 2.74939734 10.83523148 12.53678702 -0.00487027 -0.00030041 -0.00106616
O 16.41435465 24.32274223 12.73432718 -0.00027260 0.00388803 -0.00079500
O 11.90862122 30.01077478 26.95435877 0.00227132 -0.00123343 0.00046654
O 10.11790868 3.00414158 25.28586341 0.00207329 0.00109331 0.00992083
O 16.09938724 19.84754481 24.33073276 -0.00317453 0.00020424 -0.00027231
O 12.92464741 18.74465665 15.81788145 0.00423174 0.00185161 0.00099047
O 13.13067541 21.39275931 22.04189637 0.00459351 -0.00042781 0.00322269
O 8.17365580 9.76105521 1.95844820 -0.00458625 0.00631595 -0.00150752
O 1.98513621 14.33256124 17.52857631 -0.00212554 0.00189161 -0.00359975
O 16.41543400 30.28991105 11.59364177 -0.00383289 -0.00007310 -0.00008876
O 0.89011555 16.28801536 8.60363861 -0.00333243 0.00371480 -0.00538518
O 14.03437056 27.41446316 12.15304392 -0.00406998 -0.00300652 -0.00471635
O 13.70690253 23.83727876 1.13922488 -0.00275451 -0.00600414 -0.00072471
O 11.79394062 17.38350938 9.77249982 0.00139674 -0.00028680 -0.00343212
O 8.29416104 22.92960509 4.15587168 0.00611292 -0.00258170 -0.00172842
O 0.51419154 27.55366289 11.02273366 0.00604841 -0.00420245 0.00363930
O 22.26436758 12.80916592 20.79665303 -0.00172232 -0.00043859 -0.00081266
O 5.02636880 30.41006418 2.82061065 0.00487773 0.00380450 -0.00207140
O 12.88035800 13.47096693 2.01353795 0.00594713 0.00171063 -0.00549347
O 14.72325799 16.19135354 7.17807754 0.01001369 0.00242764 -0.00180671
O 4.46361235 18.47723732 0.90533507 0.00166901 0.00202274 -0.00083350
O 20.58795489 1.20300522 11.92201340 -0.00394230 0.00224747 -0.00066157
O 18.28105241 28.57923833 3.67689949 -0.00224808 -0.00193238 -0.00007078
O 4.80906218 21.54780902 18.27127515 -0.00325177 -0.00341892 0.00073672
O 22.00409471 9.39914992 14.28469624 -0.00076151 -0.00139182 -0.00261417
O 10.35114349 30.48851156 6.18625791 -0.00022953 0.00489850 -0.00029648
O 13.37090447 16.48981068 26.77555477 0.00010310 0.00823963 -0.00632565
O 20.47162393 7.64032079 21.05625957 0.00639515 0.00226071 0.00052041
O 21.81689125 14.79313596 2.48783065 0.00443414 0.00087230 0.00320043
O 17.25110661 3.40251809 6.75033179 -0.00346810 -0.00960035 -0.00701340
O 22.04304168 12.02646077 23.40546101 0.00216098 0.00136064 -0.00317791
O 7.82750221 28.40748045 16.19881162 -0.00112184 0.00342441 0.00242286
O 10.96128441 17.26250951 27.31775407 -0.00276209 0.01210276 -0.00490203
O 17.22083742 5.08481873 26.28127817 -0.00759109 0.00142954 0.00349092
O 15.73561387 14.12836295 21.45206098 -0.00113998 -0.00166229 0.00584284
O 17.34772104 13.18562022 19.73318190 0.00103584 -0.00148764 0.00862467
O 2.80807356 4.89544783 18.20455199 0.00926808 0.00371893 0.00214153
O 23.38739827 18.01258972 9.83709529 -0.00301069 -0.00452854 0.00151180
O 23.16583202 6.32898087 25.17247995 0.00106333 0.00041574 -0.00177811
O 16.86018410 26.88273669 8.59750437 -0.00146840 -0.00700673 -0.00382111
O 8.76973831 19.91025048 22.09246509 0.00258003 -0.00484928 0.00481763
O 14.17339375 30.34417993 25.76501589 0.00298239 0.00022114 -0.00783681
O 14.38554344 8.11522397 4.77186583 -0.00612615 0.00139791 -0.00191871
O 17.22058476 19.23645775 12.24934722 0.00351196 0.00040021 -0.00410246
O 1.68349880 5.81356266 24.44480525 0.00225640 0.00008892 -0.00658725
O 3.27603812 21.73494648 13.40529285 0.00472860 -0.00029961 -0.00344500
O 0.34475490 29.02002850 1.44343287 0.00239677 0.00219266 0.00040690
O 17.92937488 20.60148847 5.50750033 0.00912874 0.00117707 -0.00543746
O 18.79384062 23.18702699 12.97250338 0.00133560 -0.00685992 0.00276437
O 16.90927520 29.47427477 28.51164278 -0.01031833 0.00274907 -0.00213162
O 2.83435261 30.40682114 13.63142159 -0.00834731 -0.00432688 -0.00072755
O 19.66304241 1.32272808 16.64869364 0.00668298 0.00131674 0.01043264
O 6.98522912 23.02566542 1.89141789 0.00035234 -0.00106322 0.00765155
O 11.72892018 15.50646252 2.89791309 -0.00371892 -0.00928820 0.00527096
O 10.73417610 22.43124857 27.06400720 0.00478087 -0.00059531 -0.00626166
O 21.67191115 10.43724986 11.32894184 -0.00024550 -0.00198989 0.00031229
O 20.23935592 20.49561950 6.85308324 0.00250092 -0.00468461 -0.00266003
O 13.96970334 3.58566880 1.54711215 -0.00855410 0.00497057 0.00053172
O 1.89391963 19.25306812 5.69030030 -0.00544213 0.00061613 -0.00437386
O 18.95702169 0.03688141 27.96654111 0.00877713 0.00025181 -0.01314877
O 1.04752661 21.23242923 1.32996185 0.00603043 -0.00239621 0.00032183
O 6.70334446 14.05332083 7.09725361 -0.00749280 -0.00046630 0.00283806
O 0.21480367 19.09988132 17.46884982 0.00853087 -0.00862673 0.00754977
O 18.37918052 14.22655984 15.41711905 0.00202948 -0.00780122 -0.00139406
O 16.33696958 0.80114370 9.23387576 0.00473481 0.00005216 0.00820722
O 17.41060819 23.34768765 17.81388946 -0.00057098 -0.00324852 0.00444310
O 21.99005608 24.30679368 6.66288764 -0.00676936 0.00309614 -0.00002698
O 22.74288119 5.42520980 27.54920742 -0.00422198 -0.00273505 0.00067303
O 5.76619208 17.73396066 13.09531648 -0.00421844 0.00211682 -0.00338442
O 18.05759274 4.01012009 19.55021851 0.00288408 -0.00214229 0.00460006
O 21.32722522 24.81293042 16.77399067 -0.00162578 -0.00351860 0.00176651
O 19.92483042 21.55037011 28.74110655 -0.00127230 -0.00330563 0.00012306
O 12.22871896 29.27857302 5.04409100 0.00347593 -0.00100500 -0.00249635
O 15.25651487 24.61452773 23.73835438 0.00604240 0.00916726 0.00521165
O 21.61386006 2.61203373 15.34410483 -0.00092752 0.00305933 0.00648742
O 19.38759554 25.80025542 15.69136721 0.00905044 0.00844650 -0.00066490
O 7.55601964 25.09984269 12.22586096 -0.00398756 -0.00229699 -0.00700869
O 14.21215945 7.93653858 21.86338353 -0.00623082 -0.00223949 -0.00209693
O 12.69153845 18.04252257 2.13916676 -0.00356885 -0.00051987 0.00085958
N 15.17638571 22.00959433 7.80564381 0.00842747 0.01118618 0.00537163
N 1.02276492 2.03779545 9.53157008 0.00241843 -0.00083836 -0.00110758
N 8.74699291 27.80793065 7.36790987 0.00623757 0.00064663 -0.00578561
N 0.29530260 7.06619808 10.74617158 -0.00216881 -0.00479980 0.00364259
N 0.83420866 0.14076844 18.12625388 -0.00315835 0.00384268 -0.00670709
N 22.75680374 20.87102599 23.64346096 -0.00163188 -0.00041086 0.00073630
N 8.56002962 26.54695616 27.42371906 -0.00113889 -0.00584656 -0.00259587
N 22.95554895 28.73782064 7.02840852 -0.00355541 -0.00889470 0.00356797
N 21.67061664 23.05220621 20.16672499 0.00488433 0.01048400 -0.00331680
N 2.81887935 9.97991518 29.09556174 0.00452944 -0.00845302 -0.00849417
N 16.24643711 0.13795096 21.02610825 0.00695113 -0.00466384 -0.00552680
N 12.23344529 6.20641450 26.16595513 0.00049090 -0.00068204 -0.01377514
N 7.79921865 5.94230340 24.44051079 -0.00607910 -0.00933865 0.00059047
N 11.44439074 11.74169883 14.47536132 -0.00034529 -0.00845688 0.00286869
N 7.05398507 17.27826781 16.88892108 -0.00067007 -0.00050339 0.00386909
N 8.16575929 9.12738727 15.02112373 0.00461115 0.00597140 -0.00305436
N 7.89231625 1.31157894 12.03936240 0.00749358 -0.00243695 -0.00587568
N 1.30991547 26.40802200 14.14091131 0.00516910 0.00189498 0.00460061
N 22.29493552 19.80871853 28.13540710 0.00096343 -0.00062605 -0.00693321
N 22.40648629 18.29907527 21.08194210 -0.00019317 0.00605721 -0.00144045
N 21.33382705 7.50791703 5.19433333 0.00195271 0.00239743 -0.00091110
N 17.85931362 24.23742550 3.99080412 0.00225820 0.00307096 0.00440050
N 10.69423786 22.94336977 15.82253651 -0.00770008 0.00416233 0.00432152
N 3.19064379 1.38146759 27.19936679 0.00453707 0.00663997 -0.00356239
N 10.70147245 30.59990782 14.79768434 -0.00759383 0.00460931 -0.00364975
N 2.08059401 25.03456113 3.39547611 -0.00244090 0.00032830 -0.00098056
N 23.61114335 12.33769043 26.36081225 0.01013403 -0.00254261 0.00481448
N 2.57133814 26.49736888 24.47245483 -0.00813245 -0.00240835 -0.00717554
N 17.10872207 16.67715610 2.95699055 0.00685988 0.00430920 -0.00165690
N 5.38547598 28.88156751 19.97584460 0.00278402 0.00316982 -0.00932701
N 8.56909298 23.04847206 22.59376398 -0.00052849 0.00039011 0.00017456
N 20.44008177 28.57906720 23.00570110 -0.00786015 -0.00659407 -0.00932912
N 7.87288098 12.08141020 2.15081441 0.00560269 0.00233267 -0.00551960
N 7.00762140 6.93339539 4.90391367 -0.00021593 0.00743262 0.00127377
N 11.00039394 5.98292957 9.41482746 0.00364349 -0.00768762 0.00008527
N 15.18658556 13.82321867 12.81781998 -0.00509049 -0.00303719 0.00076953
N 12.39968299 27.86011498 10.48435543 -0.00123795 -0.00441771 0.00045879
N 19.69652477 10.23411990 8.55088920 -0.00180251 -0.00449040 0.01479839
N 7.09623566 17.50732360 9.78353255 0.00039617 -0.00225600 -0.00132265
N 16.92778912 12.72947766 8.34714248 -0.00144321 -0.00470058 0.00476093
N 17.03575484 18.96404129 16.49851883 -0.00478038 0.00535363 0.00496500
N 6.37736967 7.05879646 18.62595342 0.00529584 -0.00418275 -0.00285131
N 16.42508447 29.71581419 13.82148563 0.00224073 0.00491119 -0.00269402
N 2.12050804 7.81257551 4.95483715 -0.00290719 0.00624074 0.00192567
N 9.77619059 29.36337789 21.90251545 -0.00043866 0.00604932 -0.00368632
N 14.48126360 6.33414404 15.18221161 -0.00037327 -0.00723380 0.00835732
N 11.69375111 15.74390676 11.33261945 0.00089793 -0.00454141 -0.00002792
N 20.95716724 4.69460891 2.44207572 -0.00263010 0.00142904 0.00340956
N 5.94149095 13.93861328 22.92008542 -0.00140493 -0.00372441 0.00188113
N 5.67840125 8.80341852 9.85877411 -0.00466029 -0.00015435 -0.00355384
N 17.21242362 11.88847431 27.30175277 -0.00804643 0.00370957 0.00025490
N 1.61219506 14.12462891 8.76385366 0.00341816 -0.00172967 -0.00508611
N 13.20857170 10.54038455 28.07873162 0.00781171 -0.00866864 -0.00315071
N 13.93789908 25.01649222 19.23351222 -0.00026831 -0.00370915 -0.00585238
N 14.16285842 4.46403533 7.28101573 -0.00026323 0.00093585 0.00053311
N 10.43026234 22.74485614 4.90648449 0.00221023 -0.00295252 -0.00003781
N 23.74760637 4.10025913 20.54170241 -0.00357942 0.00037163 -0.00441128
N 2.93192971 12.28524521 17.95977193 0.00190101 -0.00296385 -0.00586832
N 9.83965260 14.02259293 23.48310806 0.00134838 0.00558015 0.00363825
N 8.24211400 2.38602401 0.20966806 0.00033754 -0.00143365 -0.00440819
N 7.08937569 19.99350637 27.32622008 -0.00415680 0.00685810 0.00004504
N 13.95871293 22.38303798 28.84759851 -0.00543759 -0.00113581 -0.00773224
N 10.70468236 3.02341881 18.40252271 0.00718583 0.00096823 -0.00422867
N 14.30359487 16.53635785 19.65139512 0.00287339 0.00823764 0.00877670
N 17.97353576 20.37017686 29.28478018 -0.00545335 -0.00070780 0.00316775
N 23.10360917 10.18601589 16.02323928 -0.00270409 -0.01053317 0.00098046
N 12.76265142 1.67228576 1.15617897 0.01184324 -0.00070891 0.00685292
N 15.51442766 8.89335735 2.94967972 0.00257936 0.00061409 0.00076371
N 19.44499987 27.25978433 13.92854184 -0.00543892 -0.00168330 -0.00039255
N 0.22278063 15.15796474 2.38405101 0.00347967 0.00233151 -0.00731623
N 6.58737380 15.36498864 5.29569828 0.00284740 0.00270751 -0.00447200
N 23.40557570 30.61394303 2.97737725 0.00090389 -0.00613374 -0.00314901
N 22.42097551 12.48592288 12.02455905 -0.00921417 -0.01047422 -0.00654417
N 7.34253407 18.68080647 23.38922509 -0.00180788 0.00025007 0.00598874
N 16.50857595 26.14444062 22.64676176 0.00754246 -0.00403864 0.00008252
N 15.53494080 15.79848648 26.63698932 0.00880048 -0.00466624 -0.00086480
N 21.23302034 0.20416172 28.63823018 0.00321646 -0.00115015 0.01021639
N 2.35170408 3.73918665 23.58980409 -0.00959626 -0.00190152 -0.00133342
N 14.63645688 8.43986148 19.63465920 0.00684479 0.00419790 -0.00176992
N 20.32690726 10.99267600 24.47813143 0.00517523 -0.00102727 0.00360799
N 18.83602793 26.79667872 9.74438389 -0.00166749 0.00387378 0.00236852
N 21.51164444 20.57607131 8.74833810 0.01032749 -0.00323610 -0.00261814
N 9.47051449 1.62029804 5.24155726 -0.00921751 0.00143468 -0.00242641
N 23.08053068 3.81104774 14.13682966 -0.00350387 -0.00840380 0.00255546
N 18.42917583 18.49974226 10.39951979 0.00232384 -0.00283108 -0.00134962
N 2.37232290 20.22621596 2.99431424 0.00638650 -0.00122690 0.00581242
N 17.72305278 4.60811418 8.50584378 -0.00115529 -0.00107644 -0.00193115
N 11.80645200 19.95568282 2.80818721 -0.00463748 0.00021225 -0.00181002
N 5.30225511 23.62098544 17.56135693 0.00285546 -0.00017339 0.00064003
N 14.35958836 29.83128935 4.38608740 -0.00178319 -0.00074677 -0.00490303
N 14.11154367 1.05102738 24.02904609 0.00071824 -0.00588388 -0.00197844
N 2.67244207 20.90809350 7.04884065 -0.00475177 0.00447917 0.00393619
N 18.27218907 7.94199436 21.48527888 -0.00254150 0.00135536 -0.00257068
N 6.73214765 23.10695707 11.97908283 0.00152940 0.00078289 -0.00211310
N 2.02947848 19.96325411 14.30365535 -0.00539574 0.00390528 -0.00572323
N 21.78061048 19.32695640 16.98409873 -0.00595239 -0.00361705 -0.00005028
C 8.16972281 29.81920285 11.66857708 -0.01347248 0.00112108 -0.00369942
C 1.62072057 30.56147896 10.28116166 -0.00509056 0.01625119 0.00339851
C 23.14951144 22.06177768 28.17990272 0.00519191 -0.01071247 -0.01293376
C 2.38261767 6.51883276 11.87533530 -0.00062729 0.00270942 0.01333997
C 20.48375610 8.91389162 3.52009297 -0.00636499 0.00542084 0.00240413
C 23.18028651 18.79054360 24.92540804 -0.00269915 0.00505144 0.00381571
C 10.37756683 22.24993992 18.15543745 0.00855454 -0.00748957 0.00530952
C 0.37850856 30.67667809 6.27679876 0.00569330 0.00912094 -0.00803254
C 7.72864270 28.55363647 11.67729263 -0.00370128 -0.00685840 -0.01051121
C 2.53937534 29.55655931 10.23902621 -0.00764573 -0.01921984 -0.00846463
C 0.50232597 22.91312213 28.24063403 -0.00011143 0.00260888 0.00054579
C 3.65051354 6.10650313 11.75145572 0.00143207 -0.00164214 0.00591639
C 20.29990380 10.09448719 2.89621496 -0.00176097 -0.00380253 -0.00059286
C 22.74557355 17.53802605 25.30246403 0.00465935 0.00027335 -0.00523286
C 10.08614701 21.26019960 19.11127469 -0.00303459 -0.00148062 -0.00611331
C 1.50864404 0.50564730 5.85995200 0.00417980 -0.00353175 -0.00374847
C 6.48925854 28.27930432 12.22938759 -0.01266491 0.00661870 0.00835441
C 3.86418517 29.74187180 9.89746479 0.00124213 0.00049587 -0.00465634
C 1.84666799 22.46310798 28.15127698 -0.00111946 0.00005607 -0.01518322
C 4.17286150 5.56736517 10.51907011 -0.00363893 0.00058378 -0.00344721
C 20.93506433 11.26529366 3.35030487 -0.01020545 0.00169139 -0.00105825
C 21.52400719 17.05621635 24.90009146 0.00549576 0.00290435 0.00244879
C 10.01675702 19.89902712 18.68465195 -0.00014355 0.00340565 -0.01070783
C 2.67973294 30.57718918 5.67676274 0.00134183 -0.00607869 0.00097835
C 5.70419694 29.33074957 12.64860972 -0.00026540 0.00562837 -0.00364899
C 4.20530502 0.25335158 9.45287809 0.00159603 0.00473659 0.00145144
C 2.05640974 21.06973211 27.85596215 0.00057809 0.00065947 -0.00120686
C 3.36988446 5.71310891 9.33260240 -0.00324475 -0.00619715 0.00576905
C 21.84491507 11.11223615 4.36003061 -0.00407462 0.00530277 -0.00552137
C 20.75532419 17.78385772 23.95522827 -0.00459642 0.00178862 -0.00553966
C 10.37826198 19.58688458 17.40610092 0.00458749 0.00487508 0.00214288
C 2.79246985 29.25892565 6.06736542 -0.00178270 -0.01371889 -0.00216916
C 6.11489305 30.60682131 12.59590526 -0.00102423 0.00650286 -0.00203339
C 3.35230642 1.26221491 9.56629769 0.00257360 -0.00267084 0.00417060
C 1.03885526 20.20444538 28.04460598 -0.00110885 -0.01096780 0.00502531
C 2.19484615 6.39774813 9.39158840 -0.01312698 -0.00827491 0.00288972
C 22.03976440 9.92567404 5.02532728 0.00209276 0.00174843 0.00597959
C 21.12169821 19.06555584 23.69196066 -0.00812269 -0.00339610 0.00522491
C 10.65349234 20.55792622 16.35016118 0.00654641 0.00151351 0.00926992
C 1.59356837 28.56262460 6.35665900 0.00138461 -0.00479990 0.01321561
C 7.39436364 0.05554092 12.16319854 0.00164910 -0.00908927 -0.00150961
C 1.97158945 1.02714080 9.74310119 -0.00379393 -0.00231656 0.00076962
C 23.42657934 20.61461192 28.15089390 -0.00241976 -0.00243959 -0.00317082
C 1.60133696 6.68302236 10.70295385 0.00147798 0.00313593 0.00088644
C 21.22609559 8.79565599 4.67561568 -0.00601357 0.01193840 0.01243832
C 22.36580878 19.62290204 24.11834528 -0.00188853 0.00003425 -0.01071169
C 10.51171185 21.90327457 16.81892563 0.00738469 -0.00723720 0.00978642
C 0.41194693 29.32886400 6.57509129 -0.00429963 -0.00363006 -0.00275183
C 7.25506319 2.42659811 11.78817792 -0.00197153 -0.00177945 0.01588405
C 23.51204074 1.98072932 10.07580126 0.00264962 -0.00207856 0.00929020
C 22.37545743 18.44891270 28.52452955 0.00289944 0.00267120 -0.00505563
C 23.40374315 7.37417024 11.89922029 0.00566690 -0.00151404 -0.00243151
C 22.12511431 7.19086434 6.26732102 -0.00006703 0.00680775 -0.00672077
C 0.33085695 21.23970105 23.84868118 0.00483761 -0.00142996 -0.00475581
C 10.61826854 22.68469240 14.43093067 -0.00181135 -0.01136497 0.01169293
C 22.33364780 27.56192818 6.66618329 -0.00380992 0.00011628 0.00510334
C 21.94908655 25.47600221 20.40883279 0.00221157 -0.00131002 0.00287146
C 22.86732106 3.31475285 10.22144482 0.00160979 -0.00606388 -0.00335949
C 7.14962598 29.73506866 7.42001648 -0.00923166 -0.00631236 -0.00233366
C 13.63794097 4.90229002 27.62372550 0.00335954 0.00719678 -0.00495200
C 5.78026683 7.22321087 25.34829814 -0.00082821 -0.00561751 -0.00656690
C 0.64138659 22.75692952 23.97204078 0.00097170 -0.00267941 -0.00621579
C 7.45188136 24.38481192 27.62349827 -0.00419003 -0.00240360 -0.00287165
C 7.60049327 8.40677561 12.83786870 -0.00516140 -0.00233701 0.00655199
C 10.89395531 2.14650025 14.91233231 -0.00679146 -0.01077401 -0.00168862
C 4.60344352 8.51338180 0.76333645 -0.00519225 -0.01125049 0.00280833
C 2.06204269 11.44435891 25.54133430 0.00204452 0.00223287 0.00263805
C 11.00206536 8.00131572 25.07086115 -0.00276372 -0.00610946 -0.00283952
C 19.25480232 16.39047782 4.11396700 -0.00161923 -0.00267162 -0.00049749
C 10.51060665 11.52649420 12.28398740 0.00070604 -0.01145473 -0.00652000
C 10.46995369 22.46901615 23.92850201 0.00013385 -0.00169575 0.00280640
C 9.92450478 8.86797818 16.68788404 0.00071383 0.00013196 -0.00509225
C 10.24721806 3.36396251 14.75012723 0.00587523 0.00873814 0.00005896
C 5.82479457 7.88934776 0.52698829 0.00102376 -0.00530134 0.00587210
C 2.81773065 10.26276529 25.41607885 0.00308312 0.00279717 -0.00045127
C 10.49325992 8.44619352 23.91375992 -0.00181006 -0.00204858 -0.00749346
C 20.22018229 15.63659687 4.74884034 -0.00085305 0.00085023 -0.00413594
C 9.55865866 11.82781992 11.32715072 -0.00520318 0.00498989 -0.00274213
C 11.72961706 22.84132901 24.37147240 0.00143866 0.00150029 0.00745574
C 10.44768129 9.03921149 17.94819142 0.00288925 0.00001113 -0.00764611
C 8.77075111 3.63448007 14.82151989 -0.00151888 0.00465647 -0.00211967
C 6.70498843 8.40214392 28.89155683 0.00904327 0.00313218 0.00515213
C 2.35901538 8.94807371 25.73126643 -0.00259666 -0.00309685 0.01295278
C 10.60606359 7.82931037 22.66599186 0.00266510 0.00065445 -0.00266566
C 19.99650193 14.24153446 5.00812839 -0.00261007 0.00709734 0.00106049
C 8.50524076 12.75731086 11.51708584 0.00264154 -0.00368286 0.00408612
C 12.04644936 24.22174354 24.62359991 0.00468779 0.01447836 0.00170504
C 9.97673000 10.04410631 18.84377197 -0.00464848 -0.00812306 -0.00127401
C 8.03771165 2.47632805 14.91045654 0.00782032 -0.00844651 -0.00557367
C 6.37919563 9.56444195 28.14255837 0.00184628 -0.01018251 -0.00214271
C 1.14527929 8.89021997 26.38320013 0.00377021 0.00382610 0.00237735
C 11.36169140 6.68565202 22.60534349 0.00011793 0.00550051 0.00144574
C 18.76542538 13.62318773 4.52362862 0.01328818 0.00704898 -0.00356991
C 8.39544896 13.23143569 12.81470813 -0.00506583 -0.00069303 0.00203413
C 11.03445351 25.16001339 24.33540216 -0.00243397 0.00605935 0.00810394
C 8.66117850 10.47275320 18.47132123 -0.00016384 0.00512909 -0.00500567
C 8.65811311 1.20623194 14.86292740 -0.00476757 0.00325900 0.00002819
C 5.11975374 10.15981427 28.31234891 -0.00125070 0.00090703 -0.00068764
C 0.47031716 10.13848729 26.76076139 0.00594622 -0.00864132 0.00499886
C 11.89258552 6.03100064 23.65829515 -0.00184464 -0.00826224 -0.00725685
C 17.81241564 14.37877768 3.81259529 -0.00427755 0.00778864 0.00089084
C 9.38793478 12.91695554 13.80063204 -0.00075587 -0.00201246 0.00266219
C 9.88051135 24.76054037 23.73487261 0.00060018 0.00489571 0.00327305
C 7.98596361 10.11374242 17.34390630 -0.00473502 0.00341170 0.00060383
C 10.02443836 1.01984878 14.81423286 0.00107539 -0.00696290 -0.00518033
C 4.10768349 9.57449247 29.13607969 0.00014452 -0.00271414 0.00638294
C 0.77611197 11.34417108 26.17648160 -0.00385137 0.00463803 0.00313639
C 11.67040408 6.69295284 24.92712106 -0.00704093 -0.00922065 0.00278959
C 18.04714047 15.80145845 3.56891759 -0.00502017 -0.00397109 -0.00096531
C 10.48941372 12.17360472 13.52043560 0.00757298 0.00162112 0.00025097
C 9.64146353 23.41578506 23.37511169 0.00160709 -0.00067240 0.00176072
C 8.62393645 9.24960495 16.33887589 -0.00098607 0.00608047 0.00082770
C 10.01302018 29.43699347 14.36300915 -0.00700203 -0.00002257 0.00285122
C 2.42136920 11.23884876 0.22575373 0.00496915 -0.00130934 0.00698591
C 23.52494394 13.59854351 25.86968091 0.00079569 0.00275951 -0.00790625
C 12.74610212 5.00646873 26.34856215 -0.00590430 -0.00271363 -0.00124382
C 15.80653552 16.80460203 2.88839829 -0.00570150 -0.00370463 -0.01034988
C 11.56428292 12.40575618 15.74534062 0.00697417 0.00507034 -0.00072225
C 7.65441548 23.91379469 21.90461228 0.01118182 0.00862018 -0.00355810
C 8.39278047 8.24783614 14.10827512 0.01393629 -0.00263831 0.00421576
C 14.44306656 21.01119980 9.98084596 0.00585176 0.00308685 -0.00369288
C 1.13857021 11.39123137 1.05559663 -0.00551237 0.01016466 -0.00505650
C 15.91427331 30.64767430 18.69162803 -0.00230139 -0.00758561 -0.00687722
C 21.89479875 7.32873223 11.78173975 0.00066452 -0.00691494 -0.00259715
C 22.54123368 1.36215979 18.28484417 -0.00096930 -0.00067993 0.00566130