1920
Time=24000.00000000 pbc="T T T" Lattice="25.00988356 0.00000000 0.00000000 0.00000000 29.39542095 0.00000000 0.00000000 0.00000000 28.93954989" energy=-12187.55051905 virial="-170.77833681 -0.48873062 5.73639223 -0.48873062 -114.65967479 -19.06401433 5.73639223 -19.06401433 -134.90083793" stress="-0.00433601 -0.00012449 0.00021670 -0.00012449 -0.00192207 -0.00101019 0.00021670 -0.00101019 -0.00292490" Properties=species:S:1:pos:R:3:vel:R:3
O 2.23500038 25.47588213 11.73191391 0.01365413 0.00070404 -0.00331824
O 4.52308343 27.61469133 7.21097377 0.00131947 -0.00619531 0.00688331
O 24.98090847 19.82671711 24.75328755 -0.00262620 0.00334593 0.00223598
O 6.31388174 2.62222119 8.67903293 0.00100839 0.00632292 -0.00520704
O 23.11248062 11.38724500 1.40077571 -0.00462942 0.00159716 0.00200832
O 22.69915240 14.22261387 24.43639231 -0.01292920 0.00103067 0.00228472
O 9.86933810 20.74778016 20.01730618 -0.00439885 0.00069803 -0.00276947
O 3.43663326 1.66102836 2.40734170 0.00457461 0.00468946 -0.00570211
O 7.79392330 29.01122777 15.94743553 0.00646590 -0.00011742 0.00492705
O 24.94199651 2.15650849 8.61003051 0.00076190 -0.00575308 0.00227317
O 21.44261004 18.27273450 0.80900366 0.00123687 -0.01026287 -0.00557126
O 11.47060613 5.02800011 25.14671028 0.00615039 0.00113054 0.00506763
O 17.24142291 17.08624735 2.60160476 -0.00834906 0.00989454 0.00462437
O 0.89491265 19.02830023 22.11579459 0.01105466 -0.00548487 -0.00256115
O 11.73785967 19.17230556 14.39651734 -0.00288049 0.00394693 -0.00118937
O 8.10817538 5.65729222 13.90058135 -0.00288429 0.00090578 0.01039607
O 10.22069356 4.71241851 13.20351642 0.00335230 0.00695876 -0.00008534
O 9.17843769 6.03507241 1.37120238 -0.00615008 -0.00466852 -0.00274556
O 5.71187126 8.39619005 27.34158290 -0.00544715 -0.00217877 -0.00098917
O 10.99812963 9.01295931 19.70390442 0.00270471 -0.00354087 0.00163005
O 22.40694450 12.10723018 4.61692245 0.00657720 0.00540524 0.00227263
O 7.33852891 12.52178490 9.99148283 0.00312016 -0.00431961 -0.00177222
O 13.71417317 24.57814290 26.38970722 -0.00003041 0.00024442 -0.00645411
O 9.07191939 9.92669009 18.41286098 0.00070175 0.00101640 -0.00022984
O 6.36232855 0.62031036 10.08522658 0.00219832 0.00231741 0.00752616
O 5.78396652 11.64212277 0.72266442 -0.00090126 -0.00386070 0.00432883
O 24.21185281 11.71896079 25.04242130 0.00375876 -0.00325512 0.00006355
O 1.93904032 4.64655480 12.51545817 0.00287535 0.00387738 -0.00423436
O 1.38113166 10.56201995 6.70910314 -0.00425198 -0.00796045 -0.00081286
O 9.59371126 12.30312798 15.91320534 -0.00322743 0.00221351 -0.00242659
O 9.25790930 23.86713490 21.94089390 -0.00234063 0.00316841 0.00696445
O 0.06179733 26.07729853 4.36201877 -0.00417230 -0.00212315 0.00441297
O 15.40148436 24.77944411 5.26702129 0.00576594 0.00397697 -0.00113652
O 3.64257480 25.22438129 7.96255500 0.00008058 -0.00424650 0.00204010
O 12.16439395 23.20675346 11.66644457 0.00289706 -0.00561460 0.00769715
O 3.39458707 16.40876423 20.20128073 -0.00239928 0.00320990 -0.00175577
O 1.11076298 24.51695225 18.70801480 -0.01057785 0.00885004 -0.00034491
O 17.98836785 26.05299689 0.65976126 -0.00151388 0.00643694 0.00143329
O 6.31770727 24.75493600 3.35741520 -0.00079657 0.00145641 -0.00307089
O 6.19571867 1.21387747 25.63888212 0.00111097 0.00208419 0.00075140
O 23.13230386 24.37188302 21.62035016 0.00491959 0.00364192 0.00196130
O 7.48221911 23.40424488 12.71009751 -0.00565164 -0.00041324 -0.00514547
O 7.74302102 24.94291742 7.56466129 -0.00121803 0.00430363 -0.00212310
O 2.33691621 23.30337299 28.74386096 -0.00309049 -0.00407538 -0.00102045
O 11.09095911 9.68032786 26.13289263 -0.00336941 -0.00595832 -0.00089983
O 19.35006355 24.38958701 6.48844998 0.00377560 0.00052364 -0.00022575
O 6.80839668 22.20017168 26.37240836 0.00614302 -0.00527962 0.00220319
O 22.20706197 0.15099592 22.59680210 -0.00705719 0.00162002 0.00256812
O 19.02652507 20.81084350 24.56476432 0.00054434 0.00693585 -0.00013950
O 22.47481758 23.56230693 28.79223351 0.00585761 0.00985785 -0.00589326
O 20.07775012 2.30090697 22.25776331 -0.00048266 -0.00573374 0.00151448
O 5.79060919 28.55357677 27.29823996 0.00514269 -0.00002796 0.00590191
O 6.57647061 4.16313137 24.71340486 -0.00310949 0.00181081 0.00598986
O 24.30572440 23.35822157 24.68379698 0.00789199 -0.00467902 0.00601299
O 22.86500245 14.81834538 15.02911691 -0.00389122 0.00095541 -0.00420922
O 22.68008801 25.98799000 27.90090772 0.00636427 0.00250741 0.00123070
O 16.28088123 22.83033702 11.31952238 0.00000708 0.00492377 -0.00266567
O 3.50968992 24.68901556 2.75391096 0.00805356 0.00777268 -0.00014105
O 15.68365793 27.72006017 17.59717851 0.00102723 -0.00627374 -0.00506908
O 20.99998698 14.72084527 20.71485870 -0.00588806 0.00508319 -0.00060381
O 3.42494230 0.37329638 16.64904477 0.00763244 0.00284934 -0.00315987
O 0.92483212 28.57455285 21.02106390 0.00231137 0.00350986 -0.00040445
O 3.97608705 14.17789163 13.72804194 0.00020566 -0.00191735 0.00590245
O 0.70643719 4.36034753 26.54786341 -0.00527329 -0.00139649 -0.00143049
O 4.95292622 13.62093697 27.96757405 -0.00102085 0.00033706 0.00475766
O 5.23090869 1.33523904 4.48620313 0.00342608 0.00161408 0.00283893
O 16.46623891 8.14144147 23.02613125 0.00222631 0.00047999 0.00603540
O 13.34337955 11.11219619 10.12456349 -0.00035225 0.01033971 0.00003869
O 12.86969436 7.87080210 2.39312185 0.00457770 0.00348265 0.00041949
O 16.39973466 10.29835758 7.53524606 -0.00023944 -0.00628731 -0.00858706
O 14.65077865 6.60486893 12.57316087 -0.00006985 0.01128985 -0.00268440
O 20.75311458 13.10475758 11.31336540 -0.00077353 0.00218412 -0.00665799
O 20.55654072 4.99613761 19.24567223 -0.00504516 -0.00380635 -0.00056797
O 7.49062596 7.33854996 4.14145578 -0.00403866 -0.00521195 -0.00232754
O 18.74563936 11.23220047 28.22350990 0.00593059 0.00026668 -0.00389046
O 2.57035890 9.17493092 3.50707370 -0.00683968 -0.00313687 0.00139664
O 6.07526649 17.42189192 26.67539801 -0.00399255 0.00596454 0.00337428
O 22.28444230 12.82810283 7.46318535 0.00326159 0.00330059 0.00055806
O 14.05871637 2.55247299 7.46866327 0.00354895 -0.00131705 -0.00877871
O 21.59146049 3.40395720 2.77893390 0.00597075 0.00246266 -0.00439677
O 24.81281399 1.16622599 22.30684403 -0.00075743 -0.00245459 -0.00842350
O 3.64080138 10.68611521 22.15311962 -0.00135868 0.00143191 0.01393750
O 9.20653515 14.38758686 17.33352570 0.01188715 -0.00226670 -0.00034821
O 24.47191956 5.91278265 27.93141588 -0.00370633 0.00653654 -0.00262773
O 3.38965820 18.72739398 20.92442314 0.00317115 0.00038175 -0.00323844
O 15.36939096 0.01133174 15.61846702 -0.00494429 -0.01046227 0.00133536
O 11.19833488 27.31020444 19.85566453 -0.01091062 0.00516667 0.00692127
O 17.05403117 6.62532176 28.69694749 -0.00918398 -0.00301749 0.00044246
O 3.99066878 13.35494267 21.83010147 -0.00183075 0.00072194 -0.00086208
O 5.21981470 5.28402672 18.93135352 0.00018971 -0.00108939 -0.00470585
O 9.60525304 11.59023876 23.31471510 -0.00346151 0.00750040 0.00439081
O 16.98152512 12.59142803 16.66660497 0.00483497 -0.00627729 0.00415647
O 15.16464159 13.09260987 26.27021273 0.00935296 -0.00166971 -0.00360677
O 13.05468167 5.47913900 14.36658977 -0.00353899 0.00564093 -0.00483594
O 10.97442985 5.02770390 16.38947311 -0.00010876 -0.00075372 -0.00137964
O 16.69005163 15.30496122 6.84021848 -0.00362308 -0.00134599 0.00394685
O 6.03958032 13.16591233 3.38297266 -0.00307646 -0.00538095 0.00966790
O 10.61202814 13.20253542 7.36193097 0.00329582 0.00277015 0.00173589
O 14.86141700 6.78927601 3.85686679 -0.00512101 0.00101509 0.00343907
O 5.43916112 14.80860333 11.86571306 -0.00539253 0.00156839 -0.00542478
O 11.80449064 2.04414274 8.54480168 0.00675377 0.00723007 0.00421696
O 14.36703710 23.62659280 12.80784837 -0.00821659 -0.00066447 0.00158593
O 9.48635125 17.90483130 13.51874186 0.00032580 -0.00658591 -0.00198580
O 13.34819928 18.26406631 8.25488043 0.00289504 0.00074711 0.00055463
O 16.33136168 20.62512805 18.19461761 0.00221253 0.00807963 -0.00166919
O 6.29664493 7.05029388 7.30851485 0.00014845 -0.01059644 -0.00629915
O 12.74208302 8.75995375 9.60255289 -0.00003780 -0.00848140 -0.00753334
O 7.49541046 2.88144378 27.28441993 -0.00303159 0.00171036 -0.00309090
O 9.09586725 26.01627072 23.13977598 0.01175272 0.00155294 -0.00225399
O 12.39486684 25.55081151 18.45677796 0.00233112 0.00290136 0.00662040
O 6.33221321 19.59476460 8.19393690 0.00657616 0.00228149 0.00895898
O 12.75473187 17.00645355 18.90837331 -0.01202912 0.00109253 -0.00230785
O 18.40915487 14.89889955 19.95032792 -0.00212413 -0.00114972 0.00230368
O 4.21676866 4.67120018 13.94416369 0.00889369 0.00042371 0.00195006
O 19.55450406 23.86182503 13.65325964 -0.00637131 -0.00621756 -0.00246857
O 12.73673315 26.91991283 26.18418007 -0.00071287 -0.00091666 0.00230734
O 9.78448227 4.29070041 23.41243515 -0.00185076 0.00950572 0.00321818
O 16.58658940 21.70029412 24.77938423 0.00487334 0.00194546 0.00010183
O 13.16921822 16.20040667 16.61274710 -0.00273223 0.00916212 0.00454344
O 14.55642019 21.48326511 23.18355396 -0.00306771 -0.00064950 -0.00235203
O 11.48381800 9.81298216 3.72850966 0.00981584 0.00271455 -0.00024701
O 4.58549468 10.59388527 15.82939883 -0.00134182 0.00506152 0.00884676
O 15.45756612 0.69229664 12.10470642 -0.00250790 -0.00733615 0.00120744
O 4.67166971 13.62528627 5.60064213 -0.01007317 -0.00611261 -0.00542034
O 11.67645118 26.42881538 12.47431218 -0.00755994 0.00664138 -0.00000806
O 15.15441261 23.99766667 2.82032188 0.00657816 -0.00593022 0.00586559
O 12.14692499 17.05064533 10.19269572 0.00055244 0.00089874 0.00049515
O 8.98672682 21.02076439 4.19928016 -0.00207508 -0.00645911 -0.00174011
O 24.97135973 25.30525237 10.71974739 0.00058410 -0.01082851 0.01024265
O 24.82366178 11.23284123 19.15670239 0.00004225 -0.00624140 -0.00223895
O 5.19835573 0.56984289 0.71925379 -0.00279997 -0.00747705 0.00095155
O 17.16923437 11.90878270 1.36450289 0.00211790 0.00364699 -0.00025218
O 15.83947418 18.68789850 7.98621781 0.00744223 -0.00448794 -0.00140368
O 6.13113493 16.93049250 0.25091970 -0.00675726 0.00238115 0.00321282
O 22.26155762 2.33748872 4.93834062 -0.00531790 -0.00328565 0.00503008
O 20.46934139 28.14820759 3.53137148 0.00156022 0.00494114 0.00481163
O 4.03264200 24.13413633 17.39163118 -0.00275829 0.00001615 -0.00004804
O 24.64275515 5.23709284 17.24802943 0.00679327 0.00055226 0.00704623
O 10.01073877 0.22005380 4.87864049 -0.00397605 -0.00395623 0.00049719
O 19.34661915 17.58967995 26.20780728 0.00417932 -0.00668403 0.00385191
O 21.34742000 7.00658916 20.50803979 -0.00454022 0.00007369 0.00451602
O 23.86748698 14.26540791 1.32324693 0.00379340 -0.00865269 0.00391215
O 18.67861268 4.02632991 11.35723213 0.00422764 0.00569530 -0.00185918
O 21.94785655 10.93738849 21.95047677 0.01067181 -0.00143847 -0.00023947
O 7.48872375 29.25410430 18.46715919 -0.00135822 -0.00628016 -0.00532602
O 12.04465406 16.15428708 26.10731890 0.00627380 0.00768523 -0.00334769
O 17.34248247 6.07610878 26.15657318 0.00085533 -0.00323879 0.00214198
O 16.27284198 14.35231114 21.68143031 0.00022778 -0.00161757 -0.00292694
O 19.47213977 12.42213014 17.42517535 0.00634018 -0.00683375 0.00520627
O 4.51864799 2.27360037 17.72194959 -0.00363806 0.00339648 -0.00170802
O 22.87745033 14.49693604 10.08624356 -0.00984876 -0.01072067 -0.00005918
O 24.42303073 5.60679431 23.92849489 -0.00547749 0.00505262 -0.01604579
O 19.02105828 29.36692124 8.08571776 0.00739544 -0.00229487 -0.00803240
O 9.55339194 18.51946858 20.77267698 -0.00494514 -0.00716572 -0.00324044
O 15.52902550 29.38948295 26.24142393 0.00583818 0.00692954 0.00039605
O 20.95802398 7.34782445 3.83183078 -0.00470369 -0.00888881 -0.00190980
O 19.37082372 15.86117045 13.19762992 0.00604642 0.00401082 -0.00163607
O 1.54977642 5.51446428 22.51043108 -0.00228484 0.00215508 0.00064475
O 3.55932704 17.36804334 11.35190043 0.00060211 0.00048341 -0.00175237
O 0.73339237 27.34763730 0.28592434 0.00582175 -0.00000100 -0.00051982
O 20.10264593 18.90845887 6.03747450 0.00233666 -0.00500763 -0.00321388
O 21.09885726 21.53226894 13.97397252 -0.00335188 0.01402765 0.00272559
O 17.97755570 28.22715145 2.43657903 -0.00295086 -0.00169217 0.00066357
O 0.35199262 0.30509109 12.78150907 -0.00038739 0.00813080 0.00212209
O 20.38738257 0.23555034 16.87189147 0.00234733 0.00038000 0.00494058
O 7.81936866 20.39527070 1.85678889 -0.00270379 -0.00607101 0.00050266
O 12.21857779 15.49927526 28.68131373 0.00570813 0.00630091 -0.00016968
O 9.77363937 21.92543182 0.61918133 0.00077396 0.00298251 -0.00428771
O 21.29609895 10.88727607 12.70588887 0.00441909 0.00002489 0.00228954
O 21.78057936 19.77479193 7.72800293 0.00430735 -0.00486691 -0.00820463
O 14.89519515 4.56262548 2.56560896 -0.00026179 0.00009545 -0.00614951
O 2.48862821 19.01032686 5.80426733 -0.00362911 -0.00417987 0.00982477
O 18.97513771 27.23698377 27.53279317 -0.00402639 -0.01002694 -0.00457607
O 1.75864023 20.23443448 0.40493784 -0.00188253 0.00283417 -0.00715882
O 10.07647103 15.18293385 5.70164440 0.00384833 0.00695014 -0.00267821
O 21.99176141 17.31472139 16.11732860 0.00036631 -0.00529647 -0.00301011
O 17.31344628 6.05268394 12.86634933 -0.00193652 0.00561787 0.00145922
O 16.68623340 1.04020331 8.22519149 -0.00361368 0.00708331 -0.00581256
O 17.92542298 22.46431804 19.04154340 0.00126580 0.00842073 -0.00685344
O 24.20821235 22.97300287 9.71643766 0.00095573 0.00088528 0.00050910
O 19.76752450 5.15141510 26.42510780 0.00093161 0.00400520 0.00849146
O 6.93453512 15.51390951 17.94205877 -0.00206968 -0.00662435 -0.00740756
O 16.48974527 3.08830038 20.86824070 -0.00157253 -0.00955074 0.00679378
O 21.82284900 23.54851104 16.77567166 -0.00423909 -0.00194709 -0.00626636
O 21.68204581 21.00489812 0.00507510 0.00786150 -0.00314355 0.00362906
O 11.42244379 28.11620353 6.07812591 -0.00940643 -0.00080568 0.00015025
O 15.69274733 24.72282299 24.61190206 -0.00231557 0.00567012 0.00481644
O 20.33976858 2.57318670 15.74755324 -0.00205786 0.00780085 0.00167060
O 23.76012694 24.60285740 15.54669878 0.00036800 0.00267783 0.00489019
O 7.90162740 21.45039069 16.32988543 0.00006831 -0.00439874 0.00135829
O 15.10698860 9.34928739 20.98485279 -0.00533427 0.00226146 -0.00583360
O 15.10870365 18.92516850 2.43692303 -0.00066144 -0.00071292 -0.00486826
N 17.02496143 21.49075629 9.50157890 -0.00438171 0.00038359 0.00521025
N 1.81174773 2.94954551 7.45649005 -0.00264297 -0.00450644 0.00091405
N 9.79535927 26.01682460 7.58002092 0.00304878 -0.00035784 -0.00412112
N 2.51667430 5.97531825 10.82878158 0.00173682 0.00102505 -0.00092777
N 2.11482466 28.57411305 15.12649197 0.00164318 0.00137609 0.00854382
N 23.59221723 19.03684593 21.81053031 -0.00532082 -0.00728045 0.00007109
N 7.99823312 23.98499594 27.12457160 0.00133106 -0.00518015 0.00971236
N 24.97971558 28.03009606 5.59287994 -0.00803763 -0.00168910 0.00100485
N 21.53791889 23.20729160 20.32396765 -0.00165912 0.00640047 -0.00415497
N 4.90189254 9.62229150 1.19145404 -0.00635643 0.00101872 -0.00120171
N 16.85308479 28.12816215 19.48790486 -0.00546129 0.01209356 -0.00256430
N 12.88554518 6.59855904 24.24367299 0.00093888 0.00206797 0.00661244
N 9.18054314 9.11552705 24.95025837 -0.00768578 0.00568236 0.00282241
N 10.37925279 10.81864387 14.36868983 0.00171994 0.00316186 0.00170959
N 3.24009919 13.75104539 15.80232912 -0.00030877 -0.00366514 -0.00250520
N 8.10507105 7.89312125 13.33075755 -0.00221784 0.00384461 -0.00778906
N 6.44573546 29.32032413 12.26433134 -0.00787365 -0.00434061 -0.00375612
N 6.19311994 21.76304422 11.68983731 -0.00132948 -0.00025578 0.00357051
N 22.61025614 16.58360267 28.62676387 0.01041001 -0.00113266 -0.00061112
N 22.91825376 15.72745386 19.78183928 0.00618769 0.00767800 -0.00312883
N 24.86828500 8.99802461 6.15030399 -0.00560197 -0.00016607 0.00822307
N 20.80245101 23.55680770 4.93499510 -0.00184296 0.00222024 -0.00788739
N 11.75485701 21.47154912 14.86685729 0.00535370 0.00547781 0.00670558
N 0.97131758 2.79207152 24.88337016 0.01162621 -0.00899293 -0.00331581
N 9.86977909 28.93630590 15.14355839 -0.00986265 -0.00390317 0.00412343
N 1.53478548 23.87129324 3.60078282 0.00025840 -0.00375118 -0.00822330
N 0.69852305 10.36492330 25.83206632 0.00905304 0.00497108 -0.00330105
N 2.60204295 23.85405389 26.57104057 -0.00554353 -0.00448681 -0.00140365
N 18.58080163 16.09911327 4.07508596 -0.00278620 -0.00813145 -0.00384456
N 2.43749948 27.01996140 21.70494371 0.00452694 0.00655695 0.00742561
N 9.47378514 22.16851862 23.52041996 -0.00931399 0.00484720 -0.00116738
N 21.23163812 27.59038697 22.68694834 0.00682163 0.00441155 -0.00725930
N 11.52087105 11.91364949 2.75988417 0.00461402 -0.00017675 -0.00469642
N 8.54775888 5.62188596 5.29438540 -0.00317565 0.00270657 -0.00871021
N 12.64588404 6.61492305 8.87277410 0.00821713 -0.00262455 0.00251958
N 16.01619673 11.38433127 15.04843323 0.00036025 0.00751748 -0.00216663
N 9.82671520 26.91553024 11.28040040 0.00726818 0.00699520 0.00159436
N 21.91649941 10.75539636 8.40344501 0.00052362 -0.00595601 -0.00152097
N 8.39151746 20.33568338 8.61978658 -0.00087018 -0.01500600 0.00301017
N 15.94061360 13.90215211 8.53799412 -0.00430195 0.00394553 -0.00448947
N 15.01964629 18.79340020 17.87590737 0.00462536 0.00594341 -0.00913736
N 6.66060622 7.04471249 19.02361280 0.00007452 0.01136318 0.00620562
N 15.99337556 27.94465828 12.36727815 -0.00234663 0.00054080 0.00235762
N 2.93415257 6.89998651 3.25666941 0.00360444 0.00100209 0.00207745
N 9.98772153 28.02268279 23.11182079 -0.00175920 -0.00553958 -0.00267313
N 14.51566139 5.32886676 16.15845401 -0.00166482 -0.00021867 -0.00128723
N 11.12402084 15.30713218 11.42763223 -0.00377189 0.00285335 -0.00473640
N 22.09365811 5.15922554 1.34706791 0.00639617 -0.00269910 0.00370867
N 6.24009557 13.55566063 22.49828053 -0.00541171 0.01149517 -0.01095365
N 8.18656308 8.26346127 7.58462744 0.00060630 0.00138915 0.00231330
N 18.34394823 12.37243750 26.30379399 0.00227480 -0.00982635 -0.00564738
N 3.89144220 12.21869261 7.22587827 -0.00051879 0.00649889 0.00087395
N 14.97606892 11.00703036 27.14097555 0.00347777 -0.00626703 -0.00429250
N 14.65833989 25.21880072 18.19347400 0.00001946 -0.00152873 0.00238300
N 15.21191204 4.59114711 7.35747604 -0.00191232 0.00401760 -0.00566502
N 10.62902233 22.14840560 5.27432750 -0.00406255 -0.00109215 0.00110296
N 22.30307470 4.07314565 18.13859243 0.01109593 0.00586252 0.00261804
N 3.11623825 9.21078802 16.85430429 -0.00602464 0.00237614 0.00704073
N 10.89091997 13.37057203 22.62631478 0.00839322 -0.00510487 0.00149506
N 8.78771015 1.03001855 27.53599374 0.00976902 -0.00380060 -0.00617974
N 6.08201687 19.44579631 25.60527926 0.00920675 -0.00464211 -0.00082139
N 15.38711747 22.63192260 1.11521966 0.00287811 -0.00988857 0.00593008
N 11.41627099 2.85648669 16.95141554 -0.00138235 -0.00277857 -0.00570593
N 14.42156689 16.76607230 20.36321484 0.00239157 -0.00236326 0.00404917
N 19.56398596 20.87502584 0.94144571 -0.00832555 -0.00130665 -0.00439930
N 0.40866002 6.75900581 15.80630630 -0.00476896 -0.00219828 0.00623286
N 13.88707075 2.71655897 1.41699638 -0.00163405 -0.01154687 0.00160205
N 18.78264724 7.79005549 4.66119773 -0.00674383 0.00173148 0.00055296
N 22.85528566 25.74740435 13.79985829 0.01033925 0.00836022 0.00525643
N 0.96094772 15.07529786 1.62557221 -0.01266639 0.00138910 0.00989848
N 9.15534999 16.60895578 4.19642708 -0.00048337 0.00009413 0.01046586
N 0.38234579 0.07134328 1.20080260 -0.00335249 0.00399058 0.00109697
N 20.15188923 10.52469946 14.63724001 0.00974635 -0.00232366 -0.00145113
N 8.18170005 17.75296976 22.39016917 -0.00416158 0.00266981 -0.00469225
N 17.13464899 25.94241708 23.36314739 0.00273773 -0.00526210 -0.00337417
N 17.24556841 16.74546050 26.59123589 -0.00223145 -0.00458824 -0.00268298
N 19.63212116 29.09066101 26.58618309 -0.00195816 0.00094244 -0.00401772
N 3.67234649 4.75622416 22.46028108 0.01007392 -0.01595469 0.00156406
N 15.82947634 8.36987976 19.05273264 -0.00224944 -0.01158766 -0.00020210
N 21.94926424 10.61920711 24.17769927 -0.00460038 -0.00538128 0.00423218
N 20.77044888 28.54318838 9.28645218 -0.00102526 0.00195687 0.00373405
N 23.36692828 19.32596112 9.40029367 0.00518194 0.00333604 0.00058148
N 10.13215746 1.69600858 3.20992054 -0.01284549 -0.00806728 0.01136690
N 20.47778958 2.72434703 13.49624999 -0.00745574 0.00002868 -0.00328483
N 19.98881690 17.10165182 11.42241931 0.00151545 0.00082192 0.00600494
N 2.26722454 19.68468683 2.55556228 0.00078327 -0.00017634 -0.00688724
N 18.92302980 3.19390966 9.30028554 -0.01062678 0.00770449 0.00332837
N 13.82293146 20.27775093 3.94618533 0.01310940 -0.00284045 0.00334522
N 5.10445642 24.40769947 19.36757073 -0.00498747 -0.00294487 -0.00130594
N 13.43455105 27.22049192 5.06488484 0.00457611 -0.00195341 -0.00134869
N 15.31131970 1.35914055 24.40446500 0.00359172 0.00266780 0.00346820
N 1.97640130 18.42204056 8.01998235 -0.00149597 0.00090742 0.00503563
N 19.76086455 8.48639269 21.45521186 0.00523036 0.00285724 -0.00253735
N 5.76654584 20.68779255 16.12801434 0.00047946 0.00664570 -0.00106340
N 2.07090297 16.96515937 12.93546669 0.00803464 -0.00372294 -0.00538993
N 19.98239433 18.26111097 16.76421160 0.00125179 -0.00671674 0.00780744
C 4.28818895 28.59482106 11.32846070 0.00123226 0.00307325 0.00236447
C 1.74887388 0.45714511 7.62433025 0.00616649 -0.00839514 -0.00442332
C 24.49380750 17.00612694 27.15175655 0.00168779 0.00062711 -0.00644922
C 3.57688026 3.79059305 10.72024690 0.00001273 -0.00247015 0.00568546
C 23.34646513 9.05535474 4.27036811 0.00556660 0.00176097 0.00510159
C 24.48955954 16.87608367 22.55003068 0.00681096 -0.01272501 0.00207308
C 11.09383761 22.36792815 17.00259181 0.01172377 -0.00190681 -0.00191261
C 0.44157293 0.86377078 4.47111861 0.00956917 -0.00407028 -0.00256026
C 3.25153197 27.65689776 11.06433025 0.00306441 -0.00148927 -0.00206238
C 2.49046623 28.74959454 7.57686674 0.00616474 -0.00539759 0.00564919
C 0.05620244 17.76236790 26.05574261 0.00496864 -0.00034562 0.00841642
C 4.46905499 2.86668195 10.10728584 -0.00822449 0.00608843 0.00139922
C 22.97294443 9.56762638 2.99491333 0.00562505 -0.00011707 0.01270773
C 24.22991641 15.70054837 23.20230540 0.00593362 0.00208875 -0.01152838
C 10.74955141 22.23957488 18.34473687 -0.01373830 -0.00473793 -0.00526947
C 1.40689578 1.52147325 3.74936770 0.00363857 0.00027824 0.00251709
C 3.26517380 26.47639928 11.89989392 0.00224952 -0.00953840 0.00482860
C 3.88329834 28.70189142 7.26593999 -0.00024118 0.00249939 -0.00934878
C 24.54913509 19.00589802 25.86804242 -0.00094220 0.00557278 0.00427138
C 5.39683200 3.35114254 9.18566780 0.00357882 -0.00709709 0.00268605
C 23.56016166 10.73087218 2.52032452 -0.00738961 -0.00715655 0.01078591
C 22.90295380 15.35211976 23.63118075 0.00252980 0.00972938 -0.00929198
C 10.31007842 20.97857298 18.84555361 -0.00479749 0.00664907 0.00103476
C 2.53589612 0.90021282 3.08081866 -0.01070159 0.00279612 -0.00591896
C 4.27369322 26.35634307 12.84689617 -0.00001183 -0.00805950 0.00122258
C 4.51388129 0.59699286 7.07407247 0.01055603 -0.00505827 -0.00266990
C 23.58762350 19.53766387 26.69477243 -0.00614039 0.00325167 -0.01360055
C 5.23033802 4.70382567 8.69357838 0.00330519 0.00405914 0.00613502
C 24.71501305 11.20600781 3.21981868 0.00603905 -0.00323734 0.00279058
C 21.83022170 16.13446494 23.31240832 -0.00156000 0.01622858 -0.00119061
C 10.50595111 19.81019857 18.00289762 -0.01041684 -0.01195439 -0.00651642
C 2.65104639 28.96909184 3.25417772 0.00429134 0.00227106 0.00352992
C 5.43934202 27.13971193 12.80026623 0.01104605 0.00816167 -0.00344436
C 3.74973622 1.70860289 7.03731128 0.00201013 0.00534745 -0.00031924
C 22.81899739 18.67379047 27.49721032 -0.01067461 0.00075943 -0.00024802
C 4.33629113 5.61283628 9.32140967 -0.00413118 -0.00190264 -0.00538031
C 0.17266582 10.69291400 4.34968143 0.00233543 0.00228517 -0.00856215
C 22.09879169 17.39921912 22.75555526 -0.00680427 0.00393741 0.00271667
C 11.05401394 19.93819446 16.75157385 0.00585302 -0.00404017 -0.00546249
C 1.67726675 28.19176214 3.87451910 -0.00290856 0.00516766 0.00995765
C 5.39122679 28.32195389 12.02335751 -0.00438926 -0.00089790 0.00264746
C 2.41564104 1.69718696 7.42896948 -0.00357418 0.00610777 -0.00128708
C 23.26478157 17.43019404 27.70631607 0.00732349 -0.00825862 -0.00855201
C 3.49899626 5.07457498 10.26654969 0.00605423 -0.00545397 -0.00446696
C 24.45076011 9.61041795 4.95830745 0.00293268 -0.00871921 0.00404529
C 23.40474903 17.82473553 22.37949137 -0.00234946 0.00689072 -0.00139130
C 11.34016762 21.28167608 16.17682066 0.00600615 -0.00957386 0.00176953
C 0.68096508 28.84297822 4.65451695 0.00226656 -0.00260496 -0.00182706
C 6.69681331 0.82683060 11.33226872 -0.00806669 -0.00720241 0.01279832
C 0.49542419 3.08325523 7.97464591 0.00634678 -0.00087130 0.00153934
C 21.92224275 17.11506184 0.69769610 -0.00336340 -0.00087481 -0.00606534
C 1.61820779 5.47864083 11.73622806 -0.00645432 0.00179505 -0.00217205
C 0.87411267 9.49514981 6.89333103 0.00362591 -0.01086801 0.01714784
C 24.78459780 19.60008620 21.64608736 -0.00356617 -0.00395236 0.01293229
C 12.12338586 20.31010588 14.16240946 -0.00597147 0.00159496 -0.00816224
C 24.84731615 26.67884930 5.40815732 -0.00006464 -0.00003042 0.00083023
C 23.48392457 24.32864092 19.27402382 -0.00462171 0.00623810 0.01052247
C 24.88796535 4.41641443 7.73842267 -0.00531217 -0.00126550 -0.00091842
C 7.78569672 26.94763873 6.33164042 -0.00262535 -0.00769104 -0.00472774
C 12.48835888 6.52612757 26.70555225 0.00141081 -0.00544774 -0.00370309
C 8.95778122 9.78671715 27.35819463 0.00578918 -0.00258481 0.00416050
C 0.03832578 20.64911315 20.61323025 -0.00480172 0.00126782 -0.00045972
C 7.05352317 23.98244975 24.84905084 0.00866086 -0.00550007 0.00779866
C 7.62615083 6.25018925 11.67752562 -0.00291895 -0.00002589 0.00054946
C 10.89722115 1.14288310 13.75212790 -0.00353684 -0.00619179 -0.00382624
C 5.76704716 7.44397434 0.99797661 -0.00597230 0.00172775 0.00174164
C 3.21638498 10.57595916 25.57459682 -0.00120868 -0.00484484 -0.00362132
C 12.50041385 8.70662439 22.91744326 -0.00789734 0.01289983 -0.01032820
C 19.29109042 13.80662990 3.43341851 -0.00107990 0.00669309 0.00324474
C 10.07636802 10.86596306 11.91213988 -0.01285889 -0.00120576 0.00982078
C 10.60008919 22.66118598 25.76223045 0.00000013 -0.00252273 -0.00865822
C 9.30355386 8.06967207 15.38811837 -0.00287505 0.00516621 0.00515449
C 10.97246538 2.44449118 13.23482905 0.00124634 -0.00363802 -0.00229340
C 6.80510228 6.50001973 1.23842247 -0.00152748 0.00091706 -0.00513115
C 4.42350810 10.01767160 26.03273689 0.00028844 0.00541114 -0.00857518
C 12.01404861 9.37847789 21.81203969 -0.00507034 -0.00668209 -0.00562024
C 20.24571022 12.85863345 3.58184140 -0.00348460 -0.00309451 -0.01507092
C 9.25137659 11.23757560 10.82493683 0.01234504 -0.00253635 -0.00128402
C 11.71518161 23.25701667 26.39583676 -0.00951355 -0.00290238 0.00860661
C 9.61522815 8.39370600 16.71566780 -0.00384765 0.00172456 -0.01189115
C 10.14795366 3.45644882 13.70205249 0.00399246 0.00122581 0.00788324
C 8.12788209 6.95760442 1.30552246 0.00065096 -0.00158523 0.00171772
C 4.43381059 8.89891632 26.82533891 0.00138510 0.00479071 -0.00091894
C 11.35475309 8.50319010 20.79964860 -0.00267174 -0.00178377 -0.00996307
C 21.39185665 13.03372648 4.45583105 0.00401371 -0.00584208 0.00237708
C 8.12573868 12.04769282 11.01464867 -0.00476009 0.00221743 0.00663644
C 12.62771099 24.07069915 25.68917544 0.00119064 -0.00210626 0.00426238
C 8.89612191 9.47787599 17.17197116 0.01103676 -0.00376271 0.01036548
C 9.12151671 3.12501424 14.59791026 -0.00990149 -0.00337257 0.00398477
C 8.37704682 8.31979351 1.45801464 -0.00299040 0.00023638 0.00696551
C 3.24816112 8.19358560 27.16620780 0.00929342 0.00520984 0.00363017
C 10.94821377 7.19459280 21.12423824 0.00065352 -0.00077125 0.00635076
C 21.42922156 14.21494417 5.22897944 -0.00200668 0.00959130 -0.00716970
C 7.74861254 12.40473072 12.26424709 0.00198472 0.00385623 -0.00090873
C 12.45805115 24.27591413 24.36946459 -0.01041626 0.00012204 -0.00754601
C 7.74287300 9.93458630 16.41767672 0.00573781 -0.00350337 -0.00166090
C 9.05205258 1.84421381 15.17074623 0.00574201 -0.00121489 -0.00464929
C 7.33929112 9.27518309 1.34602480 0.00089540 -0.00259967 -0.00307615
C 2.03892013 8.69287945 26.66741135 -0.00480399 0.00122545 -0.00577520
C 11.59375972 6.56005633 22.24843177 -0.00279161 -0.00158184 0.00294200
C 20.44306490 15.16686239 5.16338962 -0.00179595 0.00501860 -0.00238702
C 8.50242401 11.96043580 13.34066356 -0.00318678 0.00258390 -0.00008834
C 11.42454058 23.74355604 23.70346023 0.00130630 0.00183615 -0.00190588
C 7.39973632 9.50620613 15.11274220 0.00476271 0.00170715 0.00239409
C 9.94597890 0.84390627 14.70041621 -0.00450016 -0.00734997 -0.00114249
C 6.00011784 8.74789664 1.18689039 0.00977912 0.00588829 -0.00407294
C 1.99788146 9.92133911 26.02383379 0.00192231 -0.00056192 0.00109087
C 12.30818193 7.36744774 23.18476157 0.00375998 0.01154784 0.00928028
C 19.42058089 14.96911970 4.24759754 0.00538996 0.00909494 -0.00818504
C 9.70085005 11.18476441 13.21535360 0.00279872 -0.00113207 0.00111267
C 10.53661292 22.90404290 24.36768812 -0.00883493 -0.00307081 0.00764858
C 8.29333995 8.47375775 14.59802821 -0.00008767 -0.00437689 -0.00639157
C 8.82988155 28.44931743 15.89118314 0.00258307 -0.00308584 -0.00005407
C 4.78749861 10.95887032 1.01204676 0.00962654 0.00137001 -0.00385902
C 0.32204937 11.30100068 24.97461820 -0.01515288 -0.00218132 0.00631567
C 12.25779768 6.01296699 25.29179725 0.00463569 -0.00257782 -0.00145726
C 17.44422205 16.10601270 3.32280731 0.00242411 -0.00628202 -0.00163042
C 10.44642654 11.43902694 15.55195826 0.00790015 0.00352714 0.00227302
C 8.92266433 22.64964931 22.30509893 -0.00582368 0.00090558 -0.00908706
C 7.91617365 6.55836850 13.07992355 0.00559542 -0.00156225 0.00308389
C 17.05780542 20.67286418 11.79536259 0.00660176 -0.00478393 0.00731540
C 3.30611225 11.40497177 1.11733673 -0.00097782 0.00187685 0.00335941
C 18.07757999 27.64601939 17.34964644 -0.00101410 0.00044463 -0.01061168
C 0.28436774 6.22565150 11.77317279 -0.00412993 0.00550502 0.00081389
C 3.19568207 1.34348426 14.57711451 -0.01560967 0.00084429 0.00173109
C 11.60848851 11.15251432 16.51374183 0.00044520 -0.00016337 -0.00586435