1920
Time=87000.00000006 pbc="T T T" Lattice="24.43307291 0.00000000 0.00000000 0.00000000 30.18825776 0.00000000 0.00000000 0.00000000 28.95334312" energy=-12188.68261528 virial="-52.56400950 -6.31631813 -15.88205687 -6.31631813 -72.97516041 34.45150460 -15.88205687 34.45150460 -27.52063246" stress="0.00095473 -0.00029396 -0.00075924 -0.00029396 -0.00005592 0.00157725 -0.00075924 0.00157725 0.00225773" Properties=species:S:1:pos:R:3:vel:R:3
O 5.18077844 26.04217353 10.88603452 -0.00231741 0.00258525 0.00233042
O 3.62548599 26.99199808 8.14137836 0.00517470 0.00220822 0.00329698
O 4.63327978 22.35965650 26.06973002 0.00290551 -0.00020599 -0.00508564
O 5.41934393 4.38035272 9.78377789 0.00667175 -0.00010665 -0.00501754
O 21.90077904 11.95064138 1.09253052 -0.00152773 0.00355140 -0.00709150
O 22.38594653 15.66829909 25.47269187 0.00150673 0.00760843 0.00347858
O 9.38002881 20.24193584 20.77301833 0.00032319 -0.00988083 0.00032600
O 3.28205568 1.64485148 3.86231201 0.00470607 0.00366018 0.00737920
O 8.68831884 28.04844341 15.40424685 0.00285743 0.00177148 -0.00332345
O 24.18987001 1.41572921 9.97262054 -0.00392070 0.00059775 -0.00199041
O 1.03915854 18.15927948 0.13804663 -0.01220802 0.00180358 0.00050024
O 13.06438642 3.97470233 25.50477106 -0.01085337 -0.00245041 0.01012339
O 15.86851188 17.01633162 1.86411295 -0.00135704 -0.00445808 0.00132437
O 1.91879553 20.98337896 23.50096908 0.00420760 0.00923824 -0.01021544
O 9.07439794 20.86316651 14.18025869 0.00222813 -0.00169785 0.00604141
O 9.38778427 5.91515459 13.72068365 -0.00475714 0.00089346 0.00557251
O 7.68657499 4.16991552 14.33571804 -0.00532579 -0.00268898 -0.00437629
O 8.95250374 8.90869870 28.09920658 -0.01124782 -0.00882545 -0.00085125
O 4.98751723 8.82093260 23.60566723 -0.00217521 0.00163475 0.00033948
O 12.51507305 7.61484380 20.35021338 0.00413072 0.00079542 -0.00353322
O 21.87800861 13.33733903 4.87369168 -0.00393294 -0.00317953 0.00463388
O 7.86403610 13.25751103 11.68018998 0.00131318 0.00523466 0.00040908
O 13.94422734 25.34492219 24.96810814 -0.00440698 0.00072993 -0.00555223
O 10.57592223 9.21513369 19.35660890 -0.00980995 0.00784451 0.00245922
O 6.07540273 2.14703206 10.94329971 -0.00465583 -0.00146020 -0.00252443
O 3.53367630 11.80334389 0.05160468 -0.00507984 0.00346273 0.00319242
O 23.88037566 13.63882709 25.51946201 0.00226052 -0.00068418 -0.00727820
O 1.33997786 5.86143235 14.50622943 0.00466676 -0.00130341 0.00228735
O 23.12363971 8.53289956 6.15597684 -0.00301807 -0.00392196 0.00658578
O 11.33422229 13.86343950 16.42711508 0.00450832 -0.00341634 -0.00618138
O 9.40920356 24.46724969 21.57274390 0.00512494 0.00354171 0.00171865
O 22.24778796 27.24893710 6.71313081 0.00445425 0.00284380 -0.00676830
O 13.91682054 23.87386059 3.07396458 0.00300155 -0.00397586 -0.00210302
O 3.10580309 22.01626725 8.99445409 -0.00107285 -0.00434714 0.00341368
O 11.26845690 22.85259668 9.04804406 0.00359857 0.00485919 0.00335963
O 3.71784748 19.64041393 20.24375076 0.00215274 0.00428287 0.00147151
O 3.98381127 28.68029925 16.83087567 0.00023528 -0.00132736 -0.00025597
O 17.43546517 26.22187469 28.05536214 0.00546354 0.00273002 -0.00042303
O 4.20913620 28.02395034 1.64704095 -0.00512800 0.00496761 -0.00164127
O 6.94275182 0.98147699 24.23747450 0.00408316 0.00054826 -0.00276785
O 23.17958710 25.36235680 20.07286563 0.00350294 -0.00977922 -0.00256113
O 1.06082394 26.65007847 12.50450751 -0.00188761 -0.00145975 -0.00334091
O 6.28868801 26.90055121 7.96883615 0.00466699 0.00719611 -0.00247423
O 4.51442379 24.02054246 24.04588545 0.00245426 -0.00373201 -0.00603808
O 8.63093436 6.35448830 27.77212455 0.00182855 -0.00128320 0.00020059
O 17.43880380 24.24441579 5.06873646 -0.00943489 -0.00681690 -0.00760172
O 9.41880368 24.07853618 27.08659329 0.00119721 0.00319749 0.00035294
O 23.45171735 27.85033770 22.27570739 0.00185744 0.00158430 -0.00289686
O 20.18951987 21.10784545 23.54059141 -0.01383384 0.00222321 -0.00673084
O 23.23939828 23.58434822 28.09067818 0.01124012 -0.00513124 -0.00956221
O 21.60974832 3.09823869 23.56297911 0.00823881 -0.00360328 -0.00453275
O 1.20900862 28.14939655 27.38909773 0.00952469 -0.00496881 -0.00126910
O 7.51814863 4.35064694 20.35068794 -0.00168295 -0.00523356 -0.00588145
O 1.23566599 25.20067234 18.94471243 -0.00448819 0.00094330 -0.00025944
O 24.16112285 15.33078947 15.77400222 -0.00177257 0.00564107 -0.00411490
O 22.24977856 25.98779976 28.17907797 0.00048283 -0.00237632 -0.00323514
O 13.73259522 23.23692586 9.24428256 0.00155307 0.00964440 -0.00158533
O 3.00953935 26.28537055 3.14133651 -0.00276258 -0.00394331 -0.00057180
O 18.61161136 0.56931257 18.75402427 0.00142243 0.00333604 0.00050124
O 20.97384714 16.98301793 21.32601291 0.00607719 0.00531617 -0.00571748
O 23.92102214 2.48491095 16.27272936 0.00183660 -0.00388497 0.00371729
O 3.84747911 0.51985725 20.21947623 -0.00008717 0.00757750 0.00396127
O 5.96908381 14.59391281 16.13535988 -0.00471901 -0.00288388 -0.00716026
O 3.38560792 3.63001695 28.50222419 0.00757016 0.00142824 -0.00037179
O 4.69914803 13.48213073 27.35118374 -0.00593912 -0.00140744 -0.00163637
O 4.96285282 1.48391011 6.51239983 -0.00848928 -0.00298037 -0.00538014
O 16.21004930 7.29383273 24.16211578 -0.00456032 -0.00211488 -0.00665511
O 13.80440797 8.69989755 11.53506958 0.00802092 -0.00351170 0.00368526
O 12.15840303 6.24522049 2.17350356 0.01392936 -0.00585596 0.00017341
O 14.48528631 9.58030561 6.97787242 0.00169087 -0.00598129 0.00402060
O 16.13612829 5.10231094 12.50590793 -0.00377940 -0.00659665 -0.00039051
O 21.12658526 14.69505675 10.71665968 -0.00586556 0.00710816 0.00388459
O 22.89191021 5.80230084 20.86148926 -0.00415595 -0.00196561 0.00520659
O 8.59813651 8.21000324 6.05734939 -0.00413165 0.00101486 -0.00759100
O 18.66068321 11.22975244 28.33390764 0.00089500 -0.01510722 -0.01181999
O 1.17686807 10.43123266 5.70233196 -0.00350806 -0.00029519 0.00062330
O 6.44341777 18.63492339 28.29683506 -0.00445349 0.00190273 0.00138262
O 20.36259425 11.86829981 6.51493923 -0.00135446 0.00467888 0.00390650
O 14.65815743 1.48668078 7.33807442 0.00244957 0.00108044 0.00389343
O 20.92831443 5.05759025 5.79366192 0.00323008 0.00541232 -0.00723223
O 24.18378328 2.85503325 26.33997261 0.00715113 -0.00176295 0.00989716
O 7.58329359 9.49507636 23.34247953 0.00448834 0.00146802 -0.00411218
O 9.61795545 13.79337729 18.21127708 0.00173776 0.00028423 -0.00975250
O 1.81950161 5.87632890 1.16426103 -0.00339287 0.00208135 -0.00095279
O 3.19137628 18.78212462 23.13236416 -0.00015492 -0.01238774 -0.00020215
O 18.19746588 1.97119996 16.53432736 -0.00052889 -0.00196385 -0.00806815
O 7.28018204 26.66405621 18.59718738 -0.00651974 -0.00065531 0.00099530
O 16.82434253 5.46280316 1.42599570 0.00682635 -0.00195738 -0.00154245
O 4.30457861 15.09569984 21.12557324 0.00031328 -0.00534641 0.00039687
O 4.97050739 6.33847755 18.23977848 0.00496680 -0.00181404 -0.00772969
O 9.98472191 10.68952617 23.82138557 -0.00749489 0.00622083 0.00605812
O 14.53549729 13.59305272 14.81983951 0.00074514 -0.00338848 0.00951583
O 13.83092764 11.44696946 25.72967980 -0.00123785 -0.00076065 -0.00365381
O 15.97551020 7.33651682 13.95243381 0.00087433 0.00638272 -0.00175691
O 7.88496360 2.70169480 18.63101595 0.00594552 0.00249905 -0.00060981
O 16.84578474 13.73513399 5.90964910 -0.01089022 0.00266148 0.00752538
O 2.92203662 12.28581051 4.72791209 -0.00041635 -0.00025682 0.00168190
O 8.37189654 12.36780201 6.40486544 -0.00927067 -0.00327609 0.00391578
O 11.17513076 6.63692846 4.55882342 0.00697569 0.00301418 0.00093629
O 5.45057240 14.10768736 12.26168564 -0.00306294 0.00961302 -0.00326200
O 12.85894787 3.00624914 11.10200448 0.00041305 -0.00036181 0.00132051
O 14.87576935 25.26025822 14.01930846 0.00361946 -0.00134659 -0.00189428
O 8.81857584 18.62946180 12.97949116 -0.00165768 0.00599938 0.00209430
O 10.82301541 17.11554062 6.87415337 -0.00753535 -0.00294224 0.00648782
O 15.81494772 20.08734471 17.63385315 -0.00087726 0.00707291 -0.00160417
O 5.05298564 8.60391054 12.29501514 0.00485806 0.00381815 0.00524800
O 11.51721146 7.74269235 10.62548249 -0.00113247 -0.00378746 0.00488908
O 11.23201857 2.30609025 0.06111971 -0.00280042 -0.00709078 0.00217173
O 8.45695787 26.60476798 21.01806723 0.00617568 -0.00567513 -0.00350230
O 13.62918536 24.57651823 20.21464252 -0.00664011 0.00240756 0.00308619
O 7.38888444 17.86497822 6.65044249 -0.00210969 -0.00145363 0.00359096
O 13.11506280 17.86401640 16.95670048 -0.00477205 0.00834837 0.00140837
O 19.03797487 15.43289926 20.24813422 -0.00043021 -0.00795910 -0.00417628
O 4.80926196 7.58694713 14.70685039 -0.00018130 0.00047303 0.00164541
O 17.01767341 23.72558275 12.48900712 0.00281656 -0.00076915 -0.00145200
O 13.67115138 27.44985340 26.51704989 -0.00365405 0.00001721 -0.00449514
O 10.85252393 2.44146354 25.41835390 0.00414831 0.00303906 0.00493067
O 17.74243355 22.14861809 23.42926908 0.00192912 -0.00063496 0.00528441
O 11.34522600 18.90173565 15.24409214 -0.00179322 0.00132978 -0.00560515
O 14.01133674 22.43333410 21.58540480 0.00255514 -0.00354639 -0.00276256
O 8.37130329 9.31127689 3.83392351 0.00220467 0.00424809 0.00233211
O 3.45983129 12.89341657 17.59784609 0.00550987 -0.00390684 0.00089273
O 16.66280512 30.04870666 12.24139780 0.00315496 0.01185479 0.00478857
O 0.82558230 14.94583476 8.13176833 0.00418863 -0.01108440 -0.00575668
O 13.98455059 27.20883205 12.68531029 -0.00457870 0.00874329 0.00352398
O 14.69902896 22.13658792 1.24010199 -0.00370203 0.00645148 0.00526884
O 11.13174146 16.93768370 9.35201664 0.00031146 0.00451414 -0.00273375
O 9.78703512 22.25433686 3.18319927 -0.00045249 -0.00436266 -0.00628222
O 23.40492132 27.72644377 10.75586861 0.00038246 -0.00175101 -0.00263413
O 23.42558996 12.28933305 20.58083420 -0.00082791 0.01082337 0.00115693
O 5.38079508 30.17488942 2.40907803 -0.00296497 -0.00539468 -0.00402213
O 14.50045590 14.14147066 1.20644805 -0.00562750 0.00178613 0.00233050
O 14.35901744 17.15940005 6.95911451 0.00269443 -0.00035576 0.01333783
O 5.77222696 17.80765541 1.74284281 0.00324897 0.00067092 0.00328645
O 21.44331380 1.39408989 9.18744575 0.00363736 0.00031826 -0.00192448
O 18.51499262 28.60838673 3.68189374 -0.00063618 -0.00450600 -0.00655259
O 3.55289868 20.62434625 17.82469937 0.00671371 0.01491770 0.00508597
O 22.19467840 7.50939939 15.94214161 0.00806427 -0.00543659 0.00298941
O 10.63021791 29.12337700 5.85601779 -0.00306525 0.00193897 -0.00065336
O 13.70540800 15.16994426 26.67378713 -0.00501107 0.00124750 -0.00462753
O 20.90530095 7.19744220 20.57606358 0.00060103 -0.00020068 0.00207105
O 23.64045159 13.78878103 1.35873330 -0.01026006 -0.00247743 -0.00037566
O 17.66559679 5.25837150 5.96003298 0.00201378 0.00062948 0.00096504
O 22.87409744 11.13331906 22.83185874 0.00371920 -0.00303202 0.00259318
O 6.62168963 26.96319242 14.59242973 -0.00139937 0.00279217 0.00277272
O 11.62173805 16.46673203 27.31964519 0.00575390 -0.00138878 -0.00188158
O 17.27653045 5.06444886 27.25098867 -0.00263343 0.00230489 0.00358299
O 14.04335884 13.78517268 20.45671647 0.00302911 -0.00187502 -0.00032897
O 18.20706823 13.00054970 19.54541917 -0.00211572 -0.00074384 0.00391130
O 3.36089419 4.61644560 19.03066847 0.00182275 -0.00665460 0.00428298
O 23.62048665 15.50827567 10.01168327 0.00395865 0.00047338 -0.00520934
O 0.49918873 8.09251652 27.91208233 0.00604071 0.00090381 0.00867541
O 17.34852466 26.80717998 7.00857399 0.00131674 0.00293912 0.00348483
O 9.34791362 17.67152788 21.56830426 0.00150159 -0.00400773 -0.00308863
O 15.26170112 29.55096969 25.63783655 0.00602665 0.00593304 -0.00165870
O 14.51522672 8.68973439 4.46536638 0.00300294 0.00826658 -0.00161074
O 16.62736099 17.27976113 12.96436455 -0.00197322 -0.00061732 0.00326859
O 2.15220817 7.17399239 24.80542390 0.00055839 0.00110148 0.00470316
O 2.59136187 19.67993200 12.64482064 -0.00889107 -0.00464882 -0.00253870
O 23.74902363 28.54618878 28.88933513 0.00051376 0.00065138 -0.00250336
O 19.13429182 19.09919466 5.02549269 0.00014875 -0.00876513 -0.00062934
O 19.07298166 22.29838538 12.60385368 -0.00046669 -0.00687677 0.00078539
O 18.54833452 28.42044389 28.90395195 0.00516349 0.00118664 0.00316495
O 2.00873156 29.05424958 13.08622021 -0.00031533 -0.01299567 -0.00275891
O 19.91604513 1.99169180 14.39936806 -0.00406968 0.00633066 -0.00056903
O 7.63917376 23.26964788 2.28328487 0.00675914 -0.00310400 0.00712965
O 12.77560182 15.29575886 2.77048365 0.00391383 0.00352219 0.00197698
O 10.60123139 21.68619934 26.21882476 0.00390175 0.00174450 -0.00797315
O 0.42671526 9.17680246 10.47348271 0.00182719 -0.00800009 0.00432100
O 20.85953819 19.84895232 6.81804731 0.00270484 0.00445548 0.00229614
O 15.56042942 3.00181116 1.96173039 -0.00072378 0.01046145 0.00139903
O 0.54956175 19.04435601 5.73052033 0.00359110 0.00296795 -0.00034904
O 20.79831292 29.69581481 28.78919568 0.00237756 -0.00120409 -0.00337764
O 2.21340095 20.11497967 1.45258504 0.00549347 0.00327448 0.00072992
O 6.97330078 14.22756954 5.09538594 -0.00400570 0.00341242 -0.00167874
O 22.89300233 17.51635606 16.06923916 -0.00173657 -0.00007618 -0.00111918
O 18.98607447 10.36353011 12.69650111 0.00674915 -0.00118765 0.00058387
O 17.03623600 29.69020432 9.77849138 0.00127455 0.01310008 0.00573265
O 17.20720437 22.57218286 17.72748983 0.00603644 -0.00460954 -0.00764547
O 22.15337616 24.72453962 6.43783349 0.00196583 0.00325132 -0.00267969
O 22.00609415 6.66673215 27.04717098 0.00737494 -0.00849109 -0.00378988
O 4.45039678 16.58580718 12.65262426 -0.00065055 0.00914438 -0.00539614
O 19.48959987 3.39388327 19.40788054 -0.00194271 -0.00096435 -0.00984065
O 21.97967129 23.62131337 15.01040255 0.00123296 0.00203163 0.01004319
O 21.64406231 21.34967885 28.50053161 0.00324867 -0.00069514 -0.00854129
O 12.46566192 27.76819397 5.85343709 0.00397809 0.00011988 -0.00223397
O 16.07592371 24.93889587 23.63705499 -0.00371461 -0.00265521 0.00404651
O 21.56085547 2.90017003 12.88289641 0.00619927 0.00226760 0.00367662
O 20.72630610 25.73481304 14.63835131 0.00018658 0.00541988 0.00079696
O 6.49922705 23.89666010 11.06692920 -0.00561739 -0.00499801 0.00394610
O 15.36483573 7.82584572 21.60282239 0.00036607 -0.00215398 -0.00140792
O 13.41275877 17.65815171 1.61509361 0.00810987 0.00549959 0.00640932
N 15.15686500 21.94037213 8.24698552 0.00446335 0.00152877 0.00194210
N 1.86222901 1.93611016 9.27257913 -0.00339791 0.00117703 0.00253728
N 8.46286275 27.40624021 7.44924781 0.00074636 -0.00036263 -0.00261779
N 1.40527591 7.03922568 12.54870975 -0.00020371 0.00578848 0.00083420
N 23.28482689 0.56587432 17.29347394 -0.00787689 0.00717617 0.00318136
N 24.22333041 20.31472532 22.85552104 0.00558229 0.00624827 0.00167574
N 8.06595816 25.86488777 27.22741762 0.01046168 -0.00198627 0.00413266
N 23.52839553 28.92589548 6.28733516 0.00147052 0.00702290 -0.00690611
N 21.69948946 23.82259540 19.11253608 -0.00601227 -0.00375075 0.00573330
N 4.21069914 10.33359188 1.66747359 0.00145634 0.00321248 -0.00759803
N 17.77342415 0.10014382 20.85525202 0.00692806 -0.00745242 -0.00700818
N 12.38417545 6.14121229 25.71170331 0.00316700 -0.00684315 -0.00541090
N 8.68176251 5.33489623 25.73862558 -0.00314402 0.00035240 -0.00648381
N 11.29552940 11.75196458 15.76368157 0.00438276 0.00159217 -0.01071223
N 5.06831586 16.67980219 16.99371615 -0.00781929 0.00040722 0.00455930
N 8.78699819 8.08682346 14.23747347 -0.00166901 0.00220805 0.00320961
N 7.88376604 0.78103084 11.32776818 0.00100525 -0.00569461 -0.00287846
N 0.45797874 24.50597159 13.12191210 -0.00664202 -0.00782898 -0.00043806
N 24.42937197 19.78030179 27.83047780 -0.00095836 -0.00717594 -0.00249404
N 22.70632340 18.27579932 20.62586178 0.00077733 -0.00500409 0.00657577
N 20.97741513 8.57669032 5.31878142 0.00067217 -0.00406879 -0.00252658
N 18.81980755 23.28104186 3.58672591 0.01548710 0.00660783 -0.00264164
N 10.19610232 22.20997375 15.63476978 -0.00501484 0.00392176 0.00296887
N 2.72624246 1.69714516 27.72878143 0.00619227 0.00429517 0.00608925
N 10.25060677 29.29939825 14.20254134 -0.00464310 -0.00468409 0.00322336
N 1.34424716 24.93033011 3.89855681 0.00384207 -0.00149319 0.00481964
N 0.84508645 11.92549701 25.45879993 -0.00037294 0.01003328 0.01755072
N 3.13986721 25.40070752 22.98037514 -0.00702926 0.00264441 -0.00461641
N 18.00195144 16.22460677 2.13581235 0.00112338 0.00726849 -0.00342057
N 5.08341089 28.82803082 20.51816358 -0.00091467 0.00034399 0.00837437
N 9.87192489 22.54872673 22.70618577 -0.00515149 -0.00292683 0.00815250
N 21.34562358 27.89229024 22.93548123 0.00013615 0.00481654 0.00423631
N 8.10870200 11.28339616 2.76354086 -0.00046728 0.00124668 0.00447720
N 7.60443041 6.49057969 6.81908296 0.00375119 -0.00747757 0.00334064
N 11.97849227 5.69742168 9.77749689 -0.00571525 -0.00279901 0.00064506
N 14.62295413 14.02732412 12.65965892 -0.00471603 -0.00020529 -0.00209299
N 12.15572736 27.61158956 11.21450438 -0.00638996 0.00491373 -0.00389858
N 19.58694908 11.35066265 8.57521441 0.00418564 -0.00243871 -0.00740695
N 8.34528643 19.79895462 7.57029605 0.00736873 -0.00418679 -0.00144132
N 16.42269620 13.19949936 8.10365074 -0.00037763 -0.00835233 -0.00336932
N 16.69639181 18.43583022 16.31401789 -0.00212314 -0.00324591 -0.00169201
N 7.18891327 7.19664717 18.26292566 -0.00702106 0.00465961 -0.00044025
N 17.33073357 28.86516341 14.13031824 -0.00379512 0.00453277 0.00055209
N 1.99408778 8.29481360 6.10739748 -0.00908859 0.01166854 -0.00007322
N 9.29599061 28.41806432 22.04195548 0.00455902 -0.00221379 -0.00046607
N 15.03092111 6.53693837 15.88019371 0.00132657 -0.00282847 0.00330224
N 10.78676123 15.55245742 11.07277950 -0.00333795 0.00680725 -0.00675700
N 21.80321877 5.88310906 3.84499809 0.01441960 0.01104471 0.00489837
N 5.85293497 13.65935928 21.98645126 0.00436405 0.00073736 -0.00195744
N 6.11103772 9.05674828 10.43036401 -0.00619362 -0.00832893 0.00001118
N 17.94996696 12.05789594 26.35060701 -0.00142631 0.00703160 -0.00127919
N 2.67938055 13.83248903 7.43559321 -0.00690346 -0.00281417 0.00431728
N 13.95424943 9.76112811 27.11305344 0.00912323 0.00013358 -0.00332829
N 13.46980285 26.63393538 19.18871617 -0.00529001 -0.00610682 0.00555489
N 14.61690720 3.77129097 7.32787186 -0.00367469 0.00666703 -0.00280401
N 10.39252998 22.37351799 5.36716377 -0.01310851 -0.00578023 -0.01022811
N 24.23801118 4.03701773 20.81140616 0.00548649 -0.00412319 -0.00154101
N 2.70490959 10.90913506 18.56954298 -0.00221680 0.00155975 -0.00392980
N 9.63837472 12.94725778 23.67544979 0.00162931 0.00373762 0.00075980
N 9.94781041 0.55628355 0.48117647 0.00042611 0.00312119 0.00311928
N 7.48521762 19.52635657 26.48869442 -0.00840941 -0.00157996 0.00730687
N 15.34532815 21.26962609 28.27819575 -0.00112144 0.00627204 0.00282406
N 9.76676779 1.40416713 18.59564217 -0.00322481 -0.00113667 -0.00523519
N 13.45862614 17.47633222 19.17656615 0.00226390 0.00664302 -0.00494284
N 19.51602600 20.67828215 28.62091806 0.00439949 0.00777637 -0.01376348
N 22.33686966 9.75428317 15.68781882 -0.01247943 0.00312893 0.00812528
N 14.34378493 1.11851925 2.08104047 0.00822999 -0.00057737 -0.01071043
N 15.76105630 8.92351335 2.63913220 0.00212057 -0.00320730 -0.00603095
N 20.41406219 26.84484613 12.65663573 -0.00666326 0.00623978 -0.00034046
N 0.81718342 15.24468190 1.87508553 -0.00240529 0.00413411 0.00074234
N 7.56670183 16.06756064 3.87923658 -0.00863490 -0.00711662 -0.00427920
N 23.85861090 29.65694325 1.94658168 0.00217391 -0.00367698 0.00058754
N 0.05309422 10.93452872 11.72629246 -0.00323506 -0.00640263 0.00321572
N 7.89257207 17.14976919 23.33709464 -0.00901380 0.00413992 -0.00127982
N 17.50928776 25.98184346 22.20137123 0.00319188 0.00503455 -0.00344731
N 15.65276593 15.75935884 25.55927542 0.00248319 0.00290829 0.00391797
N 21.35483213 1.57567850 0.33125321 -0.00391853 0.00073305 -0.00886280
N 2.50375843 4.95118563 24.43141679 0.00934152 -0.00780895 -0.00441287
N 16.25416075 7.83135958 19.49960978 0.00108169 -0.00305644 0.00316102
N 21.71417306 11.44079357 24.82863250 -0.00724486 0.00752717 -0.00254927
N 19.09104246 25.59411648 7.91985695 -0.00390448 -0.00151285 -0.00434524
N 22.11570450 19.81457086 8.74061052 0.00084054 0.00394038 -0.00352097
N 10.04957941 1.02910506 5.31216363 -0.01318343 0.00372716 0.00101717
N 23.64692923 3.73991740 13.59377009 0.00114268 -0.00024218 0.00260547
N 17.79574210 18.33924732 11.23046662 0.00121940 -0.00777517 0.00448662
N 2.62956483 21.15336990 3.39622976 0.00720273 0.00457001 0.00435609
N 18.21203434 5.73997921 8.17206264 -0.00051377 0.01001974 -0.00738935
N 12.47060792 19.71801700 1.98696717 -0.00128228 0.00309049 -0.00651246
N 4.25293787 22.63907483 17.14194819 -0.00655458 -0.00724605 -0.00342376
N 14.45800109 28.43997260 4.94782151 -0.00438527 0.00715761 0.00301539
N 14.70836433 1.16386698 24.31175186 0.00460273 -0.00283643 0.00573521
N 1.43731984 20.62614638 7.25646064 0.00452411 -0.00251519 0.00441165
N 20.06551722 8.38258071 22.31287703 -0.00788467 -0.00476277 -0.00118541
N 5.69367075 21.80992030 11.09526603 -0.00210775 -0.00332616 0.00083546
N 0.77784083 19.21185815 13.83037356 -0.00544865 -0.00835843 -0.00631441
N 20.92390346 18.51362588 16.72494150 0.00290250 -0.00048336 0.00370771
C 7.89686072 28.51987090 11.45717458 -0.00496594 0.00719604 0.00122658
C 1.32847212 29.64449757 9.12926801 0.00227007 -0.00532247 -0.00003338
C 1.06472992 21.56069278 26.45136120 -0.00102095 0.00815816 0.00342669
C 3.32021233 5.47468361 12.49589794 -0.00147760 0.00559327 0.00240350
C 20.09704014 9.94462099 3.50532627 -0.00062326 0.00043068 -0.00095249
C 0.25074291 18.40830329 24.31879024 0.00063439 0.00397205 0.00279499
C 9.98951728 22.58134187 18.01999168 0.00138980 0.01076479 -0.00504067
C 0.00658891 0.88988672 5.66017126 0.00543379 -0.00169279 0.00300135
C 7.27146033 27.22429204 11.39988299 -0.00309149 -0.00085159 0.00048344
C 1.78880487 28.38682180 8.76951579 -0.00695232 -0.00574541 0.00125978
C 2.20201099 22.19944855 26.01031508 -0.00192795 0.00212035 0.00017303
C 4.33453180 4.86508938 11.82423237 -0.00592361 0.00210941 -0.00434553
C 20.27536006 10.70374133 2.37448325 0.00386502 0.00215506 0.00295151
C 24.23971423 17.19152297 24.85757304 -0.00485728 0.00473907 0.00614352
C 9.67294547 22.15729070 19.25242083 -0.00118462 0.00426138 0.00503927
C 0.96138408 1.70962450 5.09661466 0.00334526 -0.00136837 0.00458725
C 5.88145216 27.16554719 11.19775594 -0.00149609 -0.00715470 0.00677595
C 3.17873950 28.22771043 8.47110875 0.01240269 0.00630236 -0.00514669
C 3.53205431 21.71378278 26.30768663 -0.00660401 -0.00011524 -0.00229015
C 4.52738716 5.09106083 10.43654270 -0.00023782 -0.00514263 0.00724673
C 21.54505438 11.22014025 2.15960917 -0.00441579 0.00881312 -0.00466849
C 22.86820082 16.74161527 24.74539953 -0.00313483 0.00188552 0.00112416
C 9.45521062 20.75201784 19.49345465 0.00769652 -0.00627880 -0.00559885
C 2.19059253 1.08064291 4.53923612 0.00305049 0.00325757 -0.00998842
C 5.19662465 28.37238690 11.20580340 -0.00242667 0.00983464 0.00267672
C 4.08389745 29.32295685 8.50681425 -0.00133193 -0.00567108 0.01213092
C 3.55644573 20.52192786 27.05413102 0.00866939 -0.00672301 0.00192930
C 3.63625902 5.89443989 9.78106772 -0.00281277 -0.00749931 -0.00385209
C 22.59516635 10.78968536 2.97116907 0.00191352 -0.00552152 -0.00033289
C 21.97338129 17.55317425 24.01239790 -0.00949648 0.00193122 -0.00143892
C 9.34978352 19.89827983 18.41375700 0.00070251 0.00546400 0.00656067
C 2.33837397 29.86073643 4.74891375 -0.00506167 0.00276297 0.00042431
C 5.80668805 29.62358339 11.15597657 0.00244113 0.00228520 0.00122823
C 3.65875818 0.36092238 8.89715414 0.00060128 -0.00039859 -0.00356739
C 2.36103883 19.74732594 27.33590274 0.00341155 0.00209518 0.00354372
C 2.61400285 6.57416498 10.44495303 -0.00329462 0.00716401 -0.00162797
C 22.44358776 10.08318231 4.08743161 0.00335353 -0.00165972 0.00762105
C 22.48220005 18.69652490 23.48333964 -0.00324047 -0.00644796 -0.00081969
C 9.65115744 20.37592755 17.10319212 0.00122041 0.00039963 0.00274334
C 1.37086741 29.06953441 5.38384929 -0.00615686 0.00658726 0.00496989
C 7.19755788 29.76076122 11.28671215 0.01616332 -0.00543385 0.00458294
C 2.22289939 0.55908117 9.19346445 -0.00153677 -0.00969198 0.00641688
C 1.17357657 20.36481914 27.20078023 -0.01192249 -0.00883814 0.00536178
C 2.46225347 6.35802095 11.86657058 -0.00631967 -0.00104147 0.00224566
C 21.11141397 9.55671491 4.32497484 -0.00293675 -0.00013304 0.00500776
C 23.82971361 19.15280642 23.58489379 -0.00411408 -0.00758529 0.00992261
C 9.91752034 21.70920001 16.88947305 -0.00609289 0.00006196 0.01529676
C 0.18792741 29.67122495 5.74689117 -0.00107661 -0.00434499 -0.00327033
C 7.34471914 1.97143514 11.01765106 0.00121721 -0.00242419 -0.01232399
C 0.56425520 2.27091584 9.58261196 0.00181214 0.00436053 -0.00509744
C 24.43188450 18.73154180 28.65921952 0.00693623 -0.00892775 -0.00687775
C 1.16348155 6.94913927 13.90278115 -0.00905285 -0.00195271 -0.00357699
C 21.89139837 8.33380009 6.27219438 -0.00468221 0.00030429 0.00370574
C 0.78122335 21.26755613 23.08607054 0.00573509 -0.00525321 -0.00677296
C 9.78765790 21.91950938 14.38823091 0.00384720 -0.00447821 -0.00521305
C 23.11148372 27.69383561 6.00565851 0.00889515 0.01045268 -0.00446781
C 22.66362154 25.43423629 17.78682813 0.01326170 0.00570267 0.00075784
C 0.11882265 3.69258162 9.54276003 -0.00291795 -0.00442355 -0.00700173
C 6.62257474 28.68162648 6.33388340 0.01227153 0.00500415 0.00081038
C 11.66898386 4.75540560 27.45050270 -0.00843790 0.00543980 -0.00171675
C 7.49749343 7.49713756 26.00546179 -0.00448305 -0.00045549 -0.00219428
C 0.58011634 22.56692273 22.46226764 -0.00262944 0.00726429 -0.00355163
C 7.13902997 23.70804794 26.61662706 -0.00167842 -0.00206692 -0.00146427
C 8.64158888 7.28737278 11.94536600 0.00670176 -0.01273076 -0.01101982
C 10.32820751 1.45924247 14.13283798 -0.00430024 -0.00256319 0.00296063
C 6.34745157 8.92093331 1.66156648 -0.00002922 0.00633108 -0.00118522
C 2.01400944 10.83612604 23.65544702 0.00036368 -0.00520354 -0.00451683
C 12.25208087 7.85030311 24.01772546 -0.00451335 0.00866677 0.00096435
C 20.26704008 15.98684723 2.82323281 0.00282928 -0.00261809 0.00074940
C 10.42860271 11.42008813 13.47948879 0.00016749 -0.00561569 0.00288453
C 12.01277945 22.49136545 23.87951324 -0.00351075 -0.00182231 -0.00392200
C 10.41837111 7.49577175 15.98478123 -0.00469268 0.01033757 0.01224895
C 9.72527154 2.75640764 14.00745530 -0.00145328 0.00010703 -0.00937481
C 7.35792796 8.52799325 0.86041468 0.00545949 -0.01050029 0.00623743
C 3.06240720 10.16166893 23.16123287 -0.00199568 0.00154464 -0.00073053
C 12.16544685 8.22308154 22.67737770 0.00125074 0.00877239 -0.00383852
C 21.21927557 15.28386098 3.58478593 -0.00122761 0.00725517 -0.00315162
C 9.53612294 11.74691384 12.47686914 0.00253007 -0.00443759 0.00245483
C 13.02925302 23.23204721 24.43200874 0.00490187 0.00692458 -0.00083094
C 10.86164860 7.96684525 17.22373921 0.00640917 0.00811385 -0.00419098
C 8.38884538 2.97002478 14.27151492 -0.00167932 -0.00432815 -0.00455161
C 7.91370036 9.35640963 28.84189489 -0.00229307 0.00159361 -0.00983595
C 3.97847527 9.61661925 24.09247419 -0.00900530 0.00243148 -0.00852406
C 12.51463696 7.29009943 21.57461739 -0.00179051 -0.00729185 0.00823388
C 20.91646633 14.04440592 4.20176068 -0.00984582 0.00120235 -0.00648535
C 8.59301189 12.73192427 12.75011991 0.00191369 -0.00604930 -0.00521955
C 12.80640663 24.60897163 24.74821207 0.00745311 -0.00642193 -0.00360661
C 10.29141881 9.04670958 18.05343866 0.00397218 0.00700153 -0.01962205
C 7.62175512 1.74021915 14.43982401 -0.00247136 -0.00819137 -0.00673007
C 7.25777992 10.56974836 28.60569341 -0.01082541 0.00466648 -0.00424683
C 3.75705311 9.75264767 25.41319739 -0.00248352 -0.00331363 -0.01488745
C 13.11208032 6.07908712 22.00435103 -0.00295565 -0.00597805 0.00177922
C 19.65232309 13.50328578 3.91392097 0.00817084 0.00929523 0.00697521
C 8.34016516 13.09261498 14.01808707 -0.00358293 0.00159721 0.00654900
C 11.47864411 25.17709134 24.70501052 0.00330201 0.00150040 0.00288757
C 9.21669442 9.69618172 17.46320719 0.00196319 -0.00036763 -0.00199608
C 8.23817473 0.46483320 14.49714971 -0.00851804 0.00176518 0.00450387
C 6.12006333 10.85691898 0.24414854 0.00765275 0.00442792 0.00039077
C 2.72257369 10.58681659 25.90655804 -0.00052908 0.00373344 0.00332638
C 12.89161502 5.71209721 23.29248611 0.00032942 -0.00205306 -0.00155682
C 18.69000200 14.25385389 3.26835572 -0.00290923 0.00197326 0.00952630
C 9.22645810 12.77742266 15.09263014 -0.00265813 0.00131090 -0.00236194
C 10.51075270 24.44345200 24.07668905 0.00129482 -0.00355808 0.00323172
C 8.80176028 9.29667249 16.18779525 -0.00118947 0.00495702 0.00432500
C 9.56778551 0.29264464 14.41084914 -0.00381614 0.00364363 -0.00212941
C 5.50114518 9.97803144 1.14130774 0.00001362 -0.00772604 0.00360546
C 1.87583701 11.14714275 25.01422937 0.00609037 0.00604527 0.00736367
C 12.46516847 6.54155182 24.38937687 -0.00009239 -0.01043665 -0.00366948
C 18.95271637 15.42495209 2.71162055 -0.00338817 0.00456168 -0.00163993
C 10.32276417 11.96556112 14.76875966 0.00385332 0.00372724 0.00585144
C 10.87080828 23.17926062 23.53861299 -0.00258696 -0.00151129 0.00167111
C 9.36430307 8.21306184 15.44535770 0.00486798 -0.00184305 0.00164179
C 9.77718220 28.16308503 14.82185487 0.00079226 -0.00617088 -0.00066039
C 3.29772573 11.10570600 1.06772874 -0.00005645 0.00037841 0.00166630
C 0.29447749 13.02720531 24.86100370 -0.00200743 0.00665253 0.00482229
C 12.47435467 4.88160602 26.19204122 -0.00241646 -0.00562563 -0.00215846
C 16.74162319 16.38026820 2.57975206 0.00182416 0.00480784 0.00246238
C 11.81980644 12.72589466 16.44921685 -0.00460155 0.00097519 0.01119951
C 9.01253532 23.33135540 22.05001656 -0.00557758 0.00518633 -0.00135040
C 8.92396267 7.01475488 13.41954803 -0.00415939 -0.00707526 0.00339373
C 15.36131200 22.18491571 10.65996991 0.00236736 0.00726689 0.01215507
C 1.91171245 11.22902840 1.56482826 0.00222767 0.00341126 0.00655122
C 17.03068951 29.00045279 18.88104019 -0.00282703 -0.00276422 0.00927660
C 0.43844066 8.18805702 14.60588131 0.00594981 -0.00779175 -0.01206746
C 21.63198104 2.45413814 17.11909050 -0.00218749 -0.00235115 -0.00533409
C 13.04369855 12.23937513 17.25023952 -0.00585497 -0.00021941 0.00165104