1920
Time=60000.00000005 pbc="T T T" Lattice="24.27110968 0.00000000 0.00000000 0.00000000 29.56227042 0.00000000 0.00000000 0.00000000 30.06230803" energy=-12187.65488869 virial="-69.08596078 -7.76907031 -23.65584589 -7.76907031 -74.39973622 24.62205988 -23.65584589 24.62205988 -65.73987966" stress="0.00012434 -0.00051915 -0.00101957 -0.00051915 0.00020252 0.00107713 -0.00101957 0.00107713 0.00036734" Properties=species:S:1:pos:R:3:vel:R:3
O 5.36845354 26.12446793 14.18616426 0.00159640 0.00082519 0.00208204
O 4.97300501 27.07045686 10.53897025 -0.00081515 0.00199820 0.00012383
O 2.20522926 20.62677332 29.36196975 -0.00252881 -0.00424212 0.00607383
O 6.54409138 4.28485047 10.54217538 -0.00308780 -0.00843271 0.01290066
O 22.38588853 12.49898453 2.52174824 -0.00336753 0.00635294 -0.00750003
O 22.87139930 14.00572042 26.41919099 0.00234858 -0.00594707 0.00745374
O 9.01834361 20.98486045 21.31952409 0.00719707 -0.00092574 -0.00438485
O 3.93994799 0.90930445 4.55725240 0.00705563 -0.00493592 -0.00270781
O 8.93346861 28.28045857 16.83269963 -0.00329382 -0.00243678 -0.00612980
O 0.44300998 1.43146075 8.16835162 -0.00454747 0.00387945 0.00734769
O 21.24338720 17.03116463 29.32690714 -0.00346548 0.00683091 -0.00558398
O 11.92720666 4.25669497 24.85164144 0.00237980 -0.00264239 0.00008381
O 16.54257949 16.92861075 1.37456311 0.00935006 -0.01041699 0.00480526
O 2.09169749 19.13920165 25.14197684 0.00143597 -0.00082833 -0.01188777
O 10.47233425 20.59678985 15.08044128 0.00794391 -0.00313383 -0.00119433
O 8.79777000 6.23972983 14.38151953 -0.00152382 -0.00966328 -0.00192355
O 7.20170069 4.62280694 15.55492439 0.00366035 0.00085963 0.00467674
O 10.14032613 5.97634221 28.83169698 -0.00395204 0.00512324 0.00545979
O 4.05361151 5.96444561 28.04284416 0.00487815 -0.01133483 -0.00621525
O 11.62808184 9.04760173 20.65473153 -0.00136970 0.00495996 -0.00549166
O 22.19491566 14.63712766 5.74284975 0.00145062 -0.00230048 -0.00109822
O 6.59463281 12.37630571 11.68347642 -0.00086570 0.00926112 0.00036559
O 13.40485790 24.14098990 26.91761767 -0.00437697 -0.00185229 -0.00540641
O 9.28505080 8.96236695 19.88710162 -0.00984192 -0.00732630 -0.00920242
O 6.75939471 1.92994405 11.45475936 -0.00422589 -0.00948853 0.00135435
O 5.16542032 10.26138068 29.52997531 -0.00510267 -0.00503301 0.00039260
O 0.72129476 12.69610100 27.17811324 0.00009510 -0.01375767 0.00672691
O 0.60909921 5.87095417 12.48647076 -0.00080421 0.00220040 -0.00136113
O 23.16125031 10.13472685 8.27081651 -0.00425924 0.00275084 -0.00281568
O 11.34170108 11.84844504 16.28030996 0.00343442 -0.00051058 0.00840038
O 7.37762298 23.86974592 24.85389099 0.01393106 -0.00355240 -0.00238400
O 22.18309710 25.85453150 6.31232575 -0.00490426 0.00599076 0.00041781
O 14.32049202 24.45582270 3.57923597 0.00017194 0.00482089 -0.00272006
O 4.04421969 21.48797980 10.95049545 -0.00165439 0.00451511 0.00300769
O 12.22303209 23.34713811 8.68827307 0.00022409 -0.00123980 -0.01021887
O 3.66844610 19.40951787 21.38405714 0.00311371 0.00838754 -0.00098753
O 1.66265777 27.99426550 18.38587240 0.00305055 -0.00289994 -0.00527458
O 18.26464357 25.54785657 29.30358716 0.00058597 -0.00577799 -0.00812583
O 4.03180208 27.46696240 1.38868097 0.00403703 -0.00777879 -0.00154449
O 5.59903348 2.15377309 27.38093260 0.00339360 0.00608025 0.00277146
O 23.26478453 23.80215687 22.02027909 0.00263399 -0.00343240 0.00987196
O 1.41542331 26.54092397 13.76668859 0.00230560 0.00351145 -0.00263763
O 7.39070638 27.31750726 9.48200618 0.00292225 -0.00257362 -0.00155677
O 2.82606496 22.88844509 28.33526099 0.00217944 0.00226702 0.00738171
O 6.90221433 9.18996251 26.91756449 0.00332397 0.00089312 0.00146521
O 17.43194894 24.33382806 5.33523972 -0.00974796 -0.00102909 -0.00510952
O 10.58628052 24.65832446 29.07051024 -0.00124198 -0.00202955 0.00144632
O 22.25261202 26.70105479 20.93012105 0.00312045 -0.00807774 0.00508833
O 19.74149671 20.02760444 25.64524621 0.00141307 -0.00650643 0.00468829
O 22.47015469 23.20540569 29.01805336 -0.00501927 0.00052915 -0.00040560
O 17.82105836 0.33447141 25.23904940 -0.00611505 -0.00335568 -0.00297026
O 1.36986643 28.73373355 27.31526781 0.00165661 -0.01009104 0.00278333
O 7.61022712 3.60825392 21.69245753 0.00505037 -0.00091066 -0.00166274
O 1.31311896 23.27945706 22.71215089 0.00070417 0.00969559 -0.00270112
O 23.24675745 16.39126652 15.73917869 -0.00232717 -0.00930211 0.00026953
O 23.50599614 24.35167319 26.67076541 0.00124944 0.00187349 0.00734512
O 14.49458784 23.47005046 10.00513874 -0.00291922 0.00594571 -0.00115683
O 3.22555138 25.23474798 2.55989609 0.00625011 -0.00508713 -0.00105695
O 16.66477407 27.98535194 19.34998223 0.00027190 -0.00840092 -0.00258934
O 21.03514608 16.23385053 21.97100903 0.00316139 0.00280168 -0.00320571
O 1.68604039 4.09099967 15.08777950 -0.00067709 -0.00670240 0.01041469
O 3.77626401 28.08625925 19.78603641 0.00398679 0.00434844 -0.00383541
O 4.81136819 13.94182136 15.65719733 0.00408530 0.00881963 -0.00052335
O 24.15730755 3.98432411 30.01522621 -0.01119257 0.00368618 -0.00256916
O 4.43631342 12.41863293 28.43896426 -0.00262074 -0.01126373 -0.00211368
O 5.85174553 1.27787434 6.30666211 -0.00775283 -0.00566352 0.00147557
O 15.30788108 6.59670620 23.50119403 -0.00045673 0.00117101 -0.00267848
O 14.22603698 10.35484963 10.93072061 0.00225824 -0.00325958 -0.00452101
O 11.79493082 7.21416349 1.63440567 -0.00715217 0.00407405 -0.00135062
O 15.64903289 10.35223913 6.46211675 0.00437918 -0.00022180 -0.00596421
O 16.76589077 5.62757136 13.36138664 0.00437249 0.00120200 0.00037989
O 21.29222143 14.42517568 11.93974951 0.00250094 -0.00019003 0.00083107
O 21.65528982 3.33408537 22.05492293 -0.00007839 -0.00426579 -0.00071846
O 9.80895476 7.95640666 5.84778546 0.00228338 0.00150525 0.00289365
O 17.89349218 9.85081515 28.53849383 -0.00670863 -0.00040302 -0.00387972
O 1.71564554 10.10998475 4.61465443 -0.00205009 0.00448147 -0.00653278
O 6.03293771 18.90403911 1.09458401 -0.00773112 0.00311470 -0.00586760
O 21.15888877 13.17309255 7.70241402 0.00528910 -0.00814785 0.00458907
O 15.67409720 2.72130995 7.72645207 0.00296369 0.00230321 -0.00315708
O 20.44118335 4.85042099 3.78997264 0.00538832 -0.00385842 -0.00588481
O 0.63492798 28.36545118 24.92124067 -0.00214404 -0.00164786 -0.00112837
O 4.27741991 11.10687106 24.03178239 -0.00307580 -0.01105947 0.00270557
O 9.98929834 13.39396272 17.86401414 0.00052942 -0.00695045 -0.00141765
O 0.07454191 6.59327373 29.77752567 0.00164107 -0.00326774 -0.00222046
O 4.97854904 18.66194516 24.58773339 0.00292409 -0.00508585 -0.00265674
O 14.91542815 27.95321537 17.38552732 -0.00455333 0.00701507 0.00595388
O 10.33456843 26.44057271 19.55244725 0.00394277 0.00145020 -0.00544387
O 16.23782328 5.78416973 29.26263690 -0.00268859 0.00688501 -0.00275629
O 4.18513452 13.50823630 22.80656109 -0.00426375 -0.00520509 -0.00106563
O 4.56139691 6.26303189 20.03877799 -0.00800006 0.00797967 -0.00299444
O 9.52017853 12.15917554 24.01961470 0.00929057 0.00539429 -0.00713343
O 15.83530038 15.83031136 15.95351404 0.00533024 -0.00174251 -0.00194985
O 14.16498148 11.47777800 25.83474148 0.00002607 -0.00102742 -0.00514608
O 15.76730882 4.34083678 15.52140452 -0.00005449 0.00383135 -0.00433868
O 9.40604400 4.16895501 20.05481451 -0.00307486 -0.00819428 -0.00057001
O 17.48897492 14.56778513 6.76166010 -0.00276017 0.00520071 -0.00541830
O 2.88500848 12.57044980 3.14211363 -0.00393104 -0.00674985 -0.00625932
O 9.44748406 12.79360887 6.34478695 -0.00177232 0.00474136 0.00486224
O 13.08924885 7.08846901 4.47505113 -0.00597837 0.00444172 -0.00456880
O 5.82912220 15.07590792 13.76972128 0.00563974 0.00680806 0.00294528
O 13.43553721 2.84585453 9.33396635 0.00349224 0.00323155 -0.00060067
O 15.10911666 23.41237380 14.89831476 -0.00205046 0.00497989 -0.00527636
O 11.07772184 19.52398743 13.02936259 0.00105386 -0.00440098 -0.00130072
O 11.36162957 16.88708902 7.80367033 -0.00126111 0.00013111 -0.00831689
O 16.76206196 19.62036500 19.28122923 -0.00549115 0.01033718 0.00139585
O 4.92908675 9.27547375 11.25400342 -0.00009236 -0.00331804 -0.00695177
O 12.74187185 8.35982552 10.60488544 -0.00398954 0.00344937 -0.00253969
O 7.51830615 2.48778977 29.21987603 0.00384301 -0.00129505 -0.00363697
O 7.51622001 26.14393047 23.20037806 0.00235069 0.00715184 -0.00153192
O 12.56042366 22.34302225 20.56880198 -0.00065787 0.00197096 0.00828548
O 6.84280803 23.48882163 10.59777761 -0.00332903 0.00856258 0.00593400
O 13.30777875 16.14778635 18.60250138 -0.00592158 -0.00124295 -0.00049009
O 19.36096006 14.17500604 21.46835636 -0.00588752 -0.00111774 -0.00316558
O 4.13053780 7.74849781 13.13240248 -0.00245490 0.00371794 -0.00385466
O 17.45043486 22.95128715 13.70289140 0.00062468 0.00389863 -0.00228005
O 13.42191545 27.13767684 28.62049363 -0.00208073 0.00426261 -0.00192138
O 9.34621171 3.80010620 24.92271132 0.00064066 0.00176527 -0.00205825
O 17.66555004 19.01788462 26.61186484 0.00182083 0.00289083 -0.00020564
O 11.80321847 17.16017277 16.91005036 -0.00262329 0.00115170 0.00253487
O 13.63585655 20.82461074 22.80001909 0.00291199 0.00214830 0.01167351
O 8.31687703 9.76509812 4.85780095 0.00419581 -0.00415268 -0.00735349
O 2.48090432 12.16338771 17.33129107 -0.00886823 0.00286431 0.00588366
O 15.89175912 29.23268177 12.03474295 -0.00050242 0.00027060 -0.00053071
O 4.74033207 14.42655076 7.53160226 -0.00796800 0.00426189 0.00402319
O 12.48215238 27.44767733 13.32012304 -0.00084523 -0.00182185 0.00391131
O 13.76784161 22.92337772 1.62335835 0.00536211 -0.00220943 0.00161546
O 10.85418874 16.50605040 10.53194760 0.00080643 -0.00026386 -0.00176156
O 9.46288073 21.68302796 4.11309371 -0.00679605 -0.00188987 0.00330169
O 0.68929239 26.28940738 11.14453528 0.00385812 0.00574754 -0.00163274
O 24.13341096 12.11936193 21.41506897 0.00036296 -0.00612483 -0.00474682
O 4.80592239 0.49173380 1.85422963 -0.00096250 -0.00282747 0.00523208
O 14.50716390 12.79223760 0.90508715 -0.00588365 0.00612418 0.00446575
O 16.46670062 17.25810634 6.29035022 -0.00478980 -0.00542728 -0.00206802
O 4.48861823 17.35988903 2.68597771 -0.00205863 0.00363813 -0.00010577
O 22.19115161 0.50386741 8.56832457 0.00458783 0.00063203 0.00089589
O 19.37818435 28.30350222 2.72302300 -0.00557178 -0.00157552 0.00408428
O 3.81578748 21.92369413 20.83363358 -0.00094587 -0.00148254 0.00140027
O 24.01118796 8.22470859 15.16317832 0.00044029 -0.00077804 0.00280564
O 10.30951924 29.45429067 5.10404731 -0.01051226 0.00113708 0.00152594
O 13.60783399 16.10339588 26.75185315 0.00074892 0.00451550 -0.00386971
O 20.35888661 5.49005391 21.71383993 -0.00068038 0.00549449 -0.00407646
O 24.21428740 13.42136126 1.17864216 -0.00900625 -0.00010010 0.00828732
O 20.43898089 6.29785684 6.45510401 0.00108032 0.00003191 0.00449686
O 23.46613884 10.09705607 23.30196711 -0.00333178 -0.00489960 -0.00349161
O 6.32410579 27.85517184 16.85122763 -0.00409350 -0.00642138 -0.00408099
O 11.09973324 16.66472794 28.11181254 0.00046085 -0.00651998 0.00090558
O 16.33213496 4.12390847 27.11359982 0.00027929 -0.00852986 -0.00002171
O 15.65644568 13.16263765 21.73732380 -0.00278079 -0.00766245 0.00152119
O 19.57338486 11.86550205 20.18560194 -0.00338231 0.00399219 0.00805508
O 2.74071993 3.84113841 17.31536203 0.00132413 -0.01610086 -0.00265874
O 22.64489482 16.16480485 10.75429124 -0.00296487 0.00085351 0.00482077
O 21.59476989 4.38026404 25.66037914 0.01088995 0.00302646 0.00054159
O 20.04309817 28.10766414 7.90776280 -0.00727733 0.00435984 -0.00552150
O 9.31270455 18.50570595 22.19102807 0.00047293 0.00167954 0.00649131
O 14.32743121 27.60822197 26.20547352 -0.00272454 -0.00017749 -0.00343203
O 16.37627760 8.27905258 5.09276603 0.00450010 0.00128332 0.00538406
O 14.12505043 18.35220733 12.00986768 -0.00064402 0.00016678 0.00272238
O 0.60827447 6.79530386 22.47740002 -0.00363439 0.00323789 0.00956495
O 4.26660906 17.68458343 13.13215335 -0.00224405 0.00387071 0.00396664
O 0.69920195 0.65254550 29.23475254 -0.00021067 -0.00270427 -0.00876668
O 19.68553848 19.28365763 5.58556929 -0.00323546 -0.00480041 -0.00123304
O 19.82296181 22.28575378 13.85402207 0.00184905 -0.00565876 0.00315162
O 16.89116323 28.13912108 2.27311944 0.00125181 0.00001327 -0.00437299
O 1.19809718 29.23427201 13.75953107 -0.00345180 -0.00360383 -0.00200552
O 19.41170515 2.46561679 16.15958362 -0.00069857 -0.00398523 -0.00310894
O 7.56879567 22.25737748 2.76007615 -0.00099467 -0.00046475 0.00072425
O 13.32591476 14.78636529 2.13453576 0.00128447 0.00853279 0.00139379
O 10.97012045 21.59261173 28.65113447 0.00027466 0.00052364 -0.00759839
O 21.16232521 13.18787019 14.31813745 0.00127149 0.00089176 -0.00067565
O 20.42091058 20.39348906 7.83208241 -0.00057166 -0.00049835 0.00045047
O 14.42899192 4.36473234 0.42099954 0.00219510 0.00719036 0.00106483
O 1.15587742 18.44911933 7.00018094 -0.00641968 -0.00103624 0.00321413
O 21.42643662 26.58988056 29.01284075 -0.00392522 0.00157302 0.00027636
O 2.03719860 19.16947317 1.54621287 0.00378340 0.00141242 0.00461527
O 8.11348767 14.91554629 5.48686028 0.00048298 0.00162026 0.00514340
O 22.32318978 17.56095461 17.94656100 -0.00291170 0.00192090 0.00560172
O 18.94158836 7.30638920 13.50635278 0.00218384 0.00042532 0.00281715
O 17.26921309 0.58278279 9.97584955 -0.00225937 0.00035250 0.00221098
O 17.22956120 22.23939330 19.23582183 0.00383195 -0.00584460 0.00299880
O 21.89376904 23.38345624 6.02996679 -0.00617291 0.00901090 -0.00074354
O 19.07029370 3.85302366 26.90929209 0.00067013 -0.00353928 0.00663124
O 7.30986827 16.94097160 13.40765826 -0.00010509 0.00741787 0.00007986
O 16.56451468 1.52921096 20.28613750 -0.00068943 -0.00221094 0.00247142
O 22.25784756 23.61023205 15.94796109 -0.00304250 -0.00517061 0.00315409
O 20.53626916 21.41633699 29.59061022 -0.00193909 0.00089591 0.00630639
O 12.72799777 28.66056461 5.90743791 0.00779046 0.00066383 -0.00529423
O 15.66763860 23.47179395 25.53237934 -0.01494066 0.00566861 0.00568731
O 20.53826928 3.42962440 12.33454250 0.00661441 0.00112686 0.00342503
O 20.37909224 25.52546342 15.60548824 -0.00177014 -0.00177476 0.00511228
O 6.68088275 24.23281428 15.62489012 0.00287756 -0.01217400 0.00032792
O 15.17545975 7.92111888 21.28790818 -0.00232951 -0.00028952 -0.00922759
O 14.15403369 17.21379262 1.69467211 -0.00460578 0.00508665 0.00057143
N 15.06097963 21.80779124 8.51191778 -0.00386805 -0.00024512 -0.00470088
N 2.53903938 2.15760506 8.85695199 -0.00507860 0.00301173 0.00000956
N 8.23287858 27.13767937 7.45474882 0.00149032 0.00172637 0.00255397
N 1.77924831 7.13681895 11.00391659 0.00211659 -0.00003851 -0.00225065
N 24.00984495 2.85325062 15.58420989 -0.00117700 0.00180456 -0.00073996
N 0.04883822 18.87605345 24.14389201 -0.01107805 -0.00235406 -0.00138325
N 8.83445527 26.07921541 29.04551302 -0.00364632 -0.00826399 0.00489292
N 23.40225787 27.72622015 5.87399020 -0.00258999 -0.00112009 -0.00004786
N 21.58450061 22.63334843 20.93870170 0.00256030 -0.00122580 -0.00391914
N 5.19653318 8.07015057 0.30592679 0.00056455 -0.00618230 0.00139559
N 16.36007714 26.59222555 21.06076365 0.00639567 0.00156655 0.00409144
N 12.54259447 6.42224851 25.44141673 -0.00139681 -0.00911722 -0.00981554
N 7.28307872 7.34032758 25.84328229 -0.00873780 0.00551104 0.00746922
N 11.16745319 10.39336728 14.55053549 -0.00570810 -0.00508238 -0.00222814
N 3.85412051 14.52779105 17.72723425 0.00378911 -0.00282411 -0.00078824
N 7.83689426 8.18250746 14.58689962 0.00184934 0.00866136 -0.00170282
N 8.40346299 0.38334554 11.64499982 0.01039217 0.00448349 -0.00592010
N 1.07976150 24.39862436 14.55570574 0.00200039 -0.00232072 -0.00622645
N 21.55464644 18.66080739 27.65761904 -0.00110070 -0.00649903 -0.00061351
N 22.71131331 17.38938031 20.96204235 0.00046324 -0.01228541 0.00539192
N 22.33667949 8.77987689 6.74763406 -0.00387552 0.00252120 -0.00377145
N 19.42882986 23.62882183 4.38042552 0.00227332 0.00146050 0.00140649
N 11.33296357 22.19632726 16.40199128 0.00502175 0.00006056 0.00473886
N 0.01726398 3.12259216 27.92066534 -0.00213120 -0.00352458 0.00109901
N 9.61989509 29.18945315 14.86480923 0.00629222 -0.00169357 -0.00026709
N 1.80687503 23.61838206 3.27542616 -0.00500552 0.00805842 -0.00057138
N 0.84760489 10.39491859 27.27249054 0.01416764 -0.00344290 -0.00916345
N 4.19684247 23.95381891 26.89018063 0.00709667 0.00328147 -0.00503869
N 18.68569108 16.24258913 1.66566532 -0.00521707 -0.00697262 -0.01149840
N 4.92625114 27.12864383 21.56247501 0.00920847 -0.00570480 0.00667340
N 8.93496109 22.42385469 24.16148473 -0.00526507 0.00284021 0.00256142
N 21.10761176 27.49498532 22.81285652 0.00453528 0.00111201 0.00902049
N 8.11353412 10.76765877 2.80635258 0.00805266 -0.00809778 -0.00118370
N 9.22849681 5.79753038 6.28906832 0.00084703 0.00113270 0.00379666
N 12.47089714 6.11087746 9.86615470 -0.00257123 0.00587714 0.00237488
N 15.79378698 13.79234482 15.00429292 -0.00092223 -0.00642018 -0.00349815
N 12.35410107 27.39344767 11.03625813 -0.00394671 0.00211898 -0.00290092
N 20.33776239 11.52525763 8.98972757 -0.00468890 -0.00656325 0.00402517
N 7.26169312 21.54947898 9.46138741 -0.00085537 0.00273078 0.00056061
N 16.80571346 13.65402122 8.75367518 -0.00318312 -0.00142576 -0.00852927
N 16.01810387 17.60458613 18.58702981 -0.00250789 0.00663615 -0.00085072
N 6.38051574 7.61545496 20.18748183 -0.00462892 -0.00057697 0.00540788
N 16.18564563 28.22845827 14.16860330 0.00048417 0.00139260 -0.00878739
N 1.38704953 7.90788216 4.82691214 0.00561887 -0.00601970 -0.00243456
N 8.88138272 27.97558896 23.55291667 0.00656935 0.00888599 -0.00958819
N 13.70623407 3.62422782 16.00816472 0.00437372 0.00292817 0.00452353
N 10.29675755 14.95038736 12.03637808 -0.00914943 -0.00402604 -0.00583723
N 21.01341641 6.28095960 2.14057888 0.00115626 0.00051621 -0.00837464
N 6.39016809 13.66531887 23.50616612 0.00042630 0.00143061 -0.00633931
N 6.35686157 9.47094283 9.47852694 -0.00055578 0.00478152 -0.01105691
N 17.33891796 10.87802074 26.54184805 0.00387151 -0.00324523 -0.00109940
N 3.13355319 13.80417229 9.11687872 -0.00706395 -0.00354352 0.00446288
N 14.11589519 9.96206623 27.45877485 0.00001865 -0.00054343 0.00807640
N 12.73217233 24.49503921 19.73884123 -0.00522612 0.00685196 -0.00289252
N 15.60456282 5.00514082 7.91233469 0.00315454 0.00230681 -0.00693677
N 9.74985687 21.99254543 6.33938878 0.00512212 -0.00259623 -0.00307236
N 23.73784904 2.81810959 21.28073449 0.00224431 -0.00511661 -0.00098282
N 3.41047152 10.21503435 18.06778775 0.00247512 0.00195326 -0.00142045
N 10.36875912 14.17014555 23.32874409 0.00069768 0.01178326 0.00569742
N 9.03311727 0.94159104 29.56447977 -0.00276163 0.00020878 0.01401011
N 7.51759047 19.39233119 29.43787250 -0.00411990 0.00214041 -0.00550882
N 14.35678685 21.02884516 0.50837197 0.00466366 -0.00316236 0.00348377
N 10.79059001 2.46402466 20.24885609 0.00498143 -0.00526387 0.00699315
N 14.15650920 15.67954433 20.68421903 -0.00124297 0.00330332 0.00103359
N 18.59600204 21.74457415 0.75367384 -0.00354691 0.00027834 0.01110262
N 23.67451421 9.94768518 16.46879693 -0.00860947 -0.00507738 0.00233983
N 13.35876329 2.35308266 0.40161610 0.00277757 -0.00282870 -0.00259322
N 17.23354945 8.48134523 3.06768966 -0.00221998 0.00227433 -0.00162678
N 19.90272892 26.86194626 13.82700340 -0.00224168 -0.00118501 0.00470006
N 0.88811390 14.51859031 29.61118755 -0.00379462 0.00317374 0.00444918
N 7.86843284 15.09091319 3.15555763 -0.00256160 0.00119271 0.00143935
N 24.18565533 1.29653307 1.17564470 0.00391271 -0.00838857 -0.00491857
N 20.11992063 12.12176696 16.06143558 0.00049012 -0.00693157 -0.00892878
N 7.85799129 17.61652736 23.65146397 -0.00970642 -0.00944026 -0.00044109
N 17.71716940 24.03483072 24.60388203 -0.00081875 0.00208558 -0.00356922
N 15.63291011 15.19381614 26.90408432 0.00286649 0.00294577 -0.00889784
N 20.09806829 28.33617390 28.77040664 -0.00620176 0.00499270 0.00542120
N 1.94650717 4.96286571 22.63687472 -0.00254447 0.00145311 0.00817324
N 16.63978796 7.13317185 19.69248463 0.00253474 0.00795445 -0.00407672
N 21.83631528 9.97577047 25.00527959 -0.00801292 -0.00079445 0.00187526
N 19.92713077 25.95493417 8.83146432 -0.00404177 0.00606401 -0.00014240
N 21.83500397 19.75055830 9.45257111 0.00868715 0.00027281 -0.00060040
N 9.86283067 1.72090422 3.71009025 0.00542085 0.00481067 -0.00292138
N 22.72793991 4.06058292 12.07818726 -0.00580540 -0.00248058 0.00069936
N 16.35336096 18.40145167 11.73230916 -0.00960998 -0.00240083 0.00104642
N 2.90824553 19.36434623 3.60068010 -0.00323995 0.00018793 0.00510077
N 19.72820549 5.56444129 8.50329509 -0.00110295 0.00202496 0.00070593
N 12.75931443 18.49318898 3.04426827 0.00289861 0.00490007 -0.00131298
N 3.91028933 23.96998936 19.73328079 -0.00257351 -0.00424893 -0.01002475
N 14.85620202 28.82896882 4.92669459 0.00026794 0.00594297 -0.00231998
N 13.89682290 29.23528218 24.56133569 -0.00109670 0.00280007 0.00170134
N 1.73261719 20.31704981 8.20502236 -0.00278547 -0.00235596 0.00146569
N 19.55965981 7.11645436 22.99903640 -0.00150410 0.00246487 0.00605112
N 7.08028051 21.99274884 15.72615094 0.00865077 0.00820161 0.00487987
N 2.34023983 18.69509368 13.85977847 0.00467470 0.00324055 -0.00244871
N 20.36947691 18.64880806 17.66637719 0.00482105 -0.01046570 -0.00198568
C 8.19553344 27.66727460 12.39277657 0.00388112 -0.00596271 -0.01289112
C 2.40393541 29.28343304 9.25531901 0.00436008 -0.00589622 -0.00023324
C 23.19884540 20.47608861 27.72888156 0.00635205 0.00411509 0.00263331
C 3.27323356 5.22083522 11.74725794 -0.00603791 -0.00022854 -0.01607766
C 21.50000472 9.65956744 4.69032172 -0.00609606 -0.00223898 0.00229874
C 0.79145335 16.76327403 25.22721711 0.00461470 0.00214258 -0.01357606
C 10.11081250 22.83682844 18.32864265 -0.00419787 0.00312875 0.00031594
C 0.38586163 0.12637037 5.55106479 0.00940404 0.00404357 -0.00407753
C 7.47187105 26.69872138 13.04302436 -0.00305082 -0.00846945 0.00413206
C 3.02930214 28.17794097 9.67705797 0.00813977 0.00428299 -0.00897197
C 0.08655429 21.02097666 28.19677994 -0.00454592 0.00214738 0.00850776
C 4.48527455 4.60690933 11.65498776 -0.00083154 -0.00062455 0.00280983
C 21.54671576 10.41500072 3.53037857 -0.00182698 0.00241440 0.00000980
C 0.35654678 15.50511052 25.69799818 0.00397906 -0.00024625 0.00544985
C 9.66936553 22.53755129 19.57446992 -0.00512702 0.00322609 0.00359756
C 1.66060105 0.87251599 5.42664626 -0.00751170 0.00044460 -0.00084089
C 6.21585298 27.09719942 13.67083737 0.00732220 -0.00825381 0.00517123
C 4.31737967 28.23308563 10.22996421 0.00521850 0.00653488 -0.00076706
C 0.99649284 20.26065022 28.93580345 0.00143835 0.00024271 0.00530599
C 5.26925698 4.76518934 10.57218645 0.01387455 0.00204072 -0.00177088
C 22.27139416 11.62265909 3.54110305 0.00187281 -0.00420985 0.00053647
C 23.27544296 15.09558677 25.73231524 -0.00266086 -0.00195837 0.00140267
C 9.49963028 21.22608845 20.02474307 0.00628959 -0.00416027 -0.00490124
C 2.73591011 0.24156906 4.82744719 0.00861348 -0.00370854 0.00505509
C 5.90263221 28.51553826 13.77350602 0.00102452 -0.00342915 -0.00561125
C 4.87620699 29.49496114 10.44812916 0.00280857 0.01946115 -0.00088447
C 0.70583107 18.84790609 29.04156089 -0.00213768 -0.00621875 0.00075614
C 4.79897635 5.55901147 9.51305538 0.00314541 -0.00022972 0.00149227
C 22.98545964 11.94462131 4.69110479 -0.00084503 -0.01481597 0.00278179
C 22.41201455 15.85439437 25.03195243 0.00371984 -0.00624756 0.00406372
C 9.74721500 20.16957898 19.10955050 0.00779332 -0.00195170 -0.00040863
C 2.66831325 28.41875831 4.60520952 0.00377726 0.00211509 -0.00245048
C 6.76321442 29.42070711 13.19276380 0.00626668 0.00647003 -0.00372467
C 4.26308854 1.00184786 9.84056645 0.00660692 -0.00118519 0.01248686
C 23.69569543 18.31545423 28.77255303 0.00257164 -0.00082859 -0.00068392
C 3.69600728 6.31177254 9.72642696 -0.00411635 0.00008229 -0.00610197
C 22.89619563 11.08130120 5.80310104 -0.00711459 -0.00327897 -0.00469284
C 22.81221831 17.10169437 24.50110494 0.00109579 0.00202933 0.00612632
C 10.27802853 20.46900136 17.81866640 0.00253971 -0.00415634 0.00443413
C 1.44844368 27.78038386 4.78950037 -0.00338975 0.00824292 0.00584016
C 7.71386162 29.01200932 12.34918457 -0.00253164 -0.00055504 0.00296294
C 3.04565929 0.94260465 9.35418874 0.00180533 0.00249320 0.00059747
C 22.80711353 19.16378012 28.10429463 -0.00031973 -0.01123593 -0.00317061
C 2.89974297 6.26124023 10.89079089 -0.00567914 -0.00532542 -0.00045890
C 22.35732929 9.84234155 5.76062408 -0.00761696 0.00293244 0.00407261
C 24.08718769 17.54758919 24.57434503 -0.00353398 -0.00861778 0.01083951
C 10.57778630 21.76909380 17.48209535 0.00132585 -0.00280938 -0.01079327
C 0.25325880 28.34156917 5.37758269 0.00214599 0.00147830 -0.00819676
C 7.91773253 1.66061285 11.50295236 -0.00440773 -0.00660435 0.00041937
C 1.20763970 2.34791753 8.49955221 0.00569982 -0.00749383 0.00511394
C 20.97833861 17.55410341 28.23200104 0.00006282 0.00883971 0.00344622
C 0.87215350 6.99570141 12.04705209 0.00425142 0.00598426 0.00756240
C 22.88144594 8.97896289 7.92299797 0.00293758 -0.00123737 0.00580757
C 1.14401134 19.57639396 24.47770740 -0.00038251 0.00789996 -0.00970974
C 11.35523847 21.45910749 15.32599968 0.00559400 0.00552058 -0.00216284
C 22.91717819 26.41614397 5.53505706 0.00791498 -0.00651101 0.00458721
C 23.17061889 23.89487692 19.71072497 0.00086923 0.00040641 -0.01388155
C 0.81688106 3.82871537 8.50265372 -0.00129338 -0.00063144 0.00241974
C 6.18564067 28.25237911 7.72321718 0.00695353 0.00027987 -0.00463541
C 12.95126064 4.58101578 26.98579350 -0.00168708 -0.00185192 0.00090581
C 8.05936954 9.54523680 24.92966229 0.00818521 -0.00330948 0.00379843
C 1.22810850 20.97651391 23.98256838 0.00853270 0.00482522 -0.00000793
C 8.42480004 23.69176535 28.67171146 -0.00017559 0.00181008 -0.00358899
C 7.82001456 7.21637166 12.42192250 -0.00247794 0.00383926 0.00586120
C 9.50174269 1.96967567 14.41759828 -0.00075220 0.00050376 0.00149234
C 6.75880940 6.30731223 30.05333229 0.00347112 0.00641148 0.00259676
C 2.94781275 9.33906842 26.94349876 0.00152184 0.00203869 -0.00661492
C 12.01782378 8.55688975 24.14664117 -0.00540266 -0.00976207 -0.01244731
C 20.90576327 15.91244777 2.42868146 0.01036141 -0.01119184 -0.00195472
C 9.86386008 10.82847765 12.49114875 0.00523248 -0.00261676 -0.00085362
C 11.16936682 21.90682175 25.16733653 -0.00141607 0.00005840 -0.00424551
C 9.46481658 7.69267045 16.39699932 0.00038768 0.00583943 0.00590932
C 8.82588031 3.17119144 14.42427085 -0.00088718 -0.00741094 0.00398225
C 8.01528276 5.79819014 29.86067788 -0.00675099 0.00293500 -0.00171996
C 3.81346752 8.31402026 27.28220325 0.00011862 -0.00078033 -0.00438064
C 11.91348339 9.12709964 22.91346744 -0.00328437 -0.00102877 0.00300344
C 21.72259928 15.54644155 3.48062174 -0.00599500 0.00104065 -0.00063675
C 8.78144938 11.34213257 11.84959801 -0.00151250 -0.00027565 -0.00296687
C 12.32015119 22.46459198 25.52477966 -0.00275495 -0.00657408 -0.00479974
C 9.82429576 7.95261182 17.73178975 0.00885208 -0.00500948 0.00962432
C 7.74755472 3.39508575 15.31227542 -0.00600059 0.00492523 -0.00295342
C 8.95724059 6.62327403 29.26981855 0.00233676 -0.00781043 0.00318502
C 3.25697591 7.08473900 27.61795443 -0.00039410 -0.00428626 0.00229102
C 11.82398479 8.42993725 21.72229253 0.00527230 0.00922178 -0.00002693
C 21.33895412 15.23753190 4.79268667 -0.00054773 0.00915250 0.00089761
C 7.74577326 11.99949914 12.45587309 0.00336237 0.00933059 0.00558801
C 12.37213503 23.76587137 26.15100432 -0.00610308 -0.00787456 -0.00050364
C 9.11236270 8.86013864 18.52828461 0.00424627 -0.00237360 -0.00163230
C 7.36357358 2.27469905 16.08154792 0.00413447 -0.00588422 -0.00124002
C 8.64830647 7.98741954 29.10376575 0.00417493 -0.00903363 0.00713001
C 1.93876693 6.88176392 27.55655347 0.00141666 0.00456807 0.00747757
C 12.13764156 7.03193354 21.78274963 -0.00245407 0.00878050 0.00943168
C 19.98714613 15.49565704 5.03921824 -0.00605996 -0.00897489 0.00156863
C 7.84044970 12.17006219 13.91618438 -0.00295364 0.00157213 -0.00133801
C 11.22170910 24.55499444 26.02910041 0.00472888 -0.00651075 0.00081637
C 8.02019169 9.56453652 17.96465373 -0.00114780 0.00381254 0.00657005
C 7.98457685 1.02825605 16.04513568 -0.00114733 -0.00459239 -0.00298670
C 7.60145653 8.52272202 29.77742200 -0.00181788 0.00357710 -0.00357660
C 1.08645211 7.98814790 27.35115393 -0.00037904 0.00155169 -0.00151878
C 12.33200240 6.44972020 23.03433608 -0.00147809 0.00063958 -0.01054566
C 19.14902970 15.87713089 4.03103564 0.00647740 -0.00064004 0.00277672
C 9.01230880 11.68701207 14.58761325 -0.00056257 0.00227680 -0.00725208
C 10.03002740 24.09453281 25.53379658 0.00056800 -0.00218985 -0.00332889
C 7.59980106 9.30650034 16.66233344 0.00163273 -0.01077646 0.01075635
C 9.05118799 0.87748171 15.16781046 0.00321988 0.00565261 -0.00316607
C 6.54443782 7.72900448 30.05970010 0.00079639 0.00110268 -0.00207822
C 1.61447204 9.26300266 27.12947434 0.00036667 -0.00554014 -0.00288722
C 12.27658161 7.09593378 24.25107054 -0.00292931 0.00725247 -0.00453690
C 19.55507792 16.02581274 2.74349696 -0.00098781 -0.00547198 0.00300836
C 10.04871623 11.03063795 13.91144120 -0.00397746 -0.00107097 0.00556436
C 9.88359062 22.71809673 25.11956804 -0.00019829 0.01079977 -0.00563883
C 8.26826688 8.39173488 15.90828938 0.00061348 0.00478477 0.00441562
C 9.56607193 28.08435680 15.77624958 0.01375990 0.00926012 -0.00875952
C 4.59381940 9.39203404 0.17074252 -0.00554463 -0.00255946 -0.00579251
C 1.02127563 11.62250740 26.65647156 0.00010675 -0.00188463 -0.00291559
C 12.43806218 5.01462192 25.64890446 -0.00448090 0.00467434 0.00091147
C 17.37614238 15.97753017 1.67571446 0.00194097 -0.00058689 0.00604291
C 11.68343204 10.83349936 15.73555193 0.00594196 0.00781781 0.00137225
C 7.66840171 22.96557823 24.02384070 0.00212861 0.00327470 -0.00995733
C 8.17270974 7.15683652 13.86639480 -0.01078305 -0.00299138 -0.00434433
C 14.86484854 21.32576344 10.88131350 0.00563322 0.00375951 0.00659662
C 3.23866366 9.52010447 0.89680590 0.00576641 0.00241972 0.00203873
C 16.86049734 25.78624328 18.82498607 0.01262292 0.00317015 -0.00159167
C 0.22665741 8.22577490 12.50431247 -0.00292808 -0.00479793 0.00039724
C 23.85180481 5.33820066 15.15031055 -0.00251821 -0.00637558 0.00382129
C 12.82236449 9.98132017 16.36487667 0.00388109 0.00490186 0.00293844