1920
Time=80000.00000008 pbc="T T T" Lattice="24.63065225 0.00000000 0.00000000 0.00000000 30.04070558 0.00000000 0.00000000 0.00000000 28.97684019" energy=-12189.94056278 virial="-103.67200656 3.78408514 -15.15851698 3.78408514 -150.98993106 -3.71403130 -15.15851698 -3.71403130 -111.36355488" stress="-0.00144926 0.00021722 -0.00063471 0.00021722 -0.00341596 -0.00012642 -0.00063471 -0.00012642 -0.00198760" Properties=species:S:1:pos:R:3:vel:R:3
O 4.58355882 26.44984881 12.95303344 -0.00115348 -0.00679808 0.00840035
O 3.68103886 27.83879804 9.40182753 -0.00413733 0.00859958 -0.00517888
O 4.16192061 22.68371394 26.54661096 -0.00279044 -0.00133142 0.01473925
O 6.07485841 4.18923946 10.73959530 -0.00524907 0.00025921 0.00630979
O 21.94908857 13.59821592 0.84453507 -0.00043870 0.00764527 0.00795955
O 22.40607641 14.85244187 25.47004771 -0.00177463 -0.00479563 -0.00312130
O 9.00609353 17.64417079 19.68561923 -0.00108238 -0.00789611 0.01440985
O 4.07952104 1.34946222 5.29386551 0.00663303 0.00611918 -0.00071180
O 8.22550064 26.82541223 14.44115013 0.00696660 0.00510918 0.00088649
O 23.99210835 2.39571266 10.65422774 -0.00166723 -0.01426211 0.00515375
O 23.61655496 18.90969770 27.26014024 0.00938496 0.00074810 0.00474138
O 11.57259986 4.56755494 23.75485580 -0.00257000 0.00287418 0.00559267
O 16.54381730 18.36532840 2.10278989 0.00348524 -0.00514496 -0.00491196
O 1.49532757 19.75045342 24.11172313 -0.00085119 -0.00106924 0.00278595
O 10.41912640 20.13369711 14.04496875 0.00216803 0.00098897 0.00595489
O 9.48043984 5.23070761 13.89503210 -0.00102210 -0.00223851 -0.00147652
O 8.04307347 3.27870979 14.30625919 0.00025482 -0.00019648 -0.00047445
O 8.70995344 7.13862421 28.59598683 -0.00009113 0.00323614 0.00395336
O 5.39828038 8.32088349 23.53195243 0.00413464 0.00536012 0.00173002
O 12.09420504 8.75120638 19.04762347 0.00277037 -0.00326637 0.00526778
O 22.04266511 13.77179616 4.85081373 -0.00077254 0.00145338 -0.00139079
O 8.69018796 11.97089489 10.65740128 0.00369314 0.00585282 0.00175720
O 14.50073575 25.17544863 25.29298863 0.00070255 -0.00012997 0.00098143
O 9.69988406 9.60578503 18.47057186 -0.00257344 -0.00047937 0.00042279
O 6.85640859 2.23892092 12.09059238 0.01061421 -0.00416653 0.00459287
O 4.94821118 12.36845615 0.27949590 0.00051748 0.00213949 0.00339252
O 24.08781217 12.88199610 24.59980077 -0.00331269 0.00228810 0.00648714
O 0.91586769 6.03316702 13.52872382 -0.00211262 0.00097778 0.00239463
O 23.76784013 10.05391184 5.54950069 -0.00225205 -0.00091765 0.00080991
O 12.13665369 13.09091682 15.92956010 -0.00249279 0.00739701 0.00831108
O 8.62132949 24.64239941 22.99362047 -0.00269995 -0.00790639 -0.00045037
O 22.12739818 27.41936421 5.90461349 0.00689861 -0.00421498 0.00125827
O 12.59766260 24.47702370 3.79029849 0.00109906 -0.00383317 0.00226066
O 3.07595938 22.54611505 9.59297892 0.00729802 0.00973521 0.00210866
O 10.72579578 22.87834327 9.33847130 0.00144996 0.00438234 -0.01397426
O 3.12122095 17.72306310 19.82321630 -0.00457884 0.00335037 0.00068627
O 4.80353743 28.34633535 16.64288914 -0.00142137 -0.00475071 0.00138717
O 18.01574431 26.09240516 0.15880519 0.00272397 0.00350581 -0.00152215
O 4.64381464 27.69059524 1.42601297 -0.00240450 -0.00566397 -0.00025588
O 7.55168707 1.07908245 25.56682482 0.00583065 -0.00559994 -0.00391173
O 24.00866464 23.99899885 20.71140728 0.00105263 -0.00375641 -0.00855350
O 0.51218557 27.18979901 13.06240828 -0.00287640 -0.00625030 -0.00047509
O 6.29158581 27.16776887 7.89975923 -0.00447240 0.00077347 0.00457278
O 6.19792993 25.31163890 25.95138067 -0.00124353 0.00581166 -0.00214783
O 9.09240549 6.25286839 25.96391231 -0.00604311 0.01166645 -0.00254663
O 16.57785538 23.90327801 5.68912814 0.00648198 -0.00010830 0.00561762
O 10.87434496 24.60828442 27.43731741 -0.00217323 0.00060223 0.01099898
O 23.93011107 27.09294655 22.61468702 0.00285460 0.00412553 -0.00307168
O 19.54319843 21.20528095 24.44771454 0.00121748 0.00011090 0.00093138
O 22.79980899 24.33925205 1.19149120 0.00145937 -0.00115329 -0.00590235
O 21.57376586 1.85678537 23.69910331 0.00061529 -0.00244848 -0.00444342
O 0.97841431 28.52073001 27.47001347 0.00151115 -0.00433906 0.00143725
O 5.83556263 3.36636487 19.81722891 -0.00355705 0.00402743 0.00101758
O 2.19961565 23.64368073 19.91492335 0.00153349 0.00913153 0.00116090
O 0.14497308 14.82958330 17.29015218 -0.00901912 0.00009222 -0.00111749
O 21.86234724 26.01007758 28.63775744 -0.00766325 0.00399790 -0.00162761
O 13.15373884 23.67396257 9.54386572 -0.00238301 -0.00287245 -0.00016672
O 4.36400082 25.71910310 3.14571719 -0.00460280 0.00291190 -0.00693060
O 17.94659863 1.07563628 18.58562896 0.00039758 0.00047752 0.00091380
O 20.34793131 16.78470069 21.54707671 0.01004324 0.00769101 0.00083342
O 0.48102080 2.65599710 17.80924880 -0.00307871 0.01118219 0.00629935
O 3.00312109 29.97285548 21.72254191 0.00346794 -0.00155559 0.00383195
O 5.00568147 15.69669988 13.23861920 0.00155148 -0.00291763 0.00029662
O 3.30522327 4.32823321 28.85177495 0.00978089 0.00094365 -0.00075102
O 4.61714720 14.16586337 27.22356259 -0.00226724 0.00187640 0.00251028
O 5.31919055 2.07692730 7.64917878 -0.00115107 -0.00293613 0.00448398
O 15.86538196 7.04859067 23.88103209 -0.01116988 0.00500669 0.00317197
O 12.89007151 10.50656328 10.00711859 0.00218908 0.00138270 0.00538650
O 12.46904240 6.27813337 2.29271452 0.00322587 0.00807144 -0.00439247
O 14.69066448 10.41084461 6.26975626 0.00199141 -0.00463212 -0.00273360
O 17.55944259 5.89900212 12.53398554 -0.00225705 0.00470512 -0.00408801
O 21.05144584 14.94830209 11.31976491 -0.00175338 -0.00976891 -0.00178882
O 23.25461397 6.43149188 20.60155197 0.00285769 0.00383907 -0.00136970
O 9.00040998 8.38844543 4.77150191 0.00989277 -0.00931533 -0.00419196
O 19.67073530 10.99116477 27.46373164 -0.00541072 0.00823034 -0.00449039
O 2.95563270 10.08499129 6.21562660 -0.00661205 0.00005166 0.00011322
O 7.49669135 18.40499538 27.86094687 -0.00485302 0.00072925 -0.00799363
O 20.69455041 11.92769468 6.28913217 0.00583925 -0.00041850 -0.00008286
O 14.49555728 2.68049453 8.07674845 -0.00263218 0.00068073 -0.00727907
O 22.23213081 4.32544558 3.35194281 0.00048786 -0.00239067 0.00143822
O 0.33289754 2.40217909 25.40381285 -0.00552107 -0.00113121 -0.00071683
O 7.11857913 10.42432351 21.75593256 -0.00197690 -0.01092305 0.00006728
O 10.18578202 14.09706825 17.30911584 0.00298079 -0.00876238 -0.00388374
O 1.97047365 6.69954357 0.88548606 -0.00081826 -0.00216072 0.00023939
O 3.32748140 18.19214297 23.16679723 0.00032844 -0.00925803 -0.00039368
O 17.48193676 0.45164255 15.96683216 -0.00448287 -0.00155594 -0.00021940
O 8.27532721 25.64402183 19.12452089 0.00689599 -0.01146398 -0.00872774
O 16.71775659 4.85204090 0.35896726 -0.00776246 0.00671244 -0.00414316
O 4.66257591 14.36458112 20.89829983 0.00317463 -0.00088865 0.00332232
O 5.00928354 6.44378026 17.16262749 0.00658416 -0.00083417 0.01024031
O 9.23816304 11.32961661 22.94836212 -0.01077818 0.00586204 0.00398984
O 16.23313689 14.12323109 15.86203634 -0.00050735 -0.00127623 0.00223639
O 13.54015487 11.05374358 25.20534175 -0.00233355 0.00186028 0.00257757
O 17.59006580 6.70974156 14.81894646 0.00558173 -0.00057859 -0.00175150
O 7.60262338 2.00961627 18.78057791 0.00146204 0.00208219 0.00670577
O 16.80073019 15.57158140 6.90217392 -0.00057782 0.00187092 -0.00045867
O 2.82314403 11.93410114 4.47482670 -0.00524057 0.00782733 -0.00543217
O 7.89004034 11.49629156 5.47176777 0.00090401 -0.00388275 0.00278708
O 12.17117379 7.73991593 4.28577637 -0.00522860 0.00808120 -0.00196611
O 7.28447999 13.96570457 10.66700828 -0.00234066 0.00309084 0.00109095
O 11.78478070 2.97701597 9.11796462 0.00567008 -0.00135191 -0.00713070
O 14.62122014 26.40995760 13.83437750 -0.00811939 0.00370780 -0.00521986
O 8.50250614 18.51894674 13.03119852 0.00276276 -0.00231516 0.00730828
O 11.62162341 17.75647809 7.16797725 -0.00302063 -0.00334424 -0.00151001
O 16.44592448 20.41178291 17.65079013 0.00494022 0.00216971 -0.00819393
O 6.05818460 8.62633996 12.27367221 0.00638700 -0.00138273 0.01017238
O 12.85375913 7.97705547 10.65739514 -0.00664999 0.00535655 -0.00738880
O 10.93058550 3.70573870 28.23262946 0.00478450 0.00594701 -0.00102979
O 7.66460320 26.64397677 21.81415218 -0.00014555 0.00443660 0.00278132
O 13.10188743 24.00498527 19.23664654 -0.00223578 0.00441656 -0.00102008
O 6.16566408 18.93336761 7.18660872 -0.00704970 -0.00132432 -0.00319179
O 12.25194348 17.10682653 17.70544685 0.00146401 -0.00046846 0.00144177
O 18.83181055 15.26946837 20.28799637 0.00678956 -0.00060559 -0.00112230
O 4.46972175 7.50573468 14.10581841 -0.01160626 -0.00073735 -0.00578237
O 17.42778287 22.38718167 13.33851727 -0.00198031 0.01704849 0.00752394
O 13.64702023 28.05330041 27.40940944 -0.00509831 0.00399917 -0.00179337
O 11.13080689 2.28058143 25.08621319 0.00503222 -0.00074535 -0.00331915
O 18.73385938 20.61193971 26.89773966 0.00455184 0.00161965 -0.00183784
O 13.10187463 18.14922744 15.60896871 0.00065510 0.00366461 0.00545047
O 14.08574601 22.28443221 20.90813521 -0.01398201 -0.00804500 -0.00229319
O 8.63657234 9.96968706 2.83863704 0.00393203 -0.00310667 0.00455883
O 3.90697732 12.89692000 17.63139371 -0.00283872 0.00768664 -0.00362794
O 18.02619119 28.44206009 11.67182030 -0.00620576 -0.00851210 0.00547177
O 1.08553035 14.48649966 8.39446642 -0.00576480 -0.00460123 0.00370706
O 13.85609870 27.83262143 11.96360771 0.00763847 -0.00005337 -0.01126142
O 12.92391955 24.40640611 1.15942138 0.00436944 -0.00290768 -0.00701709
O 10.94487321 17.35630030 9.71681655 0.00294172 -0.00439110 0.00198982
O 8.45362212 21.54756815 3.14846435 0.00207584 0.00613543 0.00100048
O 23.78553709 28.13093641 10.84305656 -0.00980887 0.00217135 -0.00216986
O 24.46992374 11.54633112 20.86680169 -0.00262362 -0.00426914 -0.00451210
O 5.48907981 29.87226111 2.37417074 -0.00311466 0.01385428 -0.01190706
O 14.19907314 13.62253968 1.01566750 -0.00360007 -0.00383986 0.00209503
O 14.07356393 17.78509151 6.68200731 -0.00009902 -0.01019512 -0.00310073
O 6.54398510 17.73322878 1.34316290 0.00281660 0.00134821 0.00879122
O 22.42606748 1.24624214 8.27196245 0.00775710 -0.00089431 -0.00097142
O 20.13975144 28.87538257 4.43297351 -0.00904804 -0.00924057 -0.00193008
O 4.95821385 18.89114613 18.57574144 -0.00513370 -0.00611293 0.00548301
O 21.47589283 7.66368052 16.82259279 0.00868500 0.00358782 -0.00272887
O 11.11013936 29.57037027 4.79050072 0.00453468 -0.00002954 -0.00687294
O 13.29399590 14.52399848 26.23012455 -0.00069434 0.00355720 0.00152257
O 20.88576412 7.37007197 20.58960056 -0.00354299 0.00251277 0.00540846
O 24.27030739 14.44592675 1.17657605 0.00250528 -0.01041721 0.00096823
O 19.84516283 6.36180320 5.13744265 -0.00421208 0.00044356 -0.00140766
O 23.75616059 9.84060345 22.92420084 0.00127464 -0.00233391 -0.00622558
O 6.05667220 26.08416173 16.31705524 0.01216501 0.00584848 -0.00271345
O 11.35210080 15.59664083 27.27322441 0.00282079 0.00939018 -0.00034134
O 17.40991597 4.70559731 26.64384311 -0.00402788 0.00252373 -0.00565839
O 14.28980992 12.39496037 20.38636325 0.00301451 0.00199396 -0.00245326
O 19.28072964 13.31243561 18.63390029 0.00289554 -0.00523189 -0.00264683
O 2.79888914 7.12220227 18.07673712 -0.00103292 -0.00592248 0.00591551
O 23.72809286 14.97837511 10.26960426 0.00547757 0.00758058 -0.00787012
O 0.99735312 9.12177121 0.03804696 0.00581341 -0.00104649 0.00345490
O 16.89432616 25.01458306 9.27481386 0.00204589 -0.00468206 0.00439023
O 8.47014707 18.38126325 22.04078923 -0.00536998 -0.00392807 0.00106226
O 15.34973839 28.91713947 25.68998603 0.00327426 0.00903807 0.00388060
O 14.97680871 8.25159775 4.80382209 -0.00306818 -0.00528632 -0.00076325
O 15.63068444 16.97787201 12.64143395 0.00097828 -0.00106539 0.00088263
O 2.03105478 6.68930070 24.37916871 0.00003444 0.00753132 -0.00042226
O 0.81169394 19.87546014 13.46088574 -0.00020871 -0.00098235 -0.00264027
O 0.77780461 29.80903334 0.92228354 0.00852212 0.01253461 -0.00203336
O 19.46808521 19.15402457 5.62851306 0.00518233 -0.00247848 -0.00143522
O 19.10271206 20.45695380 13.50716867 -0.00231257 -0.00469703 -0.00390554
O 18.85513617 28.71894656 0.03651448 0.00273377 0.00102442 0.00277998
O 1.75295610 29.28390567 13.39316622 -0.00063512 0.00494219 -0.00121285
O 20.60916386 1.04025940 16.58960215 -0.00213653 0.00085846 -0.00172186
O 7.08587410 22.21299843 1.11032605 -0.00292814 0.00209823 -0.00097370
O 12.74440858 15.72652523 1.82778578 -0.00432548 0.00051350 0.00502122
O 11.30935336 22.33955289 26.88188673 -0.00000472 -0.00257132 -0.00128863
O 0.30219256 9.74154668 10.54939143 0.00392537 0.01162820 0.00594711
O 21.10783678 19.45022329 7.68201378 -0.00242800 0.00245672 -0.00325907
O 15.69855791 3.57913090 2.24161470 0.00485783 0.00518428 0.00659102
O 0.32942379 19.88839900 6.27098777 -0.00076202 0.00325526 0.00046028
O 21.24057632 29.83559803 0.33319306 -0.00263158 0.00197982 0.00680652
O 1.69846106 18.63775550 0.01511877 0.00705664 0.00538649 -0.00061931
O 7.60700066 14.06218477 5.25340892 0.00212556 0.00292055 0.00095517
O 22.98137752 16.55397062 16.69788973 -0.00931616 -0.00231127 0.00046858
O 19.26612367 6.98418211 10.78421605 0.00346766 0.00431498 -0.00777780
O 18.27664593 29.51195852 9.35013162 -0.00535138 -0.00442684 0.00656150
O 17.19577088 22.87225785 17.80567924 -0.00485550 -0.00574190 -0.00019314
O 21.09019110 24.90856671 6.78000163 -0.00557167 -0.00016577 -0.00167813
O 21.76324130 6.52373319 26.25771240 -0.00607308 0.00606921 -0.00839050
O 3.56726220 16.85096766 11.33279397 0.00835031 0.00483518 -0.01136514
O 19.83285191 3.07151906 17.98332841 -0.00191700 0.00808164 0.00051803
O 20.94863169 22.58009309 17.03518306 0.00279614 0.00451217 0.00088611
O 21.30307083 22.29905689 0.82552008 -0.00549200 -0.00638549 0.00246725
O 13.00705093 28.40566168 5.81465772 -0.00221125 0.00510296 -0.00254403
O 16.51960580 24.30828095 24.11512715 -0.01500275 -0.00061724 -0.00104834
O 21.71117388 2.91986489 15.29567777 -0.00741110 -0.00330553 0.00293580
O 20.84911932 24.73120686 15.70798531 0.00600738 -0.00229728 0.00171064
O 5.66052634 24.05999722 12.27287342 -0.00926934 -0.00717584 -0.00296414
O 15.71508222 6.88370927 21.40401147 0.00203837 -0.00489347 -0.00150738
O 14.10646877 18.09830756 1.62186158 0.00158119 0.00026947 -0.00251055
N 14.57826675 22.26971086 8.32131233 -0.00460170 -0.00261283 -0.00086186
N 1.45730726 2.99273474 9.82338888 -0.00274242 -0.00040660 -0.00019813
N 7.93540677 26.88479284 6.47361728 0.00420765 0.00000184 0.00287779
N 1.83355514 7.45215027 12.07840234 -0.00098029 -0.00255939 0.00559662
N 24.45417778 0.48274572 18.04068458 -0.00063913 -0.00172123 0.01100312
N 23.83661355 20.01066384 23.85881734 0.00019858 0.00350989 -0.00338514
N 9.36839727 26.14618009 27.92560954 -0.00734017 0.00010543 -0.00802545
N 24.15496715 28.22399973 6.48338641 -0.00303758 0.00015002 -0.00498980
N 22.18635789 22.94662044 19.82225898 0.00030832 0.00228321 -0.00492869
N 4.17876583 10.27801151 0.89930962 0.00831737 -0.00591358 -0.00508720
N 17.73641519 29.63964536 20.31433003 -0.00917915 -0.00123927 0.00301503
N 12.14068434 6.78902649 24.14180751 0.00448395 -0.00483416 0.00343004
N 8.52885905 5.26576027 24.10441333 -0.00086589 -0.00464402 -0.00501404
N 11.96862517 10.94289061 15.12166368 -0.00774638 -0.00165416 0.00622210
N 5.40343024 15.54316430 15.54635496 -0.00277939 -0.00466681 -0.00073649
N 8.31969103 7.16809630 13.73854539 -0.00092989 -0.00740697 0.00062037
N 8.22179636 0.48234855 11.78834461 -0.01126192 0.00579948 -0.00401440
N 0.69477492 25.10845671 13.87218967 0.00476355 -0.00354451 -0.00378593
N 23.47128464 21.35975640 27.50836115 -0.00172597 -0.00236256 0.00208746
N 22.26370059 17.72714121 20.77470919 -0.00239062 -0.00302976 -0.00078453
N 21.75096421 9.50116992 4.51105363 0.00356224 -0.01448693 0.00259397
N 18.70724356 23.46984539 4.89268742 0.00011367 -0.00195057 0.00756344
N 10.79965843 21.33428344 15.89241873 0.00109537 0.00371984 -0.00333359
N 2.99005216 2.09440315 28.44750698 0.00205057 0.00211728 -0.00130673
N 10.18099545 28.06581295 14.48055562 -0.00158711 -0.00554600 0.00321710
N 2.95915675 24.49496509 4.35672364 0.00789654 -0.00355653 0.00106776
N 1.21091894 11.48136608 25.12782572 -0.00397669 -0.00047341 -0.00648681
N 4.74965638 25.74669765 24.32831638 0.00225512 0.00695429 -0.00068358
N 18.67938997 17.53618331 2.29790766 0.00195660 -0.00467887 -0.00978365
N 4.39931277 28.70169400 20.35622980 -0.00727393 -0.00599322 0.00156583
N 10.17034462 22.93899780 22.67132463 -0.00345436 0.00295153 0.00783264
N 21.75597760 27.38384212 23.19029376 0.00317577 -0.00579802 -0.00201635
N 8.01190417 12.14583232 2.36603500 -0.00506849 0.00582226 -0.00072854
N 8.30103040 6.72567319 6.16925641 0.00790561 0.00237713 -0.00079100
N 12.19851443 6.08738023 9.55086665 -0.00081816 -0.00016745 -0.00250771
N 15.20926304 13.61259048 13.91345700 -0.00065626 -0.00734037 -0.00070261
N 12.03480898 27.76527859 10.53701470 0.01030003 0.00230361 -0.00572303
N 19.74585315 11.25197728 8.23355127 0.00452185 0.01065886 -0.00170369
N 8.07532407 20.01322019 7.67757358 -0.00108825 -0.01072655 0.00563932
N 16.48069512 13.88221565 8.45804055 0.00775061 0.00909720 -0.00494196
N 15.68354917 18.38973677 16.95604596 -0.00926540 -0.00245076 -0.00015116
N 6.83024652 5.84047089 18.36174771 0.00189611 -0.00305454 0.00022114
N 17.58589329 27.94178377 13.85020351 -0.00073453 0.00181930 -0.00170803
N 2.60041888 7.88033560 6.30501446 0.00664019 0.00008195 0.01117130
N 8.81801767 28.53889790 21.81189030 -0.00504343 0.00398830 -0.00215315
N 15.85483597 5.86464985 15.98933301 0.00080574 -0.00156569 -0.00148975
N 10.73885432 15.55708995 11.21813251 0.00800226 0.00682278 -0.01133735
N 21.74955714 6.29078288 2.38427714 0.00743292 0.00535706 0.00066256
N 6.12017310 13.06734060 22.10355151 -0.00002390 -0.00648612 0.00322545
N 6.52633435 8.57432973 10.11734473 0.00454912 -0.00667659 -0.00145479
N 17.97276996 11.80879715 26.09500871 0.00153168 -0.00160913 -0.00845132
N 2.86176347 13.80707232 7.22774602 0.00242759 0.00199176 0.00057858
N 13.67001299 9.40651426 26.75864090 -0.01403147 0.00378018 -0.01167675
N 13.68559309 26.18691139 19.25996310 -0.00303035 0.00741144 0.00139193
N 15.12607364 4.90882018 7.59686904 0.00512012 -0.00439608 0.00044726
N 9.94377940 22.38480092 4.66053903 -0.00034118 0.00166074 -0.00840775
N 0.06745461 4.66085388 20.31241765 -0.00555521 -0.00262582 -0.00105924
N 2.64889108 10.97938865 17.87730166 -0.00104250 -0.00077937 -0.00574532
N 10.22767119 13.30627029 22.92618412 0.01102855 0.00423549 -0.00494507
N 10.28758360 1.84389420 0.49293375 -0.00171444 -0.00442398 0.00345521
N 8.04596514 19.39165345 25.89445818 -0.00676744 -0.00172697 -0.00242066
N 14.33518355 22.84726703 0.25010775 -0.00505324 0.00681043 0.00232062
N 9.50008419 0.92174826 18.29897204 -0.00210397 0.00234881 -0.01467199
N 13.79593046 16.91102424 19.34152336 -0.00371048 0.00803366 -0.00051399
N 19.01381737 22.25295299 1.05806026 0.00293850 -0.01236608 -0.00722226
N 22.23528601 9.72155351 16.24568525 0.00380369 0.00054396 -0.00357715
N 14.65592348 1.54503585 2.17032639 0.00464680 0.00084926 0.01304115
N 16.11587827 8.61267463 2.82937945 0.00875879 0.00095804 0.00046202
N 20.76537906 26.21094587 13.95341500 -0.00709727 0.00483248 -0.00321020
N 1.43890222 15.62177887 1.63898855 0.00355412 -0.00302827 -0.00058426
N 7.53918527 15.66861437 3.59922205 0.00167997 0.00976533 -0.00821080
N 0.50261461 0.65483878 2.97052849 0.00122177 -0.01399482 -0.00053586
N 23.09420479 10.95819435 11.16297057 -0.00379773 -0.00575055 0.00261223
N 7.49250090 16.89208691 23.49803185 -0.00254987 -0.00929593 0.00144066
N 17.53737575 25.73862064 22.63081922 -0.00102256 0.00406367 -0.00127357
N 15.00471915 15.40201383 25.11378777 -0.00278464 -0.00396064 0.00306380
N 22.02755321 1.95415806 0.28521972 -0.00516750 0.00296621 -0.00363788
N 2.58277784 4.85972866 23.23408382 -0.00512879 0.00473553 -0.00101469
N 17.05133594 7.60541119 19.62872159 -0.00671464 -0.00421598 0.00179457
N 22.18716666 9.78721371 24.68038206 -0.00150360 -0.00139956 0.00548981
N 19.05900830 25.56798557 9.78522045 0.00067947 0.00370735 0.00138977
N 22.65272747 19.10282079 9.39919336 0.00340977 0.00602878 -0.00199246
N 10.05009601 1.57865072 4.86877131 0.00392207 -0.00156236 0.00126753
N 23.28069707 3.75074276 13.95592610 0.00337708 -0.01169563 -0.00687862
N 17.26177487 17.98944614 11.31072786 -0.00219625 0.00448939 0.00023458
N 1.95359785 20.13244962 1.72048632 0.00122764 0.00442135 -0.00393194
N 18.86049260 5.44032617 6.96370761 0.00073474 0.00047061 -0.00280515
N 12.43676478 19.41171353 2.48239711 0.00315538 0.00467484 0.00501428
N 4.49271415 20.91255613 17.73264733 0.00319710 0.00354147 0.00882198
N 15.03361571 28.60102352 4.80952227 -0.00106594 0.00439198 0.00468354
N 14.91625561 0.32580068 24.03739188 -0.00440983 0.00002015 -0.00629703
N 0.80529531 21.56857845 7.80153826 -0.00595278 -0.00124977 0.00995558
N 19.11653041 8.53781951 21.65561808 0.01010763 -0.00165953 -0.00097205
N 5.29845074 22.11980592 11.05457438 -0.00681442 -0.00436095 -0.00073610
N 0.77936071 18.00785311 14.62446137 -0.00497986 -0.00317811 0.00325001
N 20.76677148 17.07941961 16.86385403 0.00260701 -0.00909639 -0.00201959
C 7.58337763 28.11584639 11.58025923 -0.00311558 -0.00084284 0.00953478
C 1.20187834 0.51022506 9.56466516 -0.00009532 0.00686451 0.00445609
C 0.74355403 22.92980114 27.72013417 -0.00839323 -0.00021346 0.00042651
C 3.42685203 5.69739257 12.66715782 0.00084811 0.00305122 0.00370846
C 20.65493455 10.88024860 2.96843607 -0.00133328 0.00552881 0.00750682
C 24.53612896 17.70725385 24.51644768 -0.00039848 0.00069076 -0.00490564
C 10.04011003 20.90171447 18.19677563 0.00966462 0.00132287 -0.00125175
C 0.62875185 0.36288340 6.38737739 -0.01006061 -0.00518781 -0.00002100
C 6.59995970 27.16701360 11.87493798 0.00738527 -0.00078905 -0.00020169
C 1.74174761 29.25509007 9.47862440 -0.00952843 -0.00090126 0.00304968
C 2.02440988 23.30904242 27.32936536 -0.00006120 0.00124908 0.00439638
C 4.36628370 4.81563607 12.31289128 -0.00154805 0.00275448 -0.00062424
C 20.74397740 11.91713755 2.04857366 0.00853148 0.00092337 0.01048399
C 24.05345242 16.51937954 24.95136944 0.00335583 0.00623393 -0.00077947
C 9.81182260 19.89321615 19.18634508 -0.00572191 -0.00562116 -0.00430340
C 1.72201130 1.17738345 6.02193809 -0.00559150 -0.00276875 0.00211249
C 5.39855332 27.40874837 12.48878817 0.00734930 0.00379340 0.00260882
C 3.11293753 29.10041422 9.60693411 -0.00264258 0.00944600 -0.00379666
C 2.90155826 22.31242079 26.77997718 0.00034064 0.00431298 -0.00443796
C 4.94019725 4.87079872 10.99023343 0.00001756 -0.00710846 0.00540158
C 21.89417896 12.68551390 1.81511584 -0.00226391 -0.00378613 -0.01103627
C 22.71537002 16.20908735 25.16873161 -0.00079327 -0.00099197 -0.00013237
C 9.41540074 18.51986843 18.82389847 -0.00439068 -0.00347424 0.00102402
C 2.94565339 0.61368892 5.57329859 -0.00711179 0.00237147 -0.00630043
C 5.16014174 28.74290712 12.79804379 -0.00500515 0.00049767 -0.00770517
C 3.89498333 0.17836159 9.82236297 -0.01081112 0.00007657 -0.00403034
C 2.38409255 21.03606955 26.51660398 -0.00473574 -0.00416743 0.00085145
C 4.48657652 5.89113500 10.11055885 -0.00410265 -0.00897219 -0.00767017
C 23.02574211 12.40485312 2.63806653 0.00121629 0.00537449 -0.00913075
C 21.76051782 17.21278692 24.97886418 0.01276485 0.00074698 0.00953750
C 9.44226435 18.21545027 17.42333469 0.00551293 0.00087375 0.00081952
C 2.93511537 29.27102406 5.41714967 -0.00589196 0.00153597 -0.00345209
C 6.06119124 29.75229029 12.50547943 -0.00125519 -0.00361344 -0.00649213
C 3.34454972 1.43450730 9.91596660 0.00127718 -0.00091617 -0.00043832
C 1.07414442 20.75500561 26.71925807 0.00244113 -0.00224551 0.00143139
C 3.62550293 6.84831567 10.61350464 0.00279208 0.00690168 0.00085671
C 23.05783489 11.29014734 3.36169634 0.00520604 0.00307455 0.00720683
C 22.20470210 18.47443989 24.53500681 0.00686624 -0.01509408 -0.00148044
C 10.01981574 19.09486412 16.53542183 -0.00228941 0.00269624 -0.00933555
C 1.81184018 28.51650664 5.61659024 0.00605669 0.00489464 0.00782736
C 7.32284250 29.44268977 11.93241504 0.00229363 -0.00799183 0.01106724
C 1.97875052 1.70027959 9.71281163 0.00015135 0.00168009 -0.00132107
C 0.23341562 21.61844868 27.41380651 -0.00421608 -0.00314505 -0.00200670
C 2.86664686 6.67396903 11.76575733 -0.00164917 -0.00584571 0.00226516
C 21.85022646 10.54505473 3.59675264 -0.00103108 0.00083612 0.00795313
C 23.52166271 18.79109971 24.36190554 0.00491032 0.00006509 0.00454012
C 10.26173621 20.48761987 16.88118201 -0.00524329 -0.00025237 -0.00323936
C 0.67939847 29.06183172 6.21753459 -0.00547611 0.00708397 -0.00131828
C 7.91283607 1.79547526 11.62248697 -0.00122416 -0.00245434 -0.00020309
C 0.15495266 3.25766036 10.20863167 0.00314420 0.00442193 -0.00855734
C 23.01941791 20.04101306 27.47629067 0.00179121 0.01220962 0.00266783
C 0.91734647 7.14913762 13.03848864 0.00585180 0.00684604 0.01016600
C 22.76615117 9.30834550 5.44676824 0.00105998 -0.00595033 0.00775785
C 0.47297512 20.43388613 23.66270901 0.00642868 0.00304758 -0.00034606
C 10.85287451 21.19676743 14.54510474 0.00476922 -0.00411747 0.00535691
C 23.35063634 27.48149934 5.72775005 -0.00765781 -0.00500315 -0.00261245
C 23.55860802 24.27917710 18.36112685 0.00310762 -0.00584599 -0.00059681
C 24.41151715 4.60017052 9.87360001 0.01287644 0.00381980 0.00187496
C 7.25536377 29.14437384 6.75249371 0.00267358 -0.00521107 -0.00305251
C 12.08333772 5.37512924 26.03156541 0.00641999 -0.00074487 0.00493541
C 6.97534034 5.27216424 26.16752530 0.00372920 -0.00814408 0.00632263
C 0.76774375 21.79689229 23.28913229 -0.00359803 0.00425321 0.00296491
C 8.54725428 23.89127938 27.08003944 0.00792590 -0.00447487 0.00079550
C 8.08253097 5.55017023 12.10275070 0.00129036 0.00677373 0.00186588
C 10.57413100 0.51152228 14.23663282 -0.00552582 0.00338753 -0.00895615
C 5.34934168 8.12964015 0.84022087 0.01150501 -0.00275444 0.00457882
C 2.31308543 10.18006314 23.44692702 -0.01180499 -0.00683972 0.00570380
C 11.94007837 8.56994364 22.63880964 -0.00330950 -0.00491127 0.00096186
C 20.89193128 16.49009112 2.53513805 -0.00665664 0.00777126 0.00275085
C 10.86894722 10.21418025 13.20651730 -0.00603636 -0.00722918 0.00085325
C 12.37215271 22.85446369 23.56016504 0.00885256 -0.00386808 -0.00278253
C 9.76987652 7.26972666 15.66348966 0.00722162 -0.00541375 -0.00580968
C 9.88748610 1.73594325 14.10086048 0.00966881 -0.00728712 -0.00610044
C 6.36422099 7.32397923 0.47274346 0.00082613 -0.01198695 0.00015403
C 3.39952521 9.41388445 23.07812409 0.00954197 0.00081078 -0.00279287
C 11.95169110 9.17813689 21.44883430 -0.00230660 0.00546040 -0.00597826
C 21.74392423 15.70987616 3.30466980 0.00222867 0.00553726 0.00381456
C 10.06846646 10.46903699 12.05673118 -0.00291581 0.00013924 -0.00387317
C 13.40270140 23.41132559 24.35403034 0.00273226 0.00764743 -0.00445816
C 10.03695930 7.81523530 16.82567233 -0.00388608 0.00218101 0.00403455
C 8.58727795 1.99025142 14.44123210 -0.00940428 0.01333576 0.00536254
C 7.52029145 7.86866403 28.84091382 -0.00081430 -0.00093474 -0.00825322
C 4.33030607 9.00867945 24.06361178 0.00623263 0.00597587 -0.00371280
C 12.04285695 8.28918613 20.24863317 0.00425571 0.00065327 0.00144254
C 21.28459694 14.83082168 4.32901865 0.00599177 0.00537229 -0.00318476
C 9.29752688 11.64266317 11.93318138 -0.00147280 -0.00653723 -0.00908456
C 13.38126746 24.72186875 24.79780079 -0.00250838 0.00978658 -0.00234254
C 9.42959481 9.07895738 17.31665610 0.00442326 0.00054149 0.00072226
C 7.79474099 0.87858599 14.74719883 -0.00207544 -0.00153817 -0.00704871
C 7.52409586 9.29481578 28.64144458 -0.00429049 -0.00136895 0.00138424
C 4.07496605 9.06460975 25.38460311 0.00080983 0.00154981 0.00228394
C 12.22593272 6.89422916 20.46080250 0.01132708 -0.01309821 0.00286006
C 20.08927648 15.13865758 4.91431415 -0.00776572 -0.00510434 -0.00214831
C 9.20432800 12.49866207 13.12812216 0.00105386 -0.00547739 0.00274683
C 12.15559489 25.38298771 24.92409499 0.00193631 -0.00147457 0.01228528
C 8.60676317 9.69937802 16.38589432 -0.00465403 0.00456909 -0.01255770
C 8.30782920 29.62345442 14.70731552 -0.00150955 0.00724362 0.01094121
C 6.46396989 10.12291990 0.05024872 -0.00268979 0.00127830 -0.00478000
C 2.98042570 9.95092770 25.72984320 0.00029951 -0.00597444 0.00053131
C 12.08364105 6.30133952 21.65069351 0.00392289 0.00220934 0.00021677
C 19.15931956 15.91252220 4.12912570 0.00442637 0.01095856 -0.00128552
C 10.08104031 12.30634829 14.16324794 -0.00724700 0.00661406 -0.00099691
C 11.12618322 24.87652110 24.09389784 -0.00047276 0.00010708 0.00465298
C 8.25692926 9.19355977 15.10389305 0.00080551 0.00119687 0.00411428
C 9.71667724 29.38731465 14.41452913 0.00831716 0.00459602 0.00020987
C 5.28870752 9.54568471 0.56072684 0.00138796 0.00822421 -0.00141181
C 2.16634515 10.54986134 24.75507643 0.00156582 -0.00071225 -0.00109710
C 12.08878036 7.19415152 22.83446382 -0.00185217 0.00394716 0.00190299
C 19.59349257 16.63833164 2.95028911 -0.00055356 -0.00437759 0.00506565
C 10.93282796 11.16798325 14.18585844 0.00198878 0.00192533 0.00336860
C 11.19661780 23.61900287 23.42735498 -0.00306463 -0.00498316 0.00410348
C 8.74886760 7.86790880 14.82722798 -0.00082988 0.00371803 0.00313999
C 9.42300419 26.96690525 14.73281688 -0.00545129 0.00553348 -0.00335783
C 4.01844944 11.58849761 0.62579754 -0.00426258 0.00589386 0.00491451
C 0.59697831 12.53906741 24.44198937 0.00830157 0.00000388 0.00733152
C 12.00431720 5.49347263 24.52036093 0.00094107 -0.00302728 0.00557457
C 17.32531411 17.32379023 2.22712904 -0.00385492 -0.01127490 -0.00773164
C 12.37044967 11.89545564 15.99890587 -0.00314275 -0.00833394 0.00218957
C 9.05481860 23.56427952 22.36764188 0.00250909 0.00017906 0.00121324
C 8.72330825 5.98528479 13.32855830 -0.00409469 0.00324784 -0.00333064
C 14.20315235 21.95411041 10.71591687 -0.00093043 -0.00622665 0.00048492
C 2.65764828 12.05176780 0.92123890 0.00651343 -0.00170058 0.00915748
C 16.33675581 29.25124266 18.42615101 0.01126845 0.00686806 0.00151397
C 24.48762136 8.09170624 13.44520680 0.00063552 0.00800231 0.00948480
C 22.77027454 2.23928443 18.32692059 0.00198640 -0.00413071 0.00211854
C 13.37695020 11.40982188 17.10511298 -0.00085837 -0.00034298 0.00138596