1920
Time=56000.00000004 pbc="T T T" Lattice="24.70189874 0.00000000 0.00000000 0.00000000 29.18128244 0.00000000 0.00000000 0.00000000 29.36205399" energy=-12188.16319656 virial="-94.93943880 -2.92523904 7.35106213 -2.92523904 -127.29225291 -39.45626620 7.35106213 -39.45626620 -77.02621890" stress="-0.00120708 -0.00014011 0.00021579 -0.00014011 -0.00252001 -0.00184542 0.00021579 -0.00184542 -0.00028829" Properties=species:S:1:pos:R:3:vel:R:3
O 6.92603349 25.43286508 14.45494245 -0.00264056 -0.00575637 0.00948016
O 5.54860189 26.31938692 9.45506760 -0.01024709 0.00535605 -0.00097714
O 1.72355662 19.89280598 28.10471353 -0.00158824 -0.00132154 -0.00114467
O 6.26210445 4.12726687 9.70941366 -0.01136971 -0.01025834 0.00483546
O 20.52704570 12.02087707 2.09771637 0.00375061 -0.00521793 0.00578553
O 22.67916374 14.54286429 25.83711096 -0.00934349 0.00024264 -0.00117452
O 9.41158289 21.33239838 20.22814662 -0.00095520 -0.00436275 0.00140692
O 4.64030764 0.62993168 4.62457826 -0.00370232 0.00316852 0.00341617
O 9.24584564 27.71658361 17.10424909 -0.00165286 -0.00021937 -0.00341104
O 0.22466691 0.67853894 9.13753806 0.00055083 -0.00076388 0.00348776
O 20.54291597 18.05716379 0.10961285 0.00073634 -0.00288191 -0.00427913
O 10.99314188 5.05706213 24.59764225 0.00484403 0.00939601 0.00554411
O 17.26718118 17.93930685 1.61395741 -0.00261016 0.00071268 -0.00429156
O 2.33000274 18.83613393 24.29660216 0.00464194 0.00530515 -0.00353797
O 12.32972303 19.84370913 14.90624467 0.00049581 0.01030434 0.00351350
O 9.22104350 5.85865287 13.32775598 0.00831085 -0.00217963 0.00300990
O 8.31789095 4.38829261 15.23641843 0.00213561 -0.00656985 0.00220354
O 9.63106504 6.13286767 0.16430442 0.00240442 0.00353304 0.00144151
O 4.12254680 6.55444353 26.96446757 -0.00500938 0.00046712 0.00259819
O 11.35464093 8.88482258 19.80278712 0.00304032 0.00250493 -0.00401066
O 21.86126354 12.97258014 5.55523332 -0.00877264 0.00567374 0.00106848
O 7.07079581 11.44566972 10.95089904 0.00429498 0.00357915 -0.00446586
O 14.15378952 23.28721495 25.82013139 -0.00866554 0.00411107 0.00191768
O 9.11540748 9.35051833 18.83635323 0.00431311 -0.00447359 0.00163680
O 6.64537687 2.10374035 11.57386289 -0.00093274 0.00423626 -0.00268179
O 5.06292601 10.46795116 28.55805869 -0.00156793 0.01014198 -0.00466286
O 24.33030364 12.68340793 25.73794298 -0.00178299 -0.00124593 0.00204237
O 1.32285555 6.91881013 12.17050158 0.00752170 -0.00540502 0.00073665
O 23.45344275 8.42257354 6.60667616 0.00088207 -0.00027362 -0.01095764
O 10.84780890 12.36887435 16.05627999 0.00269664 0.00722460 0.00437897
O 8.29824110 23.59701758 24.21977418 0.01225389 -0.00359543 0.00165293
O 23.44760066 26.08437439 6.94286072 -0.00957904 0.00337976 0.00295419
O 14.66149238 24.44591324 4.02187730 0.00018404 -0.00215369 0.00162973
O 4.15106190 21.31283374 10.54409488 0.00028967 -0.00345658 0.00824132
O 13.20924486 22.93030101 10.85200243 -0.00800165 0.01231178 0.00520969
O 3.31819652 18.79541047 20.80220449 0.00343696 -0.00793774 0.00464277
O 4.45223218 28.51054530 18.32268695 0.00119171 -0.00587924 0.00821094
O 19.07188438 25.20565149 28.61172971 -0.00481543 -0.01088867 0.00191032
O 3.90091843 26.77519163 1.59418257 -0.00366726 0.00132077 0.00452932
O 5.79206249 2.19646913 26.64441965 0.00198480 0.00317733 -0.00200454
O 24.26859497 24.04544002 21.33780714 -0.00845290 0.00173520 0.00449536
O 1.98962741 26.62845590 12.87186168 0.00285787 0.00872434 -0.00228364
O 7.98672548 26.21365150 9.38799190 -0.00751507 0.00598635 -0.00117829
O 2.87105072 22.15199555 28.48172765 0.01271023 0.00460490 -0.00320775
O 9.98504454 9.12833587 26.34403385 0.00964305 0.00040968 -0.00407291
O 18.23852045 22.49105082 4.85718383 0.00313419 -0.00584529 0.00213735
O 10.20314466 23.40416364 27.92100200 0.00300142 0.00080028 0.00391150
O 23.83343979 27.32766166 20.88361675 -0.00137410 -0.01056482 0.00136846
O 20.03170609 20.06114598 24.32793293 -0.01029644 -0.00696548 -0.00452987
O 23.19002066 23.04514517 28.53535327 0.00175536 0.00161428 -0.00046915
O 18.12741200 2.19646023 22.57983453 0.00043426 -0.00157004 -0.00672554
O 2.74599595 28.56463101 27.25798633 -0.00366373 0.00827090 0.00208140
O 6.01445537 4.43457469 21.90474743 0.00512761 -0.00801931 -0.00197334
O 2.69869511 23.15711770 21.32270215 -0.00950902 -0.00943208 -0.00623430
O 23.64375262 15.36396169 15.92715337 -0.00045687 0.00282372 -0.00094163
O 24.33066502 24.59492911 26.69130999 0.00326610 0.00359590 0.00142045
O 15.38929804 22.24051292 9.46557457 -0.00059284 0.00530431 0.00592123
O 2.92776548 25.31640429 3.49998038 -0.00185930 0.00442212 0.00156498
O 18.50426821 27.66816708 17.63251266 0.00288367 0.00377779 0.00607858
O 21.16972259 15.36283235 21.29019662 -0.00290252 -0.00537930 0.00290296
O 0.31580248 4.04433499 16.37972820 0.00244156 0.00417660 -0.00828887
O 4.30060871 28.80021196 20.96056946 0.00076923 -0.00282133 0.00282433
O 4.60865847 12.63164897 14.54976481 -0.00514796 0.00226946 -0.00299903
O 0.53076912 3.96418261 0.42029650 -0.00348181 0.00402487 -0.00269570
O 4.92900919 12.96949158 27.72289486 0.00455811 0.00084395 0.00011326
O 6.63564369 0.98134499 6.51861058 0.00249630 -0.00081716 0.01140582
O 15.21096053 7.64867114 23.83473305 -0.00499992 -0.01108299 0.00373990
O 12.73721356 10.60744106 9.20787746 0.00329218 -0.00241335 -0.00238563
O 11.78991305 6.50429304 1.69848191 0.00483935 -0.00286714 -0.00558897
O 15.01952600 8.95965035 7.09660637 -0.00865931 -0.00182049 0.00463997
O 17.00100903 5.33159570 11.96838961 -0.00149040 -0.01234770 0.00312263
O 21.49148452 13.98259899 11.27576828 0.00968842 -0.00517621 0.00397592
O 20.51977674 3.16179294 20.90209412 -0.00116696 0.00543203 -0.00003877
O 8.44708207 8.35284339 5.68586246 0.00831858 -0.00073935 -0.00364959
O 18.82893701 10.15783128 28.39099206 -0.00000516 -0.00145916 0.00478194
O 0.94668795 11.56863170 4.24654428 -0.00426129 0.00214270 -0.00011175
O 6.46386056 16.87627840 1.08315803 -0.00022472 0.00634030 0.00632092
O 21.05953225 10.84830922 6.73968524 0.00225665 0.00796493 -0.00283260
O 14.18661451 2.47956080 6.88045098 0.00512537 0.00480201 0.00148368
O 20.85366581 4.57723292 3.93854142 -0.00088283 -0.00492770 -0.00744804
O 0.18188357 0.42658077 24.84330823 -0.00482715 0.00684593 0.00014800
O 4.86998386 10.44784454 23.82397301 -0.00088198 0.00312479 0.00439482
O 9.16506471 13.52347510 17.56163840 0.00387599 -0.00284188 -0.00442875
O 24.33512935 6.59684376 0.48494529 -0.00402724 0.00720469 -0.00094394
O 4.95555367 19.08408479 24.27962712 -0.01599369 0.00417859 0.00733828
O 17.82198796 27.93445466 15.22743953 -0.00621430 0.00215092 -0.00112522
O 11.54373265 27.08076766 20.16825848 0.00031729 0.00459755 -0.00208737
O 16.21030483 4.50152295 28.85829794 0.00692326 -0.00931788 0.00482281
O 3.64145824 14.61143840 21.75220533 0.00289951 -0.00064166 0.00307620
O 5.60759707 5.75190630 19.74968677 0.00360507 -0.00266583 -0.00398874
O 9.97338573 11.30618866 23.54311133 -0.00285423 -0.00382514 0.00190590
O 15.12468204 13.25666971 15.71525366 0.00614313 0.00030318 -0.00137868
O 14.30233059 11.96345736 26.38831827 -0.00279068 -0.00597959 -0.00324172
O 15.60551783 4.62267418 13.99951457 0.00330930 0.00518264 0.00057810
O 11.14914050 5.41018030 18.11059200 -0.00259282 0.00727747 -0.00330518
O 17.36063623 14.21980304 6.55819418 -0.00331210 0.00245508 -0.00052145
O 5.05088322 13.65893133 1.10823418 -0.00133577 0.00207413 0.00099515
O 8.31024369 12.53588689 7.20523837 0.00313887 0.00163859 -0.00003498
O 12.56850004 7.61913420 4.14200308 -0.00142802 -0.00217726 0.00822254
O 5.19212096 13.70814444 12.33398150 0.00109357 0.00290795 -0.00032948
O 13.09089681 3.41956964 9.23527147 -0.00063721 0.00690753 -0.00460504
O 16.29361436 24.50062363 14.85974408 0.00470603 -0.00470565 -0.00058860
O 11.14294881 19.00521523 12.83284327 0.00591357 -0.00023268 -0.00708945
O 11.56775444 17.22194377 8.21783339 -0.00324119 -0.00433362 0.00184185
O 17.40675373 19.33109720 18.89758006 0.00056733 -0.00833051 -0.00189266
O 2.14222628 10.36720644 9.82270667 -0.00206182 -0.00740331 0.00212234
O 11.64102706 8.28197002 10.09855396 0.00393421 -0.00139440 0.00127443
O 7.45594254 2.89559117 29.17060122 0.00114820 0.00326121 -0.00405470
O 8.71531136 25.56158163 22.88162717 0.00266779 -0.00513472 0.00258584
O 14.32826727 22.55880113 20.60889293 0.00105023 -0.00236975 -0.00180280
O 7.31009423 23.64671612 10.38376902 0.00194720 0.00949868 0.00330252
O 12.78828348 16.10009009 19.06567165 0.00785503 -0.00047779 -0.00106921
O 19.22260651 13.40671142 19.76285689 0.00329209 -0.00138332 -0.00286224
O 2.87215879 7.86687249 13.87159241 0.00214631 -0.00198328 -0.00467907
O 18.58280553 22.27800057 13.07643088 -0.00795154 -0.00415153 -0.00334253
O 12.64212761 26.86859920 26.97543927 -0.00992430 -0.00038578 0.00259334
O 8.80685189 3.79797283 24.19115024 -0.00188757 0.00284273 0.00332027
O 17.44121873 20.52455583 24.84691961 -0.00001042 0.00492395 0.00319164
O 13.85990780 16.68183170 16.46975536 -0.00593814 0.00084617 -0.00384042
O 14.91024447 21.02824200 22.48743293 -0.00045802 0.00222322 -0.00314436
O 9.73859858 10.16073646 4.27967044 0.00189173 -0.00112946 -0.00342025
O 2.07729389 12.34809142 18.12208849 -0.00575505 0.00005060 0.00204636
O 15.28280435 27.43028893 11.17136577 -0.00541401 0.00145372 -0.00732383
O 2.46888506 14.77623029 6.44845407 -0.00646664 -0.00570020 -0.00951718
O 13.20451492 27.80463812 13.87764560 -0.00112101 0.00300511 0.00367527
O 14.27082010 23.12923273 1.85628562 -0.00326410 0.00845053 0.00396248
O 11.67911414 16.22387855 10.51693516 0.00173285 0.00458421 0.00179504
O 8.59668888 21.79879250 5.18340544 -0.00124077 -0.00136406 0.00845472
O 1.06538693 24.98972468 10.87617987 -0.00541279 0.00337619 -0.01406109
O 23.30451026 11.15710203 20.65097141 0.00056422 0.00177231 -0.00154230
O 5.11255427 0.03764071 1.85619791 0.00098541 -0.00061713 0.00218086
O 15.10886436 13.47185292 1.53372838 -0.00641205 -0.00190410 -0.00126834
O 16.78484416 16.97410276 6.34953408 0.00218757 0.00089825 -0.00063857
O 3.97069783 16.49482612 1.93929637 -0.00467769 0.00275134 0.00320147
O 22.61711533 0.56271690 8.10434801 0.00049922 -0.00696891 -0.00869226
O 19.84336817 27.63322044 3.29486770 -0.00145069 0.00037417 0.00453673
O 3.44270946 20.60655991 18.95721834 -0.00105040 0.00278143 0.00352229
O 23.60494012 6.27262673 14.89437957 -0.00955241 -0.00436361 -0.00181842
O 10.48086402 28.35588724 5.15170258 -0.00867307 0.00111653 -0.00265116
O 14.18328729 16.21490091 25.82145368 -0.00214512 -0.00747187 0.00853727
O 19.92782542 5.78405970 20.97979017 0.00036859 0.00590568 -0.00585765
O 22.77218725 12.14669555 0.64029854 -0.00305271 0.00190203 0.00150817
O 19.38415811 5.60278797 5.87857696 -0.00378304 0.00534928 0.00138458
O 21.63668289 10.29489025 22.31473031 0.00207982 0.00717598 0.00442654
O 6.71049475 27.44334107 17.05915558 -0.00602672 -0.00062329 -0.00051897
O 12.06050146 16.90850133 27.20528339 -0.00550255 -0.00159211 -0.00269593
O 16.85793846 4.71824304 26.35294954 -0.00271225 -0.00279484 0.00318295
O 16.50643415 12.61416284 21.12505217 -0.00200151 0.00621937 0.00277642
O 19.03080937 11.27246716 18.24016053 0.00546028 -0.00283720 -0.00221412
O 2.65999270 4.04509181 17.84621839 0.00006832 -0.00364702 -0.00091621
O 20.88572140 16.37930225 12.76986152 -0.00436002 -0.00659649 0.00439088
O 21.58599267 5.00185195 25.91061457 0.00035662 0.00330736 -0.01103059
O 18.38366352 26.40412893 9.27318553 -0.00441502 -0.00069931 0.00398218
O 9.36409055 19.12939348 22.05753014 -0.00354362 0.00131398 -0.00019785
O 14.26106538 27.98513484 25.43005093 0.00104200 0.00414056 0.00453296
O 15.31028470 7.99641462 4.62884857 0.00477374 -0.00915134 0.00587242
O 15.92811974 18.05180739 12.66105352 -0.00226076 -0.00166870 0.00212840
O 0.14196796 6.82684722 23.01586432 0.00088027 -0.00322583 0.00031497
O 2.43761241 16.51827902 11.46738265 0.01151290 -0.00347348 0.00380780
O 0.99955184 0.00957770 29.17436187 0.00411766 0.00289758 -0.00046601
O 20.68185449 18.28480572 5.68732956 0.00602520 -0.00480195 -0.00448392
O 21.11427086 21.99175890 13.30789121 0.00005024 0.00246648 0.00588317
O 18.18352547 27.53847453 0.62082410 -0.00500776 0.00376724 -0.00318578
O 3.16600081 28.97817659 13.18237506 0.00298321 0.00483873 -0.00314496
O 20.30450948 2.97217133 14.90229989 0.00217677 -0.00735491 -0.00049461
O 6.70232190 21.79653412 2.94636217 0.00098235 0.00605360 0.00208179
O 13.59797224 15.56091207 2.19046290 0.00010682 0.00675725 -0.00537809
O 10.15118486 20.93440169 28.49472337 -0.00838307 -0.00502085 0.00056803
O 21.74779416 12.10277513 13.38324152 -0.00539509 -0.00447363 -0.00131272
O 21.92373651 19.36811520 7.65218800 -0.00060534 0.00532026 -0.00147039
O 14.40267284 3.59279296 1.31097323 0.00238805 0.00262963 0.00028219
O 1.84730199 18.43695088 7.09373764 0.00173639 0.00593459 -0.00359376
O 22.05730631 26.39464328 28.42473931 0.00303348 0.00228544 -0.00477501
O 1.07136458 18.84577198 2.52226107 -0.00200997 -0.00493167 -0.00285458
O 8.39965448 14.66311258 5.84838339 0.00662418 0.00058165 0.00686620
O 22.85354568 17.31631575 17.38315060 -0.00680853 -0.00122329 0.00017474
O 19.34151215 6.70356611 11.82025569 -0.00455393 0.00042715 0.00584645
O 17.68754555 28.76680806 8.43305261 -0.00531157 0.00342498 -0.00345711
O 18.81323348 21.39037625 19.17386467 0.00871284 0.00647286 0.00413449
O 23.36931022 23.59582457 5.98899556 -0.00885754 -0.00667297 -0.00418563
O 19.28274309 3.86141089 25.67806300 -0.00448532 -0.00457643 0.00015671
O 7.61762598 15.32705184 12.97765810 -0.00458960 0.01008257 -0.00434234
O 16.32966539 2.14528721 18.76014485 0.01575957 -0.00370718 0.00469169
O 22.85422975 23.68148380 16.45158030 0.00629665 -0.00189789 0.00028236
O 21.36418749 21.19305252 0.06900760 -0.01025525 0.00264118 0.00427843
O 12.66035125 26.99338762 5.35532343 -0.00520342 -0.00414979 -0.00191707
O 15.79271994 24.41937074 24.11958012 0.00434349 -0.00057332 -0.00244695
O 22.79831261 3.01738710 11.07582336 0.00334640 0.01068107 0.00673625
O 22.16625042 26.19760947 15.78710069 0.00642811 0.00947127 0.00978504
O 8.10288805 22.77605943 15.02545304 0.00193561 -0.00365921 -0.00238149
O 16.25790566 8.15084144 20.93264830 -0.00493180 0.01014903 0.00033641
O 14.72717848 18.12068680 2.25717244 0.00048073 -0.00782308 0.00245728
N 16.26779066 20.71557299 7.93410689 -0.00034436 0.00459294 -0.00006702
N 2.32439720 1.66693163 9.41214670 -0.00264069 -0.00963098 -0.00061519
N 9.76052175 26.44354497 8.09141543 -0.00174577 0.00007940 0.00105317
N 1.76554721 7.25929038 9.94699415 -0.00481434 -0.00673333 -0.00822149
N 24.43510398 1.77473984 16.50204816 -0.00346454 -0.00347837 -0.00435288
N 0.24541776 18.94542063 23.43148458 -0.00266937 -0.00277791 0.00501016
N 8.76721456 24.59036303 29.30032105 0.00246983 -0.00331458 0.00031556
N 24.35289077 28.02741342 6.32169691 -0.01245395 0.00750517 0.00201503
N 23.29976481 22.25472313 20.38339997 0.00319078 0.00177534 -0.00097518
N 4.51527368 8.45330038 0.18522083 0.00288763 0.00241174 -0.00533453
N 17.10934133 26.91897769 19.22819999 -0.00051545 -0.00136100 -0.00038929
N 12.21986115 7.03038532 24.78183012 -0.00709757 -0.00493439 0.01256000
N 8.50011555 7.53436815 25.80287243 -0.00527670 0.00021572 -0.00662367
N 11.32070995 10.83483257 14.44081394 0.00031125 -0.00749275 0.00072103
N 4.46531733 14.27743791 16.18410368 0.00248277 0.00211451 0.00416790
N 7.63001970 7.37755702 13.77286507 -0.00014868 -0.01061303 0.00293939
N 8.49998220 0.79425876 11.46584125 -0.00058899 -0.00244428 0.00080395
N 1.99579887 24.72344128 14.33505630 -0.00404971 0.00019965 -0.00028369
N 21.27687695 18.27565664 27.36850148 -0.00258137 0.00707775 0.00106476
N 22.81834738 16.93655955 20.81267207 -0.00571347 -0.00809581 0.00946550
N 21.45956583 7.81082756 5.61191598 -0.00735764 -0.00575102 -0.00268239
N 20.31633077 22.84279444 4.11059515 -0.00483000 -0.00435132 -0.00915069
N 12.27772920 22.01202337 15.48309231 -0.00134156 0.00089967 -0.00666405
N 0.37311553 2.97912188 27.73589929 -0.00086572 -0.00249385 0.00120586
N 10.53585387 28.53779098 15.40489784 -0.00181825 -0.00424089 -0.00400453
N 1.72318908 23.46011323 3.74486830 0.00350742 0.00370846 -0.00110824
N 0.40920544 10.70039277 26.33560569 -0.00598202 0.00921898 -0.00250957
N 3.89661671 23.21695328 26.68260810 0.00068987 -0.00037443 -0.00766854
N 18.96866166 16.80081647 2.58111816 0.00461725 0.00203439 -0.00681578
N 5.78883412 27.55590979 22.12994008 0.00460886 0.00067295 -0.00170159
N 9.37553170 21.62053614 23.94400418 -0.00065523 0.00065347 0.00641605
N 22.02768053 27.05303618 22.20695437 0.00017090 -0.00982867 -0.00772871
N 10.00889585 11.88757720 2.76439258 -0.00006222 -0.00305923 0.00877206
N 8.76757408 6.21378082 6.30528138 0.00107663 0.00702689 -0.00320429
N 12.06661307 6.17281680 9.35065287 -0.00246551 0.00233562 -0.00619410
N 15.45778624 11.83401878 14.02637680 0.00642474 0.00373719 0.00440382
N 12.18585270 27.83528312 11.79894215 -0.00421367 -0.00455003 0.00585264
N 19.99862048 10.67750611 8.70469087 0.00958467 -0.00709250 -0.00837505
N 7.58866938 21.51829568 9.39297042 -0.00457341 -0.00044536 -0.00669305
N 16.83629848 12.94627048 8.43560113 0.00257266 -0.00389003 -0.00705083
N 16.22848055 17.68661596 17.87685276 -0.00209011 0.01245674 -0.01190045
N 5.46211656 7.78605158 18.81268803 -0.00421147 -0.00375310 0.00930373
N 17.31023216 27.52689355 12.15008182 -0.00100413 -0.00595673 -0.00828633
N 2.23598872 9.82829478 4.22215692 0.00543916 0.00124598 0.00368921
N 9.65907144 27.65418406 23.20496365 -0.00796571 -0.00599715 0.00279918
N 14.45739999 3.22150356 15.45872248 0.00092869 -0.00041590 0.00574156
N 11.17801311 14.69859963 12.10157515 0.00459777 -0.00525284 -0.00374785
N 20.93245228 6.02989422 2.24568880 -0.00171501 0.00286120 0.00116820
N 5.79738318 14.52737075 22.42602938 0.00774766 0.00009855 0.00128414
N 4.18371959 9.42253681 9.44099566 -0.01100168 0.00090824 -0.00144820
N 18.34203644 11.32183552 26.53644781 -0.00128935 -0.00600228 0.00007944
N 1.30792426 14.13033603 8.32873255 0.00073463 0.00513547 0.00089115
N 13.90453210 9.92465412 27.44063703 0.00620424 0.00393307 0.00346604
N 13.40514263 24.40745590 19.71329345 0.00114431 -0.00186607 0.00152188
N 15.57395595 4.28722775 6.72765697 0.01307269 0.00566139 -0.00242695
N 10.76702359 22.16999035 6.06734149 -0.00735004 0.00405124 0.00274222
N 22.82066038 3.33320962 20.58424408 0.00454013 -0.01085171 0.00038502
N 2.77598853 10.30725548 18.87125094 -0.00377018 0.00045001 0.00834164
N 10.40746554 13.47511711 22.94347121 -0.00180864 0.00679308 0.00103125
N 8.78098432 1.17129583 28.86456997 0.00951130 0.00034875 0.00122895
N 7.86787740 18.28384587 29.18180969 0.00134385 0.00010669 -0.00582294
N 15.06855959 21.69387245 0.35673775 -0.00805561 0.00232982 0.00082455
N 11.64720766 3.29280543 18.68237768 -0.00761264 -0.00289141 -0.00067851
N 14.37784592 15.78940826 20.72529590 -0.00205217 0.00123733 -0.00541633
N 19.36058192 20.98345211 1.14802507 0.00202541 0.00119277 0.00637357
N 23.41269880 8.38767628 15.77376012 -0.00097203 -0.00146470 -0.00506757
N 13.51694834 1.54097695 0.68372406 -0.00633396 -0.00349868 -0.00002922
N 15.91749409 8.03180594 2.45094961 0.00186567 -0.00383569 0.00525541
N 22.02670933 27.09795832 13.65639393 0.00034789 -0.00718914 -0.00543065
N 0.01030375 13.03305514 0.17185907 -0.00493756 -0.00726786 -0.00499554
N 8.23754138 14.82124023 3.60746737 -0.00529893 0.00144958 -0.00228749
N 24.44989684 1.05801668 1.51400826 -0.00002470 -0.00121388 -0.00306191
N 20.11631325 11.34770278 14.84517752 0.00127523 0.00270404 0.00198281
N 8.13161993 17.69537749 23.26418925 0.01039048 -0.00343969 0.00467469
N 17.86486823 24.97717992 23.37283394 -0.01136689 0.01217022 -0.00008057
N 16.08929199 15.17290173 26.09885932 -0.01722549 0.00151129 -0.01175035
N 20.75813672 28.03527172 27.72558096 0.00923150 0.00649644 -0.00558879
N 1.59667977 5.04459316 23.24693844 0.00416824 0.00629192 -0.00179766
N 16.02785498 7.71190705 18.68141441 0.00567891 -0.01423127 -0.00215964
N 21.79459311 10.36945005 24.63857053 0.00960921 0.00156627 0.00364601
N 20.35895956 25.25986572 9.65974243 -0.00297365 -0.01239281 -0.00269892
N 23.18596727 18.67524619 9.48628460 0.00313942 -0.00023469 -0.00618662
N 9.65715455 1.26991394 4.51227496 0.00006399 0.00569259 0.00333721
N 24.55691345 4.08701298 11.90885507 -0.00913622 -0.00524274 0.00494691
N 17.87986610 17.28137109 11.77233483 -0.00123888 -0.00391202 -0.00389997
N 2.55232220 18.20454936 4.17374438 -0.00315628 0.00273992 -0.00178690
N 18.99359010 4.97610000 8.01014119 0.00964352 0.00480780 -0.00697526
N 12.89951818 18.89202570 3.49887277 -0.00601212 0.00198743 -0.00738662
N 4.59224152 22.52984724 18.68407670 -0.00438956 -0.00314458 0.00817390
N 14.58414530 27.34470259 4.01967543 -0.00136237 0.00012880 0.00610607
N 13.94681505 0.65587707 23.95650568 0.00255403 0.00563453 -0.00214777
N 2.30198444 20.20875961 8.43596359 -0.00016094 -0.00135695 -0.00187633
N 18.76720602 7.42250808 21.97210237 0.00515655 -0.00072230 0.00321579
N 8.43840264 20.53514588 15.05425698 0.00454856 -0.00526685 -0.00646615
N 1.59823004 17.25431047 13.46709442 0.00073508 -0.00087613 0.00222584
N 20.86235381 18.49139322 17.23921380 -0.00609046 0.00440149 0.00383877
C 8.59903266 27.66440753 11.99833453 0.00176258 -0.00100149 -0.00015241
C 2.47216120 28.30911039 9.49855057 -0.00420067 0.00768416 -0.00508310
C 23.08711208 19.65798694 26.59975029 -0.00812303 -0.00413982 0.00600867
C 3.55416678 6.04163998 11.08397051 0.00390057 0.00031258 -0.00542115
C 19.86323510 9.23677538 4.41560746 -0.00099996 -0.00426400 -0.00380758
C 0.47689716 16.88795607 24.70265864 -0.00109345 -0.00516345 -0.00061398
C 10.95188152 22.87157433 17.25872996 -0.00265802 -0.01209441 0.00854010
C 1.16034266 0.56988918 5.89379951 -0.00658624 -0.00566489 -0.00006945
C 8.19945245 26.49875549 12.71707114 0.01504044 -0.00551574 -0.00399853
C 3.31570697 27.18688286 9.70046488 -0.00068925 0.00220121 -0.00531869
C 24.44834451 20.04381756 26.79442735 0.00090323 -0.00038786 -0.00441415
C 4.69216597 5.24893171 10.97077061 0.00300594 -0.00262979 -0.00090709
C 19.64908791 10.11898729 3.41761966 0.00762706 0.00346939 0.00754475
C 24.58327881 15.79397254 25.23782806 0.00370864 0.00305732 -0.00490556
C 10.24524122 22.72973826 18.45057290 -0.00259645 0.00816472 0.01103348
C 2.42253057 1.01024082 5.50776673 -0.00130491 -0.00077994 0.00006859
C 7.12385270 26.51843343 13.57294009 -0.00392568 -0.00079384 -0.00521507
C 4.74206741 27.36730443 9.52737079 0.00187849 -0.00957244 0.00281376
C 0.48456928 19.55536398 27.94239881 0.00655905 0.00207077 -0.00376959
C 5.12351003 4.88797026 9.68492016 0.00260008 -0.01559995 -0.00381048
C 20.66665217 10.97020830 3.02494018 -0.00538369 -0.00253222 -0.00385591
C 23.25067073 15.53907897 25.18589528 -0.00266371 0.00491453 0.00028488
C 10.08588770 21.47834224 19.02715498 0.00243997 -0.00203999 0.00533892
C 3.36934916 0.14506352 5.06307288 -0.00367220 0.00410197 -0.00734219
C 6.31986445 27.66949532 13.62622855 -0.00043366 0.01439295 -0.00308778
C 5.19823567 28.65929648 9.52162883 0.01037226 -0.00899486 -0.00045323
C 24.56396001 18.77849466 28.87763794 0.00687542 0.00203619 -0.00193793
C 4.57448812 5.29617061 8.49781056 -0.00309030 0.00227730 0.00341196
C 21.92688340 10.74466041 3.51055050 0.00263399 -0.00290543 -0.00263387
C 22.51034211 16.34198915 24.23288951 0.00071924 0.00252275 -0.00747535
C 10.72388235 20.35806318 18.38895529 0.00610131 -0.00513183 -0.00209914
C 3.09138561 27.94403563 4.97402955 0.00200236 0.00276286 -0.00368515
C 6.67117917 28.78732276 12.84721138 0.00569638 0.00430237 0.00682033
C 4.35878619 0.57107654 9.61067499 -0.00264168 0.00308355 0.00706127
C 23.23588928 18.57612546 28.79438688 -0.00186797 -0.00027121 -0.01213460
C 3.40848692 6.02403115 8.62902950 -0.00574236 0.00721676 -0.00273091
C 22.24072815 9.76526745 4.42058788 0.00115727 -0.00383694 -0.00468299
C 23.01381630 17.55173632 23.87127802 0.00143831 -0.00529184 0.00351626
C 11.34679846 20.48421829 17.18666347 0.00474987 0.00317615 -0.00869322
C 1.81077098 27.50945843 5.14143004 -0.00670358 -0.01169397 -0.00204727
C 7.93993763 28.85311941 12.09482622 -0.00420115 0.00803456 -0.00303165
C 2.94642332 0.45780361 9.57589199 0.00160866 0.00116712 0.00409619
C 22.50614978 18.85595962 27.60675988 0.00587209 0.00479073 -0.01273051
C 2.88646912 6.44533882 9.87317893 0.00155096 0.00453721 -0.00844785
C 21.23921294 8.87688462 4.80529215 -0.00157636 0.00310874 -0.00892497
C 24.35918131 17.87033745 23.95121589 0.00060319 0.00744424 0.00487273
C 11.50174511 21.75187866 16.59867698 -0.00223771 -0.01090143 -0.00369324
C 0.86392178 28.38866049 5.78272672 0.00563961 -0.00375136 -0.01280229
C 7.85427315 2.01503666 11.53024334 -0.00413510 0.00131707 -0.00003008
C 0.97938277 1.74970098 9.14262818 -0.00461697 -0.01003752 0.00394045
C 20.38143718 17.88771560 28.31226320 -0.00529685 0.00163298 -0.00280064
C 1.05979593 7.45161196 11.07515944 0.00191252 -0.00992104 0.00304226
C 22.45978187 7.69419877 6.55215022 -0.00066408 0.00308844 0.00370185
C 1.52078216 19.43473021 23.61211225 0.00056716 0.00072983 -0.00423347
C 12.73884075 21.00573183 14.65585251 -0.00129251 -0.00937135 -0.01136330
C 23.95944677 26.73799039 6.06758617 0.00246985 -0.00053731 0.00588345
C 0.04157053 23.49125810 18.97158234 -0.00338385 -0.00071313 -0.00124417
C 0.51334173 3.07951409 8.86143948 -0.00468262 0.00280771 0.00201863
C 7.59538997 27.08217703 7.18241981 -0.00369655 -0.00009983 -0.00031005
C 12.37013856 5.33106937 26.55137952 -0.00865652 -0.00588686 -0.00180106
C 7.92684411 9.73526226 25.28161504 -0.00166050 0.00613576 -0.00298993
C 1.83574877 20.83079086 23.05253765 0.00275802 0.00285990 -0.00389885
C 7.95744447 22.80931573 27.93758304 -0.00253562 -0.00136630 0.00042489
C 8.26108155 6.71041611 11.42328559 0.00449296 0.00025952 -0.00167988
C 10.54662855 1.66456334 14.67964887 0.00417340 0.00022877 -0.00940715
C 5.90575692 6.45205377 0.38309769 0.00548815 0.00250015 0.00540926
C 2.43498624 9.49249091 25.42493154 0.01135562 -0.00666735 -0.00497327
C 11.95268546 8.89700690 23.28260354 -0.00500268 -0.00243725 -0.00357013
C 21.04025009 15.86176839 3.33523137 -0.00261371 0.00902241 -0.00114737
C 10.41395080 10.66122486 12.26525500 0.00226905 -0.00790857 -0.00919724
C 11.30261060 21.08110961 25.15634476 -0.00163690 -0.00307016 -0.01230809
C 9.17671582 7.33914919 15.80144070 -0.00060945 -0.00650304 0.00260003
C 10.09972409 2.97958589 14.66507739 0.00066062 0.00577146 -0.00286642
C 7.18802612 5.87371779 0.50640438 0.00331824 0.00458010 0.00244498
C 3.42146702 8.52654454 25.67607784 0.00563307 0.00147292 0.00108423
C 11.78295553 9.36234483 22.02503736 0.00506836 -0.00957614 -0.00886592
C 21.73614945 14.86792697 3.97682158 -0.00273692 -0.00126894 0.00718081
C 9.45325911 10.91071894 11.30038933 -0.00267692 0.00785442 0.01112204
C 12.55954319 21.48623090 25.55505938 -0.00633429 0.00862050 0.00027826
C 9.55374941 7.87662168 17.06391848 0.00137305 -0.00310618 -0.00333963
C 8.92236530 3.16232136 15.29682389 0.00949657 0.00696850 -0.00163619
C 8.34704998 6.61404495 0.07590935 0.00076095 0.00543233 0.00477250
C 3.16828894 7.53493376 26.65951281 0.01211201 0.01119662 -0.01011267
C 11.53210151 8.39988590 20.94580675 -0.00643636 -0.00136263 0.00139065
C 21.16401726 13.87931383 4.85132400 0.00082070 -0.00643638 -0.00837137
C 8.26645991 11.57419786 11.72432156 0.00389497 0.00584501 0.00257061
C 12.83818949 22.88641242 25.65506884 -0.00075809 -0.00300835 -0.00039096
C 8.78090351 8.93771091 17.63957202 0.00357441 -0.00338071 -0.00553205
C 8.17152729 2.08568784 15.79654988 -0.00302873 -0.00602409 0.00572396
C 8.14867427 7.92463303 29.00644658 -0.01059751 -0.00441016 -0.00329138
C 1.86799363 7.55650542 27.23333306 -0.00166774 0.00624196 0.00106698
C 11.69951765 7.03688431 21.09233855 0.00717180 -0.00061418 -0.00453299
C 19.70875342 13.83559815 4.76746186 0.00133479 -0.00244519 0.00233293
C 8.19511238 12.17149723 12.92958246 0.00206622 -0.00860251 0.00153732
C 11.89128100 23.84220462 25.37650527 0.00689027 0.00096790 -0.00484815
C 7.69914579 9.47637429 16.87871052 0.00159710 -0.00042505 -0.00559245
C 8.64907290 0.84352466 15.91031707 0.00181980 -0.00317809 0.01066838
C 6.99311371 8.58132612 29.17506992 -0.00321403 -0.00227101 0.00490786
C 0.94881827 8.55761824 27.07756760 0.00133507 0.00419952 0.00488487
C 11.97073141 6.57571647 22.34674560 -0.00329291 0.00572870 -0.00029170
C 18.96464601 14.81975871 4.07712417 -0.00786032 0.00708268 0.00107286
C 9.27206703 12.13518148 13.91181580 0.00420023 -0.00629180 -0.00692398
C 10.62725706 23.40714512 25.09402627 -0.00385010 0.00203419 -0.00907890
C 7.33706840 8.94151339 15.62907004 -0.00560408 -0.00388708 0.00045805
C 9.92476014 0.64364295 15.36433646 -0.00393183 -0.00011270 0.00692937
C 5.74593462 7.84320959 0.14165008 -0.00506830 0.00946971 0.00284304
C 1.24208008 9.56022679 26.18505040 0.00313386 -0.00731554 0.00047695
C 12.01100888 7.48474902 23.43566984 0.00282794 0.00212244 0.00081727
C 19.60499414 15.75480335 3.26356499 0.00317917 -0.00222948 0.00097947
C 10.38464027 11.24749314 13.48482988 -0.00102658 0.00210903 -0.00274341
C 10.45637802 22.05907408 24.66919621 0.00149264 0.00243709 -0.00750946
C 8.09993271 7.88219013 15.12169880 0.00150506 -0.00493615 -0.00740768
C 10.10065248 27.58474055 16.22969695 0.00346071 0.00362575 0.01065924
C 4.30597459 9.76340457 29.21601270 -0.00045772 -0.00365349 0.01454752
C 0.23998768 11.71520307 25.38221529 -0.00098098 -0.00290088 -0.01126855
C 11.72621209 5.80188416 25.20327812 -0.00152412 -0.00451624 0.00723907
C 17.74346174 16.83038759 1.97867189 -0.00541692 -0.00212890 0.00811101
C 11.50775819 11.36873939 15.66625714 -0.00879656 0.00026978 0.00679223
C 8.41563422 22.53919184 23.55595451 -0.00159700 0.00303121 0.00558982
C 8.40024640 6.63353936 12.87774994 0.00273362 -0.00441714 0.00016467
C 16.64257191 20.36087997 10.22737162 -0.00381916 -0.01177023 0.00015865
C 2.90851344 10.28593529 0.23601648 -0.00295516 -0.00099236 -0.00744656
C 18.34218353 25.34023237 17.72160800 -0.00056331 -0.00587479 0.00188958
C 0.01567801 8.51071919 10.86676326 0.00452553 -0.00876189 0.00689746
C 23.33446453 3.21884115 14.94328765 -0.00131804 0.00583219 -0.00337653