1920
Time=35000.00000001 pbc="T T T" Lattice="24.85502814 0.00000000 0.00000000 0.00000000 29.61621366 0.00000000 0.00000000 0.00000000 29.21922640" energy=-12187.79146248 virial="-48.32256792 -23.67947061 45.92781261 -23.67947061 -69.86493318 32.27147558 45.92781261 32.27147558 -50.56339236" stress="0.00129725 -0.00113108 0.00209719 -0.00113108 0.00025532 0.00147621 0.00209719 0.00147621 0.00101346" Properties=species:S:1:pos:R:3:vel:R:3
O 3.98476466 28.21780168 13.72834119 -0.00782767 -0.00182041 0.00698501
O 4.73514342 27.26786335 8.88921602 0.00359505 -0.00264949 -0.00846466
O 0.56569957 23.57019797 26.35808018 0.01028013 -0.00818632 0.00035739
O 6.16911549 4.09317324 8.03531753 -0.00246999 0.00024647 0.00296775
O 20.58257679 12.32697970 1.48533616 0.00203942 -0.00157587 0.00026444
O 22.24168392 14.50124538 25.36424531 0.00792254 0.00495408 -0.00156836
O 10.04107252 20.05928991 20.80319412 -0.00920206 -0.00720153 -0.00000107
O 4.06979592 0.02338583 3.39926272 -0.00185752 -0.00104362 0.00353434
O 9.82969523 0.57608044 15.70164076 0.00429769 -0.00652776 -0.00781747
O 0.25329468 2.57952304 8.98781587 0.00151921 0.00437163 -0.00097467
O 23.11342159 18.51605050 0.37522528 -0.01004040 -0.00283851 0.00048329
O 12.37389339 4.64468806 23.52548977 0.00175329 0.00284858 -0.00855549
O 16.95390420 18.55082895 3.90516029 -0.00825892 0.00841992 -0.00702739
O 1.89985098 18.84639743 24.49786841 -0.00795932 -0.00300744 -0.00673372
O 11.79931409 19.99165672 14.77904697 -0.00616756 0.00516492 -0.00354987
O 9.11128772 6.85835701 14.43064885 -0.00049988 -0.00602596 -0.00493121
O 11.35676722 6.22452174 13.35749015 -0.00441672 -0.00512110 -0.00004283
O 9.85526386 7.67633138 1.11319049 0.00128181 -0.00061381 0.00132151
O 4.99166805 8.89381542 27.90014505 -0.00809414 0.00628031 -0.00524269
O 12.10800506 10.24064306 20.59539971 -0.00201569 -0.00326724 0.00343306
O 22.84457977 15.26928716 7.09510689 -0.00209188 0.00377281 0.00270085
O 7.56224732 11.83543624 11.40593731 0.00385538 -0.00115891 0.00014527
O 13.17737006 24.76945908 25.73330041 0.00344705 -0.00041139 -0.00434452
O 9.69933645 9.86334435 20.05525721 -0.00192010 0.00703415 0.00069531
O 7.23618158 2.08612804 9.30801621 -0.00654173 0.00107032 -0.00010320
O 4.93881753 11.22978862 0.41445618 -0.00254843 -0.00401166 0.00578834
O 24.40781948 13.00366987 26.13015104 -0.00703007 0.00503534 -0.00013327
O 1.78191894 6.12845896 12.36505254 0.00084479 0.00049770 0.00235121
O 22.93309285 7.66759092 5.14253817 -0.00671313 0.00139978 0.00222458
O 9.78711155 13.07160110 16.95263288 0.00182123 0.00509177 0.00280674
O 7.56750077 23.79475877 23.02288434 0.00044357 0.00047884 0.00128543
O 24.21336134 25.65025991 7.80955327 0.00584306 0.00185062 0.00129930
O 14.42877254 23.76495216 4.66858544 0.00525111 -0.00233284 -0.00038755
O 4.97839812 24.01537633 8.08449780 -0.00361013 -0.00491909 0.00024425
O 11.62240562 22.50192688 10.09522017 0.00013666 0.00058567 -0.00260199
O 3.85045171 17.79067973 21.67411499 0.00620082 -0.00893356 -0.00312832
O 1.04209485 26.09248804 18.92705091 -0.00306048 0.00370240 0.00014871
O 16.78457029 25.96521977 0.31036624 -0.00455651 0.00408821 0.00223860
O 5.65172988 26.17382033 2.72383999 0.00283260 -0.00096939 0.00099887
O 6.14463027 0.93949424 24.47403521 0.00233875 -0.00060582 0.00321087
O 23.46929292 23.46169274 21.66145175 0.00588400 0.00026473 -0.00641973
O 0.74416564 25.31789022 12.40950617 0.00093307 0.00363426 0.00158635
O 7.26110490 26.68217329 8.09359461 -0.00288818 -0.00316081 0.00601521
O 3.36787106 22.27694222 28.84768771 -0.00386428 -0.00064607 -0.00037087
O 11.21671358 8.06763462 27.79273621 -0.00537023 0.00106876 -0.01116250
O 18.70397935 23.48840764 6.05769250 -0.00168325 0.00068872 0.00032633
O 9.37009515 22.54056759 26.73436237 0.00005332 0.00870683 0.00015212
O 22.78074520 27.87892676 22.63386509 0.00362068 -0.00597633 -0.00159969
O 18.31786525 20.25092134 23.99505242 0.00915750 -0.00080712 -0.00026547
O 22.93885571 24.18544965 0.22250921 -0.00197626 0.00040787 -0.00579230
O 20.94933564 0.29938885 22.11029276 -0.00271600 -0.00442259 -0.00353218
O 3.34012394 28.51436541 27.43634313 0.00125191 0.00063047 0.00559562
O 5.47779975 4.82440284 24.12995062 0.00006828 -0.00579797 -0.00149331
O 1.05617548 24.16614360 22.35626155 0.00629482 0.01260009 -0.00579513
O 23.35973898 16.53885871 15.11090293 -0.00388025 0.00037348 0.00071156
O 22.96650122 26.86637432 28.87294277 0.00803667 -0.00694962 -0.00479217
O 14.14136149 22.10597428 10.56006221 0.00689470 0.00374016 0.00575463
O 3.62183692 24.59776727 3.25599583 0.00379976 -0.00504014 -0.00057547
O 15.61763109 27.93730375 17.14304868 -0.00408656 0.00130805 0.00535392
O 21.60672583 15.58858897 20.43862705 -0.00269367 -0.00408796 -0.00730472
O 3.17016747 2.01015116 16.52392772 0.00470181 0.00586171 -0.00422894
O 3.51951385 29.49586247 20.06076683 0.00332679 0.00232380 0.00341679
O 3.91539933 13.35873114 15.04586341 0.00280263 0.00619327 0.00457436
O 1.04227710 3.08722002 27.47428841 0.00364319 -0.00245980 0.00423086
O 6.58965341 13.32092382 0.30761593 0.00310078 0.00087105 -0.00196386
O 6.16815917 0.73364895 4.88949408 -0.00944328 -0.00142302 0.00003826
O 16.96697275 7.63616383 23.90718175 -0.00424613 0.00383207 0.00112536
O 12.91150284 11.43292406 10.95455417 -0.00273404 0.00053142 -0.00705310
O 12.21407719 8.24118914 1.25599061 -0.00652307 -0.00496952 0.00121857
O 16.01394958 13.70563326 5.83452503 -0.00927619 -0.00367630 0.00022485
O 15.45829208 7.52908580 12.43927510 -0.00575527 0.00680713 0.00383696
O 21.03001246 12.97639475 10.43269243 -0.00367605 0.01225330 -0.00030418
O 20.82109138 4.16708238 19.73462514 0.00736442 0.00084607 -0.00452206
O 9.76919610 7.66885525 5.23546711 0.00436381 -0.00562688 -0.00042665
O 19.64757766 11.65612956 28.07754902 0.00024413 0.00021780 0.00477010
O 0.91904672 9.46269775 3.67981107 -0.00106485 0.00029735 0.00485761
O 6.60706245 16.32018242 28.65399862 0.00089317 0.00585859 0.00716645
O 21.60691191 11.13666638 6.76804672 -0.00032163 0.00185666 0.00229249
O 13.90174715 2.86263836 8.42200473 0.00407500 -0.00192411 -0.00247962
O 23.08695930 2.22417743 3.58245802 0.00962047 -0.00107259 0.00155720
O 24.61029269 0.23258473 22.42327179 0.00593954 0.00451106 0.00373648
O 4.37647019 11.05846671 24.16186141 -0.00472667 0.00433638 -0.00503457
O 9.24272349 13.99342335 19.11772550 -0.00697054 0.00187637 0.00075224
O 0.01266296 5.19351083 28.16501067 -0.00770650 0.00418664 -0.00580638
O 4.29726084 19.30911656 23.80212418 -0.00697679 0.00288671 0.00438944
O 15.92192178 0.07578270 15.22956698 -0.00476013 0.01089501 0.00892695
O 10.38478837 27.29070832 18.93984699 0.00228033 0.00750988 -0.00055357
O 18.22978980 3.79224923 0.39908301 0.00151481 0.00720761 -0.00417427
O 4.58105986 13.41122799 23.72333914 -0.00171084 0.00399382 -0.00829127
O 5.24617813 5.53123054 21.33414510 0.00005625 0.00698937 -0.00245635
O 10.49490692 11.70558717 24.92303598 0.00193166 0.00115512 0.00231286
O 18.45538035 12.69752849 15.97583314 -0.00896263 0.00323690 -0.01147415
O 15.37438975 13.55628487 26.30828194 -0.00836776 0.00309496 -0.00280984
O 14.76961673 6.20826922 14.54559630 0.00062462 -0.00547673 0.00272503
O 12.26495064 4.97567307 18.55728926 0.00421871 0.00168274 0.00077928
O 15.59584144 14.98823395 7.72413121 -0.00304759 -0.00048700 -0.00537232
O 3.88426655 13.55971037 4.64969279 -0.00231815 -0.01056055 0.00397786
O 10.41207271 12.66730361 6.95731948 0.00359709 0.00213000 0.00006832
O 13.42399687 7.10064183 3.66505897 -0.00477486 -0.00359650 -0.01068383
O 5.22442971 13.13374761 12.68139019 -0.00427638 -0.00500712 -0.00192067
O 11.57518000 1.70787003 7.85681961 -0.01070150 -0.00209844 0.00738221
O 14.51093960 24.87950531 12.69059313 -0.00098834 -0.00261266 -0.00117957
O 9.83350780 18.43831887 13.92913797 0.00192441 0.00099051 0.00850055
O 12.02857696 18.16114110 9.35447876 -0.00050237 -0.00052788 0.00255855
O 16.33128256 20.20299251 18.60163173 0.00068030 -0.00228120 0.00745552
O 5.07309258 10.65493105 9.67555373 0.00288341 -0.00221539 -0.00590920
O 13.00864300 9.15625867 9.55730178 0.00747112 0.00657011 -0.00150219
O 8.01583027 0.91775327 25.85847602 0.00296958 -0.00335280 -0.00465702
O 7.68956464 26.04688388 21.51520137 0.00025171 0.00273314 -0.00688460
O 12.12895395 25.47742327 18.23582412 -0.00418843 0.00353092 -0.00297607
O 7.71732225 20.70308172 8.50886346 -0.00034065 0.00015276 0.00301825
O 13.00697853 16.40503664 18.50404700 -0.00643019 -0.00018832 -0.00689570
O 19.93103920 14.82046778 18.74856498 0.01004833 -0.00241353 -0.00198047
O 3.19661020 6.42174181 14.57953090 0.00129744 -0.00454451 0.00334808
O 17.91702259 23.75456999 12.47727582 -0.00159806 -0.00608548 -0.00008348
O 11.98766393 25.76311045 27.74209087 -0.00009449 -0.00364253 0.00577212
O 10.46432622 3.39368725 22.82334443 -0.00477756 -0.00228989 0.00671500
O 16.86430893 22.15635972 24.74263470 0.00262855 -0.00095128 -0.00307482
O 13.15276034 17.40753736 16.09143334 -0.00700259 0.00022170 -0.00428152
O 14.39094799 21.20236960 22.36072260 -0.00400135 -0.00087989 0.00931659
O 9.18041986 10.12697270 4.85894494 -0.00274555 -0.00480400 0.00044401
O 3.70490079 11.58200302 18.48517463 0.00066287 0.00102855 -0.00135861
O 15.73705320 29.05283666 9.81981080 0.01043331 0.00121783 0.00050671
O 2.86824941 13.94326419 6.83022398 -0.00123941 -0.00098125 -0.00122169
O 12.31170905 25.96924925 11.47350853 0.00865831 -0.00286116 0.00597253
O 13.79995043 22.09514417 2.54228248 -0.01155036 -0.01223814 0.00597499
O 11.30231029 15.92525316 10.17261508 -0.00597108 -0.00318490 -0.00265294
O 8.48267560 20.58255413 4.39557189 0.00756282 0.00838269 -0.00029668
O 24.23115751 27.28482636 11.90272383 0.00648543 -0.00318908 -0.00298794
O 24.07069648 11.16362388 19.72002923 -0.00297878 0.00928609 -0.00526058
O 4.37757570 0.98443841 28.75867063 0.00027501 -0.00626086 0.00543284
O 17.05494216 13.51316762 2.01905918 -0.00940366 0.00249764 0.00097694
O 14.87843482 17.85295821 7.92367743 0.00068433 0.00630907 -0.00594872
O 4.18494882 17.34355364 28.98740984 0.00259561 0.00506364 -0.00432790
O 22.32151461 0.39405511 5.21597063 -0.00569832 -0.00050316 0.00489102
O 19.43121316 28.21944350 3.88947960 0.00630355 -0.00069805 0.00500124
O 2.91759565 24.65200389 17.05793765 -0.00196362 -0.00309289 0.00924111
O 23.52777637 5.65153999 16.72799123 -0.00191561 -0.00995603 -0.00644805
O 9.00132147 29.46723877 3.69643330 0.00004443 0.00784037 0.00000457
O 19.80875686 17.98496633 24.68293583 0.00312497 0.00374635 0.00180418
O 21.03261219 6.44873968 21.07538499 0.00484413 -0.00558499 -0.00479358
O 22.52169680 14.21876432 1.80837616 -0.00121326 0.00926624 0.00350539
O 18.19060236 3.90586476 10.45144352 -0.00762388 -0.00412519 -0.00352136
O 23.78162745 10.37413161 22.10204741 -0.00534302 -0.00182507 0.00698678
O 7.30442471 29.48771271 16.55116844 -0.00033196 -0.00665583 -0.00722098
O 14.28807955 16.01671783 27.06231915 -0.00300624 -0.00309842 -0.00761983
O 17.36750279 5.77620589 28.35141494 -0.00512089 -0.00602227 -0.00464862
O 17.13340432 13.60380535 20.90870344 -0.00249802 -0.00427624 0.00606895
O 20.16649913 11.33852521 17.20888944 0.00422525 -0.00393007 -0.00637248
O 2.89503644 4.24586729 17.56972098 0.00504351 0.01040622 -0.00202663
O 22.08845765 14.94306587 9.52080719 -0.00174828 -0.00249815 0.00189106
O 22.77539925 5.55433225 26.42403434 -0.00342598 -0.00214751 0.00693479
O 18.29953551 26.61133870 7.40054000 -0.00496768 0.00725219 0.00391802
O 10.70429730 18.04086133 22.24575935 0.00109392 0.00482509 -0.00150365
O 15.82956468 0.56572445 25.42818777 -0.00502670 0.00482962 0.00243835
O 18.66677067 7.81711159 3.84272110 0.00630291 -0.00058003 0.00342469
O 17.37905631 18.19414420 13.82487382 0.00734797 0.00245631 -0.00593031
O 0.83312244 6.81753541 22.77517848 -0.00772290 0.00419459 -0.00570663
O 3.10668095 16.81027174 10.66793371 -0.00462395 0.00663505 0.00169489
O 0.33893920 27.61679393 0.85642135 -0.00601238 0.00387823 -0.00289760
O 19.39520442 19.60996323 6.00931373 -0.00379758 -0.00701657 0.00047489
O 20.17527527 22.95850117 13.23742745 0.01006613 -0.00613628 0.00486502
O 16.47222579 28.73408748 2.02204637 -0.00744833 0.01147985 -0.00246325
O 1.59013718 28.61499780 12.32312789 -0.00413218 0.00284001 0.00034409
O 19.70363478 3.75114903 14.46887081 0.01014771 -0.00429427 0.00068653
O 7.14471954 21.02993807 2.09240796 0.00121820 -0.00227152 0.00723415
O 14.73724990 14.28429254 2.44137562 -0.00594283 0.00519658 -0.00258770
O 10.04539423 20.27256882 27.66784014 -0.00334418 0.00228468 -0.00228258
O 20.91907453 10.91385664 12.15446539 0.00514513 0.00524968 0.00656413
O 20.92037561 19.21158156 8.14201260 -0.00138751 0.00589903 -0.00915052
O 13.53704987 4.84989432 2.08280439 -0.00513665 0.00229099 -0.00297705
O 2.78118859 18.84402670 6.33422810 -0.00152889 0.00598330 0.00368305
O 17.88771998 27.19381813 27.54514154 -0.00264169 0.01006639 0.00165553
O 0.87387552 19.76366806 1.36662655 -0.00238306 0.00595167 -0.00577066
O 9.51758351 14.96789346 6.41654456 -0.00448799 -0.00509731 -0.00005695
O 22.88677610 18.88300321 16.18831290 -0.00263313 -0.00834812 -0.00291340
O 18.38187602 5.10079109 12.55843745 0.00906419 0.00311895 0.00155193
O 16.48243636 29.13731697 7.33084258 0.00264116 0.00490379 0.00324980
O 17.71890027 22.35888887 18.65641485 -0.00241647 -0.00559172 -0.00305118
O 24.51887417 23.42194957 9.49801509 0.00311705 0.00541911 0.00124936
O 21.19717547 3.95966712 25.02210577 0.00023654 0.00150405 0.00043381
O 7.47086798 16.12145820 19.78910683 -0.00232708 -0.00333055 0.00380622
O 16.21202145 2.66747632 21.07321977 -0.00093945 -0.00103945 0.00056511
O 23.41604410 25.24740725 15.66787408 -0.00195505 0.00807507 -0.00277865
O 21.47727008 22.18616372 0.72760012 0.00342039 0.00365924 0.00067393
O 11.11387511 28.24488788 4.26707145 -0.00029150 -0.00037317 0.00697229
O 15.09721439 24.60993071 24.10580689 0.00207643 -0.00011135 -0.00059735
O 22.11787851 3.66518397 11.60489977 -0.00178303 0.00870647 -0.00289529
O 22.02659859 27.28853990 15.15303083 0.00013779 -0.00126329 0.00291397
O 7.41806420 19.38443207 14.26131740 0.00315822 0.00863353 -0.00137924
O 15.62925117 8.88139138 21.67750954 -0.00068742 0.00242092 -0.00118393
O 14.65761418 18.88069204 2.70257502 -0.00010718 -0.00959195 -0.00419428
N 16.03767947 21.44377304 9.35043397 0.00580133 -0.00120854 -0.00038911
N 2.20286261 2.70059440 7.77279543 -0.00850672 -0.00400778 0.00091106
N 9.30895925 26.44957930 7.10046336 -0.00210762 0.00042143 0.00060134
N 2.40595568 7.25185600 10.51754497 0.00536842 0.00201236 -0.00333825
N 1.32508556 0.93443266 15.66209075 -0.00209851 -0.00404079 -0.00091818
N 24.67639732 19.32192580 23.75403979 0.00795041 0.01080329 0.00034418
N 9.23734870 24.33987079 28.11760604 -0.00165236 -0.00018086 0.00101550
N 0.09372498 27.31127733 6.37915682 -0.00308765 0.01227141 -0.00550619
N 22.56612610 21.49188754 20.70631103 -0.00470324 0.00380629 -0.00297662
N 4.61281464 9.44196738 1.79422883 0.00368048 -0.00787834 0.00688776
N 16.49398701 28.36104637 19.18543098 0.00359166 -0.00296042 -0.00669301
N 12.29136841 6.60785903 24.65081699 0.00102654 -0.00577076 -0.00534862
N 9.21011268 7.03428702 27.33716599 -0.00385813 -0.00992425 -0.00240048
N 11.10704406 11.60420669 15.75633046 0.00555681 0.00522501 -0.00339190
N 3.50057807 14.96167623 16.63713183 -0.00187908 -0.01082362 -0.01197312
N 7.28137494 8.01533349 15.35167338 -0.00343814 0.00098721 -0.00228864
N 7.52882657 2.44008507 11.63652120 -0.00701491 -0.00033156 0.00632084
N 2.77476136 24.64913449 13.06068352 0.00273917 -0.00346759 0.00649245
N 22.78185608 18.88251160 27.37434221 -0.00067061 0.00697515 -0.00239037
N 23.49773372 16.55949503 20.58036414 -0.01005770 -0.00193591 0.00188009
N 21.55329012 7.29735013 3.42355346 -0.00875544 0.00518498 -0.01370738
N 20.07187423 23.46349256 4.11963334 0.00599204 0.00568309 0.00471087
N 11.93728886 21.96090862 16.00347681 0.00109645 -0.00430827 -0.00299735
N 0.85232604 1.52431441 25.88724395 0.00189932 0.00790137 -0.00614567
N 10.90529120 0.71517815 13.67146440 -0.00458651 0.01178626 0.00015227
N 1.98948970 23.21285974 4.10307152 0.00645746 -0.00396515 -0.00147849
N 0.21793362 10.89245462 25.91906274 -0.00471760 0.00176322 0.00361502
N 3.74547963 22.91665269 26.64686764 -0.00400523 -0.00551401 -0.00080372
N 18.93180588 17.34616935 3.59445564 0.00354448 0.00576576 -0.00709887
N 5.00171685 27.85436742 20.76461259 0.00055924 0.00500813 0.00082272
N 9.20043582 22.19433453 22.85930569 -0.00630950 -0.00696138 -0.00515727
N 22.18355389 25.90190497 23.37488174 0.00164380 -0.00714054 0.00806365
N 8.86365949 11.80124310 3.22113600 -0.00223754 -0.01074577 -0.00166782
N 8.84491691 5.62949657 5.88420846 0.00969037 0.00366112 -0.00030593
N 12.12282914 7.09638986 9.01108779 -0.00119185 -0.01215690 0.00867339
N 16.92298457 11.63228736 14.71262391 0.00169811 0.00121265 -0.00633028
N 10.23942764 26.74962706 10.76244461 -0.00110585 0.01228171 -0.00613275
N 19.73229466 9.86387894 6.73662997 0.00019778 -0.00572222 0.00931711
N 7.08697708 18.68453833 9.27635982 0.00660837 -0.01065467 0.00365090
N 15.54280232 13.79157409 9.65279224 -0.00336892 -0.00682046 -0.00487019
N 16.63512605 18.80750904 16.78084784 0.00224025 -0.00154138 0.00029911
N 6.92897059 7.12474157 21.27668928 0.00473393 -0.00330033 -0.00568555
N 16.14796991 28.86132466 12.01655633 0.00504992 -0.00272322 -0.00167631
N 1.99913822 7.39161402 3.51700655 -0.00219232 -0.00043020 -0.00020264
N 9.09374964 27.74180029 22.12853413 -0.00030989 -0.00203623 -0.00551753
N 15.34042283 5.39720207 16.62769931 0.00887917 0.00599993 0.01355928
N 10.34632585 14.93700441 11.91209023 0.00302006 0.00218343 -0.00046472
N 23.25276371 4.17344351 2.38858840 -0.00944279 0.00235038 -0.00420795
N 6.73600810 14.32041488 24.05200623 -0.00613371 0.00648917 -0.00694882
N 6.76320439 9.11161432 9.19416826 -0.00292358 -0.01142289 -0.00145245
N 19.19202891 12.43715486 26.06012010 0.00209069 0.00323518 0.00175195
N 2.08041750 12.30974133 8.14935709 0.00190245 -0.00747743 0.00124301
N 15.35437117 11.40678516 27.10391381 0.00792225 0.00377861 -0.00955560
N 14.37650464 25.06821796 18.12199182 -0.00187745 -0.00820736 0.00443336
N 15.17223700 4.65889163 7.70882305 -0.00368370 -0.00509302 -0.00501283
N 9.73824324 21.78746523 5.96219188 -0.00424280 -0.00114336 0.00266103
N 22.66648977 3.72679632 18.44638484 0.00389608 -0.00924807 0.01675986
N 3.19789047 9.47863356 19.29035724 0.00187740 0.00904929 0.00538192
N 11.62646987 13.56220612 24.15923288 -0.00417905 -0.00005249 0.00315663
N 9.67587033 1.15387052 27.57297913 -0.00736302 -0.00307042 0.00151724
N 7.91782772 18.11388334 27.85173900 0.00834336 0.01660730 0.00552292
N 14.85182843 21.51604277 0.67208814 -0.00180379 -0.00264603 -0.00038552
N 12.31748382 2.80137775 18.08345613 -0.00476321 0.00499285 0.01423940
N 14.79540611 16.21881222 19.88169194 0.00039190 -0.00556501 -0.00586597
N 19.21586321 21.44235595 0.76696261 0.00014025 0.00679817 -0.00286775
N 23.49248474 7.57606045 15.51555581 0.00085020 -0.00318190 0.00560394
N 12.73041725 3.13338467 0.73933124 0.00866241 -0.00115611 0.00032487
N 16.57268857 7.98344594 3.02076679 -0.00857426 0.00189996 -0.01157206
N 20.77315661 27.95515343 13.30752092 -0.00295833 0.00252231 -0.00330234
N 24.75983670 14.41357294 1.67924552 -0.00972680 -0.00292928 -0.01123956
N 9.75948475 16.11546057 4.41743538 -0.00295773 0.00025230 0.00730327
N 24.07691697 29.56927541 1.19954752 -0.00380342 -0.00572300 0.00683707
N 20.15794103 10.03398230 14.23411087 0.00213325 0.00081463 -0.00380903
N 9.84612104 17.03864898 24.04187757 0.00209693 -0.00547218 -0.00490306
N 17.25723142 25.20932697 23.39653719 0.00709591 0.00042895 0.00103409
N 17.94985767 16.88549844 25.35646663 -0.00752222 -0.00268612 -0.00078509
N 18.88878571 28.70005396 26.18642531 0.01078258 -0.00007612 -0.00249406
N 1.91921453 4.88577026 23.01890934 -0.00112907 0.00448675 -0.00286515
N 16.81473041 8.17412151 19.86674830 -0.00045015 -0.00053340 -0.00332439
N 22.28145956 10.55847245 23.79932546 0.00210918 -0.00109321 0.00218533
N 20.08839695 25.65488509 8.39268775 0.00242138 -0.00800890 -0.00323406
N 22.57319443 19.39569404 9.74758695 0.00303142 0.00096961 -0.00721069
N 8.78220797 1.97324439 2.83589093 0.01063803 -0.00124055 0.00490231
N 24.39226904 4.13337572 11.36255234 0.00909227 0.00745363 0.00301272
N 18.74177513 18.06420060 11.96874193 -0.00600301 -0.01086503 0.00058815
N 2.08440201 19.22356217 3.17410273 0.00829931 -0.00302900 -0.00440139
N 19.97994299 3.00361710 9.56505756 0.00078586 -0.00490848 0.00718961
N 12.50882543 19.35289419 3.35417274 0.00380829 -0.00232450 0.00406516
N 5.07098583 24.43998599 17.54449596 0.00002500 -0.00309310 0.00831352
N 12.88190473 26.96120912 3.68351897 -0.00392982 0.00262489 -0.00370161
N 16.04584463 2.43785595 24.12989124 -0.00212897 -0.00907179 0.00537978
N 2.47589176 18.56114031 8.58704516 0.00299708 0.00407528 0.00322087
N 20.52171038 8.53778123 21.95377442 -0.00552505 -0.00344839 0.00106441
N 7.81100004 20.34471127 16.27346468 0.00049841 -0.00268199 -0.00092647
N 1.68730917 16.52491298 12.40175871 -0.00077925 0.00442310 0.00056436
N 21.46257499 20.17622694 17.35258812 -0.00219973 -0.00134014 0.00107245
C 6.11953512 0.46220069 11.28877611 -0.00066575 0.00534296 0.00113031
C 2.15504665 0.37546373 8.77610656 0.00501974 0.00419667 0.00000317
C 23.21301710 20.80519921 26.01665352 0.01324091 0.00879354 0.00585507
C 3.64238314 5.15232146 10.41926754 -0.00047888 -0.00426042 0.01140717
C 21.07724150 8.69534141 1.67593357 -0.00159433 0.00395002 -0.00192837
C 0.01647888 17.13963942 25.01576741 -0.00016862 0.00249455 0.00088275
C 11.26377796 22.22302044 18.21579775 0.00346072 -0.00703623 -0.00862003
C 0.89981336 29.15154138 5.11864349 -0.00169866 -0.00120598 0.00345656
C 5.41940328 29.04020382 11.96940287 0.00353600 -0.00325679 -0.00155798
C 2.85060332 28.80201950 9.10711179 -0.00133680 -0.00534496 -0.00026721
C 23.81431505 21.99948308 25.73120153 0.00102065 0.00610233 -0.00264403
C 4.51141562 4.29753744 9.78587699 -0.00350380 0.00504912 -0.00075766
C 20.88149502 9.93052795 1.13783391 0.00064754 -0.00046834 0.00112958
C 24.10712975 16.06828490 25.55385554 -0.01238582 0.00410214 -0.00190038
C 10.64092102 21.85782001 19.34211077 0.00075760 0.01013922 0.00087649
C 1.79966928 0.12283434 4.30798905 -0.00687134 -0.00268368 0.00190302
C 4.75108188 29.21001371 13.17919894 0.00233984 0.00047237 -0.00249814
C 4.13728530 28.54049064 8.62188238 -0.00301517 -0.00322831 -0.00604573
C 24.73552605 22.42242688 26.62348882 -0.00001802 0.00587340 -0.00159641
C 5.09814914 4.74792371 8.54260738 0.00095966 -0.00333494 -0.00071320
C 21.16411927 11.15237138 1.85069416 0.00291211 -0.00936039 0.00444340
C 22.88853923 15.62443279 24.96906844 -0.00371897 0.00130833 0.00105169
C 10.31497625 20.50902667 19.61584281 -0.00480143 -0.00202819 0.00986932
C 3.00760075 28.99659399 4.04873190 0.00357515 -0.00443313 0.00361151
C 5.25253817 0.69737500 13.94191668 0.00355593 -0.00535537 0.00138947
C 4.76295231 29.48750542 7.83043151 0.00478514 0.00850509 -0.00399452
C 0.20497883 21.75090790 27.78454616 0.00265383 0.00647792 0.00276876
C 4.45257037 5.78069296 7.88262521 0.00033560 0.00198606 -0.00828158
C 22.02643412 10.94579854 2.96975121 0.00019056 0.00136253 -0.00275327
C 22.35887084 16.51552891 24.03771610 -0.00914578 0.00584527 0.00243548
C 10.39450782 19.67758451 18.45664310 0.00442706 -0.00600978 0.00770654
C 3.19870604 27.61321231 4.47119619 0.00384157 -0.00554103 -0.00518170
C 6.12909485 1.60099982 13.42977017 0.01178244 0.00254517 -0.01029080
C 4.10618176 1.10561360 7.61408589 -0.00966572 -0.00551363 0.00022178
C 24.39962435 20.54750143 28.13352794 -0.00750958 -0.00516534 0.01210746
C 3.60141464 6.62811160 8.54407847 -0.00394268 0.00145119 0.00531489
C 22.24675799 9.70998344 3.53211068 0.01287753 0.00181611 -0.01157937
C 22.84680309 17.77738321 23.92347790 0.00381105 -0.01589984 -0.00082119
C 10.90260582 20.06318845 17.24581846 -0.00370033 -0.00073221 0.00451364
C 2.24199276 27.00528164 5.19757239 -0.00085149 0.00038817 -0.00689257
C 6.65600477 1.48738912 12.09971543 -0.00261457 0.00157423 0.00264995
C 2.79132709 1.39347644 8.02246069 -0.00473743 0.00423038 -0.00777841
C 23.41267379 20.03896218 27.21247968 -0.00827561 0.00157280 -0.00276366
C 3.25112885 6.35829134 9.94435642 -0.00323515 0.00601852 -0.00104957
C 21.63045451 8.55884669 3.01781485 -0.00924032 0.00088102 0.00395717
C 24.15493938 18.08797777 24.36429317 -0.00832941 0.00748746 0.00138265
C 11.34424544 21.42046021 17.11715198 0.01398887 -0.00375905 0.00057697
C 1.08222647 27.82032020 5.53670232 0.00158455 0.00031592 0.00095913
C 7.69697236 2.68659593 10.30884447 -0.00092484 -0.00058481 -0.00459187
C 1.05126670 3.12431976 8.22372225 -0.00435331 0.00515042 0.00282008
C 22.68917373 18.09412440 28.55798608 -0.00254704 0.00360973 -0.00498949
C 1.79212290 7.15511396 11.72521359 -0.00101239 -0.00170390 0.00392275
C 22.01350022 7.00061597 4.68040329 0.00916030 -0.00206530 -0.00321096
C 1.09167493 19.69392750 24.13100748 0.00362962 -0.00377078 -0.00028340
C 12.02860478 21.16798394 14.90351065 -0.00478174 -0.00647931 0.00768981
C 24.71434128 26.01347748 6.68043359 -0.00182143 -0.00405745 -0.00376909
C 24.51188939 22.73756417 19.64036846 0.00134861 -0.00189260 0.00321306
C 0.59518718 4.48062536 7.83527901 0.00162860 0.00993846 0.00373995
C 7.58480563 27.40146432 5.83302205 0.00305409 -0.00628783 0.00111404
C 12.31702589 4.54616875 25.89744591 -0.00569420 -0.00325249 0.00303801
C 9.72108755 9.32690258 26.45779427 0.00144086 -0.00161488 0.00252708
C 1.37224005 21.10728543 23.90325083 -0.00702439 0.00406263 0.00243882
C 7.57790574 24.05968139 26.28348014 0.00437530 0.00222681 0.00309324
C 6.97205500 6.27858479 13.72873127 -0.01387217 0.00166493 0.01527886
C 11.63472757 2.71931642 12.46184970 -0.00315172 0.00502088 -0.00000704
C 6.33941590 7.71518199 1.88181123 0.00289983 -0.00161941 -0.00148802
C 2.59432333 11.34859686 26.61151029 -0.00570328 -0.00568844 0.00770232
C 13.27220715 8.57702842 23.53884960 0.01252398 -0.00324390 -0.00800365
C 21.39147927 16.54807126 3.91357279 -0.00100478 -0.00755174 0.00205620
C 10.49186724 10.83794160 13.39651646 0.01199963 0.00252751 -0.00340877
C 11.22400547 22.19919515 24.36814453 0.00580896 0.00617497 -0.00537087
C 9.31113983 8.40889605 16.66963908 -0.00508167 -0.00517095 -0.00121482
C 11.66732305 4.11464947 12.32176773 -0.00243620 -0.00167638 0.00164506
C 7.62459025 7.21711047 1.64791716 0.00558384 -0.00364922 -0.00626223
C 3.82549515 10.72452997 27.02901040 -0.00093901 -0.00385067 0.00731721
C 13.08087156 9.52752325 22.57618297 0.00313587 -0.00017877 0.00237981
C 22.18501600 15.94736453 4.88230450 0.01070140 -0.00111588 0.00229261
C 9.62556218 10.88590722 12.30770098 0.00187391 -0.01001778 0.00021636
C 12.25400272 22.84263605 24.93464005 0.00130251 0.00807366 -0.00064637
C 9.88914661 8.96609280 17.79615877 -0.00381549 0.00604167 -0.00475563
C 11.22075267 4.92382099 13.34730541 -0.00680596 0.00232771 0.00409832
C 8.62460230 8.06356289 1.19001772 0.00178672 -0.00469586 -0.00336859
C 3.84654302 9.40018990 27.37571186 0.00008474 -0.00257863 -0.00468801
C 12.19129792 9.31363933 21.49579219 -0.00037742 -0.01336484 0.00219726
C 21.85715569 15.74975960 6.21074640 0.00392216 0.00411833 -0.00366520
C 8.36003642 11.45463796 12.45522832 -0.00150437 -0.00468824 -0.00028161
C 12.13074667 24.25504316 25.03744971 0.00044123 0.00772238 0.00043062
C 9.10335726 9.50857119 18.81201791 -0.00152309 -0.00054145 -0.00455785
C 10.60124364 4.29196274 14.42947995 -0.00012060 -0.00209094 -0.00360475
C 8.28995302 9.38990242 0.86681661 0.00118307 0.00435022 -0.00453388
C 2.67967481 8.64900536 27.34481685 0.00759376 0.00762308 -0.00732119
C 11.44570545 8.05852177 21.50349937 -0.01055436 0.00810010 0.00374867
C 20.63949933 16.21616464 6.63062989 -0.00156641 0.00103422 0.00554107
C 7.92179167 11.86871976 13.79025805 0.00465543 0.00900903 0.00720225
C 11.15502686 24.99552598 24.43203603 -0.00336669 0.00446813 0.00039738
C 7.74729131 9.62826447 18.55124342 0.00349918 -0.00205048 0.00803152
C 10.47223848 2.94826081 14.49194991 -0.00588215 0.00346573 0.00245323
C 7.03351266 9.87297482 1.08588682 -0.00211068 -0.00467128 -0.00061560
C 1.54863972 9.05271127 26.64333195 0.00687343 -0.00395077 -0.01018982
C 11.62167968 7.15787899 22.47575908 0.00064627 0.00145294 0.01270177
C 19.66863052 16.77314951 5.84029591 0.00311007 -0.00571821 -0.01066108
C 8.77882152 11.57331929 14.86397913 0.00074796 -0.00149394 0.00053610
C 10.10699964 24.26583439 23.88208711 -0.00856872 0.00949926 -0.00042657
C 7.17634503 9.22836738 17.33522622 -0.00395660 0.00288498 -0.00289427
C 10.94541103 2.07501279 13.55444816 0.00993923 0.00231649 -0.01132381
C 6.06328101 9.01592616 1.58971025 0.00431887 0.00135018 -0.00541969
C 1.41188554 10.38123590 26.35738481 0.00043074 -0.00083165 -0.00475411
C 12.44682119 7.40472759 23.49859594 -0.00231337 0.00523733 -0.00086610
C 20.01654443 16.93674359 4.47581651 0.00749365 0.01122010 -0.00156119
C 10.13311701 11.29307742 14.73433399 -0.00664456 0.00595649 -0.01066930
C 10.19082528 22.88974848 23.75619621 -0.00591165 -0.00209994 0.00145810
C 7.93746930 8.46303678 16.44014917 -0.00607818 -0.00670457 -0.00010496
C 10.13710877 0.06824425 14.60093513 0.00022651 0.00340326 0.00120843
C 4.17234698 10.56177426 1.19830806 0.00659278 0.00013071 -0.00259682
C 0.16318102 12.22240348 25.49006103 0.00651985 -0.00184096 -0.00836040
C 12.37253848 5.25855125 24.63673476 -0.00199117 0.00381740 -0.00443090
C 17.63499482 17.42816833 3.87888415 -0.00315672 -0.00523639 -0.01516558
C 10.86854611 12.40808986 16.84176613 -0.01029990 -0.00157581 -0.00180479
C 8.13291420 22.81214070 22.36999935 0.00315623 -0.00250189 0.00009556
C 7.92273755 7.02742533 14.54637022 -0.00591266 -0.00396063 -0.00270012
C 16.07873299 21.05602947 11.64876998 -0.00145377 -0.00329390 0.00459273
C 2.76198218 11.03988573 1.52069185 0.00388025 0.00593599 0.00017004
C 17.88163007 27.26767078 17.25432614 -0.00310261 -0.00164567 0.00643467
C 1.06289661 8.29733046 12.41813977 0.00960804 -0.01279781 0.00898403
C 1.52641082 3.35880164 15.54368151 0.00046034 -0.00061875 -0.00589554
C 11.93217563 12.51836817 17.93871523 -0.00113304 0.00316611 0.00774493