1920
Time=79000.00000008 pbc="T T T" Lattice="24.50548695 0.00000000 0.00000000 0.00000000 30.12986210 0.00000000 0.00000000 0.00000000 29.08339380" energy=-12186.48355442 virial="-34.08602016 21.68593974 34.36628229 21.68593974 -97.85699038 -41.20089089 34.36628229 -41.20089089 -89.34875282" stress="0.00191258 0.00100577 0.00153369 0.00100577 -0.00110880 -0.00190896 0.00153369 -0.00190896 -0.00067859" Properties=species:S:1:pos:R:3:vel:R:3
O 5.09766447 26.30295915 12.38058155 -0.00188202 0.00420289 -0.00130782
O 4.33350588 28.02465624 9.16225029 -0.00470564 0.00162618 0.00045819
O 4.93245500 22.10327054 27.32257504 -0.00004371 -0.00177199 0.00380814
O 5.54746229 4.14486907 9.79150293 -0.00016788 0.00764675 0.00699963
O 22.23652792 13.08637593 0.01338648 0.00367257 0.00222514 0.00436700
O 21.57613625 14.70204800 25.35720208 -0.00199903 -0.00712516 -0.00027331
O 9.47334856 18.41930172 19.74383035 -0.00501274 0.00178111 -0.00250542
O 4.00539907 1.19447979 5.16295603 0.00303892 -0.00580342 -0.00328717
O 8.29827819 27.35535497 15.37075995 0.00788774 0.00348956 0.01333475
O 23.40509381 1.15526838 9.79316268 -0.00218069 0.00465168 -0.00064779
O 23.70125954 19.41853534 27.12695540 0.00699180 -0.00517390 0.00851721
O 11.97700660 4.59943431 24.20677306 -0.00188104 0.00333735 -0.00462494
O 16.70305528 17.12949606 1.15533946 0.00061009 -0.00209762 0.00433538
O 1.54923229 19.20005245 24.45645363 -0.00228146 0.00062090 0.00320925
O 9.02289764 21.19528031 14.21106894 0.00466835 -0.00393714 -0.00238838
O 9.29865911 5.43414004 13.77422110 0.00399080 0.00438552 -0.00708980
O 7.63260988 3.61894880 14.22064416 -0.00290259 0.01027236 -0.00670999
O 9.02305178 9.63828397 27.47007661 -0.00597316 0.00361712 0.00286714
O 5.00813329 8.91385282 23.04662102 -0.00701726 0.00178434 -0.00607485
O 12.23716611 8.84818445 19.75066142 -0.00117150 -0.00425048 0.00820199
O 22.35203352 14.79937484 5.77255703 0.00462055 -0.00615010 0.00456935
O 8.32741365 11.98534711 11.61387173 -0.00745215 0.00516012 0.00643990
O 14.72815666 24.99062933 25.83629775 -0.00479856 -0.00560390 0.00657733
O 10.35679572 9.52043671 18.38147643 0.00128256 0.01293543 0.00318331
O 6.89889414 2.20066558 11.22231865 -0.00055191 0.00521912 -0.00409661
O 4.03368336 13.02579766 28.38378158 -0.00711821 0.00328426 -0.00206116
O 23.64177744 12.91182175 25.57276999 0.00417962 -0.00066269 -0.00082452
O 1.08166765 5.49059731 14.16127862 0.00101463 -0.00499170 -0.00205030
O 22.70746196 9.58914163 5.07499760 -0.00450895 0.00289963 -0.00060072
O 12.07030425 12.78991639 16.46541307 -0.00225428 0.00703673 -0.00149103
O 9.30185583 25.19764139 23.07734062 -0.00093262 0.00438836 -0.01123665
O 22.92998295 26.84973484 7.27278031 0.00598127 0.00519870 -0.00235083
O 13.10473808 23.75464128 3.93494753 0.01020501 -0.00160668 0.00529275
O 3.29719749 22.25886703 10.02274331 -0.00330325 0.00115960 -0.00075819
O 11.34572962 23.35250196 9.84684904 0.00325708 0.00003245 -0.01128367
O 3.40045947 19.74901093 20.52934357 -0.00813912 -0.00624514 -0.00888919
O 5.77859757 29.17935912 18.32610327 -0.00233220 0.00680335 0.00154000
O 18.03762452 26.04050768 0.54834782 0.00243256 0.00048893 -0.00133891
O 4.59920760 27.97016049 2.14222527 -0.00075034 -0.00110620 -0.00732324
O 6.92095295 0.70120931 25.99833479 0.00613161 -0.00391442 -0.00936759
O 24.07188229 23.71109206 20.97698569 0.00332231 0.00919099 0.00128918
O 0.23538844 26.89623475 13.33959047 0.00053827 0.00611812 -0.00346205
O 7.19207611 28.16705382 9.01162525 0.00261035 0.00488670 0.00552619
O 4.65455942 25.28129950 26.92516503 -0.00044062 0.00106873 0.00375780
O 9.62742164 7.66542312 25.94441021 0.00045133 0.00114942 0.00249743
O 16.83976986 22.71696079 5.75573313 -0.00651691 0.01431772 0.00805695
O 9.69895816 24.20424461 26.85006631 -0.00345642 0.00735490 -0.00734704
O 23.25353531 26.15121697 22.29725129 -0.01015431 0.00193186 0.00891859
O 19.73531867 20.85917445 24.23979891 0.01531367 -0.00254520 -0.00290746
O 22.51284102 23.93529761 0.71947400 0.00030339 -0.01364766 0.01413750
O 19.82503631 2.61730011 24.06932888 -0.00183398 0.01104848 0.00555213
O 0.34015157 30.09029175 27.11556893 0.00526995 0.00424363 -0.00547914
O 5.56785623 4.35189830 20.26519524 -0.00094608 -0.00085128 0.00542850
O 1.94783047 23.95601846 20.47776115 0.00067193 0.00355094 0.00001453
O 0.29618839 15.00172835 18.05388682 -0.00547167 -0.00184824 -0.00293019
O 21.61465527 25.75818490 28.51946364 0.00372398 0.00428425 0.00503294
O 13.85899780 23.40738697 10.17429885 0.00221262 0.01128282 -0.00558226
O 2.66439299 26.86196858 3.70291744 -0.00617231 -0.00017333 0.00466238
O 19.81080279 29.65139807 18.82530649 0.00135738 -0.00731596 -0.00121155
O 20.93201319 16.54810475 21.06589327 0.00724242 0.00154614 0.00042256
O 0.32726319 2.26303517 17.50068344 0.00054280 0.00580513 0.00197254
O 2.22377421 29.97825269 22.96937067 0.00253286 -0.00598022 -0.00139967
O 5.56246040 15.09170026 14.60460370 -0.00571910 0.01063830 0.00004036
O 2.91743084 4.75741423 29.07291668 0.00015193 0.00548787 0.00943903
O 3.08924506 14.62000589 26.45177608 -0.00027218 0.00181199 0.00269115
O 5.37627391 1.68837644 7.21804649 -0.01401012 -0.00356664 0.00415275
O 16.42562095 7.27632872 23.76058873 -0.00698886 0.00074339 0.00274549
O 14.55527310 9.77256421 9.82017137 0.00047873 -0.01158557 0.01221625
O 11.80256149 6.74472367 1.10293264 -0.00088220 0.00537330 0.00247287
O 15.44047324 11.43898347 4.98711812 -0.00431527 -0.00378537 -0.00544433
O 16.46212402 6.56584029 11.36652103 -0.00591070 -0.00271771 0.00009131
O 21.48293517 15.13738351 10.20404827 -0.00065068 0.00774534 -0.00274428
O 22.88118807 6.01266926 20.30122377 -0.00251607 -0.00532948 0.00531457
O 7.77919161 8.76593242 5.24232959 -0.00377138 -0.00221198 0.00583943
O 19.34085556 11.75017935 26.81899702 -0.00896653 -0.00065781 0.00119948
O 0.70130415 10.37356044 5.39807885 0.00274859 0.00434316 -0.00317681
O 7.34859720 17.73052557 28.29382167 0.01177125 0.00847526 0.00149602
O 21.51063987 12.54364972 6.38494041 0.00703878 0.00312789 -0.00224316
O 15.22604716 1.53787856 7.44312491 -0.00007423 -0.00630156 0.00257120
O 21.62486866 4.53938996 3.62340174 0.00125846 -0.00001197 0.00140535
O 24.10607357 2.75795801 25.51837527 0.00546939 0.00097511 0.00482831
O 6.95062603 10.36253643 21.96621792 0.00729879 -0.00172140 0.00442576
O 10.12848429 14.44700175 17.53207406 0.00263056 0.00077467 0.00338259
O 2.17929969 7.90413904 28.95613316 -0.00124204 -0.00219502 -0.00592733
O 3.76717497 19.32157724 23.29869654 0.00373767 -0.00548103 -0.00347685
O 18.46084810 0.11552822 16.17436461 0.00194774 0.00698640 -0.00046724
O 9.47694167 26.30181596 19.47844280 -0.00511135 -0.00473652 -0.00164619
O 15.99879821 5.27322779 0.42556634 0.00479398 0.00381127 -0.00065859
O 4.85706236 14.55055519 20.32250626 0.00120159 -0.00642567 0.00319335
O 5.29590441 6.75162488 17.18966508 -0.00677465 0.00358399 0.00794626
O 9.12989441 11.25877072 22.86677794 -0.00222370 0.00306149 0.00618176
O 17.18847484 13.30489047 15.82771666 0.00001607 0.00355368 0.00400136
O 13.73451089 12.48720956 25.78465687 0.00350132 -0.00443791 0.00126423
O 16.20058805 5.45739650 13.61746764 -0.00350801 0.00354200 -0.00240249
O 8.19460068 2.31687961 19.12344747 0.00389457 -0.00508942 -0.00343411
O 16.38848531 15.09153172 6.42295949 0.00262845 0.00213454 -0.00500745
O 2.06258619 12.13682864 3.74301847 0.00676152 0.00285314 -0.00055222
O 9.51863138 12.21156504 6.28252949 -0.00115077 -0.00128728 -0.00263698
O 11.82795828 8.57820993 3.04173972 0.00062918 0.00288267 -0.00479979
O 6.93332661 14.73489446 12.06003627 -0.00114236 -0.00109096 0.00532115
O 11.79157637 3.26048518 9.14179690 -0.01138096 -0.00204573 -0.00410575
O 14.58556610 26.83106201 14.43881552 -0.00613615 0.00170635 0.00569728
O 8.40937568 18.42105228 13.50082158 -0.00421498 0.00294345 -0.00057524
O 10.64423092 17.60369761 7.28310391 -0.00559118 0.00375077 0.00298392
O 16.45720466 20.36332990 17.66907162 0.00343873 0.00500313 -0.00040013
O 5.49703758 8.40785549 10.86987340 0.00402882 0.00208592 0.00213037
O 12.29889013 8.45820810 9.39028421 0.00074483 -0.00465195 0.00637235
O 11.19128561 3.95664482 28.93397837 0.00240891 0.00355092 0.00045419
O 7.67916704 26.95231771 22.69430167 0.00768434 -0.00029340 0.00523951
O 13.69328525 24.74580585 20.34845044 0.00055907 -0.00354540 0.00221798
O 6.13856547 18.67158387 7.55500343 -0.00416769 -0.00460171 0.00086353
O 12.32468789 16.94435881 18.17191385 -0.01110087 -0.00216769 -0.00138077
O 19.14693542 15.26474557 19.66853347 0.00401865 0.00372199 0.00547576
O 4.94730482 8.08251713 13.40541546 -0.00500042 0.01292699 0.00195019
O 16.53084006 22.54874142 13.78805193 0.00054266 0.00010483 0.00029810
O 13.89270889 28.19518806 28.31339200 -0.00026765 -0.00637426 -0.01303907
O 12.88182846 2.20230814 24.22898656 0.00187119 0.00403706 -0.00179756
O 18.73410041 19.56208462 26.56035338 -0.00381958 -0.00883825 0.00041700
O 12.28473072 18.15284462 15.87596788 -0.00453553 -0.00056731 -0.00081558
O 13.06169260 22.23654532 21.02707863 -0.00453768 -0.00529024 -0.00195627
O 8.34937830 10.64566565 3.54519574 -0.00137152 0.00547817 -0.00832893
O 4.37109643 12.11688700 18.21388351 0.00124411 -0.01256610 -0.00677247
O 17.89575607 28.26346856 11.38987159 0.00529610 0.00063231 0.00025984
O 1.29487654 13.98116008 9.25801693 -0.00152645 0.00487520 -0.00597127
O 13.77839849 28.45558882 12.59755307 0.00243428 0.00206417 -0.00365757
O 13.82857652 23.70725296 1.62695419 -0.00151844 0.00690843 0.00074609
O 10.69655850 17.28587753 9.87525219 -0.00599863 -0.00492262 -0.00073102
O 9.12522322 22.35730391 3.04195142 0.00454116 -0.00110713 0.00002479
O 23.64884652 27.57068757 10.84739764 -0.00510417 -0.00222049 -0.00104308
O 23.38749697 11.64033022 19.91353418 -0.00630694 0.00879664 -0.00269460
O 5.73186086 0.14238157 3.07557442 -0.00103486 -0.00507368 0.00214202
O 14.79017362 14.00982727 0.46787682 -0.00772114 -0.00078677 -0.00046622
O 13.46577984 17.25371619 7.30493517 0.00305352 0.00771296 0.00319485
O 6.10937285 17.36297252 1.72226375 0.00217236 -0.00533875 0.00397236
O 21.90047691 1.36797358 7.82537286 -0.00069504 0.00230607 0.00578744
O 19.40048358 28.82093575 3.77749542 -0.00291508 -0.00126558 -0.00336177
O 4.55579108 19.63115982 18.17669730 0.00542014 0.00395422 -0.00370508
O 20.81011992 6.77162419 16.51763038 0.00299124 0.00421221 0.00159880
O 11.24099533 28.82674445 5.43175271 0.00244061 -0.00253546 0.00066625
O 13.25673920 15.81244728 25.78091551 -0.00539150 0.00161134 -0.00659475
O 20.52070392 6.67157784 20.69102230 -0.01085746 -0.00248262 0.00031651
O 23.75588880 15.01919353 0.45601362 0.00074170 -0.00882590 -0.00431882
O 17.58800081 5.46484445 5.10159709 0.00112272 -0.00102493 -0.00169867
O 22.23048062 11.19829583 22.36714030 -0.00481649 -0.00128725 -0.00434664
O 6.04578465 27.04760371 16.54646712 -0.00106608 -0.00117989 0.01035231
O 10.93989167 16.52605199 26.86487963 -0.00475610 -0.00179626 -0.00543713
O 16.52514263 5.50466216 26.59776938 0.00357496 -0.00078848 0.00232504
O 15.41959929 12.92009187 20.12298975 0.00208432 0.00247431 -0.00102690
O 19.32741089 12.72749601 18.40383030 0.00428714 0.00723350 -0.00025644
O 2.91622544 6.86355857 18.35058665 0.00397364 -0.00138976 0.00141392
O 23.73417843 14.32007016 10.88772877 0.00283539 -0.00098808 -0.01041594
O 24.41572418 8.03470255 27.40777233 0.01356297 -0.00050062 -0.00005590
O 17.20192284 25.85460505 7.23610982 0.00123339 0.00099715 0.00087995
O 8.04758607 18.66382278 21.86575992 0.01411631 -0.01333143 -0.00014344
O 15.88740356 29.41832664 27.27680656 0.00481983 0.00542550 0.00284138
O 14.32183411 9.26150536 4.65407301 -0.00275130 0.00569465 0.00098766
O 16.23142525 15.92139614 12.57784832 0.00427600 0.00148348 0.00316262
O 0.98095434 6.50667566 24.17525116 -0.00335286 -0.00249618 0.00304574
O 1.38535172 19.70154379 13.59408985 0.00040778 0.00122106 -0.00402505
O 0.02850969 0.53232660 0.41257979 -0.00286002 0.00768856 0.00403186
O 19.31330976 18.17584086 6.27902075 0.00503199 -0.00306650 -0.00283761
O 18.69833612 21.21681764 13.46826872 -0.00605389 0.01001250 -0.00487050
O 18.72102519 28.56348436 1.16078695 0.00144238 0.00700471 0.01483098
O 2.19574579 28.79053912 13.78636169 -0.00210854 -0.00352038 0.00354213
O 21.30047668 0.60758984 15.37843280 0.00320344 -0.00600266 -0.00207823
O 7.18185325 22.20943051 1.40797960 0.01112979 0.00045899 0.00620793
O 12.87946072 15.38803319 1.68971262 0.00919902 -0.00249832 -0.00819945
O 11.22865856 22.02902651 26.62536519 -0.00650293 -0.00584016 -0.00009194
O 0.40028743 8.68199346 10.17392891 0.00067466 -0.00586724 -0.00132743
O 21.24502915 19.09104365 7.93534961 -0.00306990 0.01236702 -0.00171938
O 15.08439288 3.46157547 2.02541864 0.00067827 -0.00348875 0.00071223
O 1.54182374 19.52982778 5.84271369 0.00575171 0.00392883 -0.00242816
O 19.99369881 29.79874955 28.38408199 -0.00009180 -0.00986635 0.00047132
O 1.60839855 19.52007850 1.04253205 -0.00373810 0.00695081 -0.00054783
O 8.36472146 14.96532972 6.22755198 0.00028323 0.00615440 0.00946422
O 22.98176106 16.96032768 17.79959787 0.00460035 0.00306225 -0.00174387
O 18.68472397 6.96314795 10.06430218 -0.00218226 0.00765674 0.00209145
O 17.82860798 30.04622786 9.61970056 0.00335058 0.00462194 -0.00564098
O 17.38941180 23.27371106 18.06385696 -0.00077257 -0.00212744 -0.00778804
O 22.22974084 24.34699114 7.10009407 -0.00401015 0.00175767 -0.00536195
O 19.92458568 6.89798647 26.46243836 0.00685608 0.00005320 0.00186728
O 3.84459903 16.95399059 13.76159060 -0.00287452 -0.00117406 0.00876565
O 20.01444753 2.14604203 19.34946242 0.00232035 0.00236509 0.00176095
O 21.04479698 22.94578315 16.98397957 -0.00044578 0.00255525 0.00419875
O 21.06744373 22.16831274 1.66633602 0.00031426 0.00543541 0.00153521
O 13.35692542 27.39869513 5.93941380 -0.00789001 0.00302650 -0.00147986
O 16.61681983 24.47988565 24.35527855 0.00819412 0.00509810 -0.00733008
O 21.73002810 2.20393633 13.38787997 -0.00183785 0.00433315 0.00107458
O 22.24502127 24.35176808 15.29887545 0.00265323 0.00066043 -0.00247769
O 6.51446653 23.95755949 11.52948871 0.00406822 0.00230340 -0.00192599
O 15.96412219 6.58822154 21.22207986 -0.00332277 -0.00061643 -0.00570679
O 14.10175879 17.67378405 1.51806880 -0.00474995 -0.00147879 0.00710321
N 14.33491315 21.61200219 8.84078788 0.00699508 0.00056069 0.00271092
N 0.91714012 2.22975624 9.83114491 0.00977271 -0.00195045 0.00058907
N 8.93813539 27.78440344 7.63275321 -0.00066042 0.00028103 0.00196360
N 1.28017444 6.69174872 12.26481582 0.00361572 -0.00568361 0.00623339
N 0.33383473 0.14530649 18.42728151 0.01291788 -0.00287774 0.00706565
N 23.98185231 19.36671552 23.65423104 0.00556107 0.00672034 -0.00834731
N 8.45125598 25.82385341 27.84812840 0.00182202 0.01046041 -0.00456023
N 23.67526142 28.81364591 6.48982112 0.00758816 -0.00647262 -0.01224479
N 22.28391236 22.89999386 19.75797900 -0.00178305 -0.00173249 -0.00121292
N 4.07388031 11.14768384 0.60296567 -0.00541307 -0.00187883 -0.00383190
N 18.25122855 28.91023945 20.45597434 0.00448328 0.00276882 -0.00605055
N 12.37554330 6.76724931 24.81751530 -0.00751378 0.00467778 0.00203853
N 8.97797060 6.31315257 24.18720544 -0.00470402 0.00049782 0.01176155
N 12.34240084 10.85829361 15.33614027 0.00526322 -0.00325902 -0.00183558
N 5.61179035 15.93696325 16.65946231 -0.00655000 0.00188462 0.00799853
N 8.62803598 7.57793324 13.55557819 -0.00572643 -0.00428689 0.00417791
N 8.44953116 0.63744638 11.85376723 0.00923089 0.00392205 0.00433806
N 0.40481993 24.72302580 14.04219971 -0.01039032 0.00005757 0.00218860
N 23.87628899 21.54048703 27.92344070 0.00355251 -0.00878551 0.00569793
N 22.64343383 17.86958776 20.61220763 0.00394655 0.01040300 -0.00520852
N 20.64452474 9.79769497 4.23748618 0.00081457 0.00510823 0.01366556
N 18.96869301 23.18122499 5.22447408 0.00478999 0.00778941 -0.00296791
N 10.34927852 22.21548377 15.79245260 -0.00575014 0.00247569 0.00196517
N 2.12298368 3.16585696 27.72367370 0.00160587 -0.00042757 0.01501760
N 10.01937096 28.58954455 14.69339845 0.00055300 -0.00935918 0.00078324
N 2.26670310 24.78497675 4.36189229 -0.00435689 -0.00990952 -0.00156374
N 0.70809086 11.37085724 25.47026936 0.00840747 -0.00709683 -0.00572084
N 3.27759341 25.81463542 25.25158841 -0.00338105 0.00930332 -0.00029356
N 18.52345777 16.04601863 1.93935625 -0.00038713 0.00012712 -0.00321559
N 3.97731909 28.80471279 22.13794518 -0.00134831 -0.00523924 0.00757525
N 10.31483644 23.16852616 23.05250012 0.00041429 0.01305085 -0.00589982
N 21.67330331 27.39463392 23.13321074 0.00404362 0.00369187 -0.00687730
N 7.42490260 12.27877602 2.22555288 0.00335597 0.00920980 -0.00370090
N 7.75031067 6.67050562 6.15001138 0.00652162 -0.00754733 0.00431758
N 11.82697256 6.49566247 8.27012391 -0.00330914 0.00072280 -0.00334527
N 16.67293360 13.24327180 13.66004605 0.00915533 0.00243386 -0.00319884
N 12.11393048 28.12750404 11.15767870 -0.00310012 0.00018639 -0.00165275
N 20.08073690 11.08006234 7.67292085 -0.00266839 0.00346639 -0.00497497
N 8.00090338 19.80026094 8.08376825 -0.00353554 0.00816336 0.00443572
N 16.60705637 13.52379028 8.04878227 -0.00463163 0.00377639 -0.00415152
N 15.54217060 18.43641509 17.00229171 0.00325686 0.00054875 0.00493378
N 7.47814653 6.87990359 17.73427030 -0.00350449 0.00440225 0.00904827
N 17.57643767 27.80173325 13.52361805 -0.00544704 0.00868212 0.00248326
N 1.28682008 8.26140804 5.26129459 0.00989267 0.00109100 0.00520260
N 9.39195318 28.27274702 22.53816620 0.00439787 -0.00047290 0.00930119
N 15.10787107 4.56196422 15.45740227 0.00225918 -0.00641045 -0.00192744
N 11.18164473 15.49146267 11.04452635 -0.00612499 0.00526745 -0.00115597
N 21.05598859 6.45219350 2.48350575 0.00138732 -0.00207535 0.00062444
N 5.39060028 12.83225612 21.75670519 -0.00408194 -0.00530155 -0.00811750
N 5.70127467 9.22826642 8.87015541 0.00866428 0.00080050 -0.00411304
N 17.45690882 12.35895794 25.70283721 -0.00056818 -0.00456763 -0.00754310
N 3.23082737 13.92050288 8.02281363 -0.00298569 0.00835504 0.00198556
N 13.87275054 10.44486234 26.78811965 -0.00795780 0.00165084 0.00052476
N 14.45085729 26.84427586 19.88748504 -0.00324765 -0.00584674 -0.00190573
N 14.73628517 3.68611907 6.89265998 -0.01020210 -0.00614778 0.00591262
N 10.08359499 22.70877196 5.08807477 0.00922461 -0.00507701 -0.00389311
N 23.84879877 3.99570740 20.13752450 0.01043267 0.01139480 0.00881340
N 2.65278373 10.60568815 17.83146052 0.00506870 0.00320361 -0.00468083
N 9.77693358 13.41579350 23.03326848 0.00871840 -0.00278037 -0.00976803
N 10.03746047 2.04966110 0.13283540 -0.00105380 -0.01106772 -0.00153186
N 8.06274103 19.11107985 26.58462275 0.01123756 0.00004406 -0.00851569
N 14.51218957 22.26749914 0.01757497 0.00115181 -0.00184655 -0.00665775
N 10.00002407 1.34973537 18.05448672 0.00260681 0.00287606 -0.00164194
N 13.90541532 16.88705181 19.79698364 -0.00881013 -0.00858505 -0.00197011
N 18.91613523 21.68932436 2.08915259 0.00332221 -0.00244768 0.00197724
N 21.47210673 8.74000542 15.61913492 0.00213400 -0.00562012 0.00095269
N 14.27782990 1.40677422 2.44484683 -0.01364107 -0.00220397 0.00489672
N 15.55112748 8.94930659 2.72291609 0.00769456 0.00865605 -0.00211659
N 20.82565963 25.42719968 13.84200625 0.00327430 -0.00242103 -0.00595587
N 0.71873410 16.14758744 1.66450056 0.00485428 0.00000102 -0.00274406
N 7.85277947 15.74545646 4.15116420 0.00249337 -0.00153009 0.00257067
N 24.11621868 1.12692812 2.60538586 -0.00658367 0.00036046 0.00633172
N 23.22332644 9.97261667 10.97971097 -0.00049610 0.00126939 -0.00434265
N 7.01922570 17.05210444 23.04377963 -0.00177496 -0.00641994 -0.00263108
N 18.12700019 25.65626077 23.11851424 -0.00441845 0.00020050 0.00227924
N 15.34124932 15.98919649 24.86638940 0.00438406 -0.00777195 0.00071900
N 20.68227666 1.78751009 28.63572603 0.00062671 0.00082140 -0.00115645
N 2.12384457 4.86263615 23.18220876 -0.00032765 -0.00152283 -0.00446593
N 16.43801568 6.36915912 18.97685814 -0.00053465 0.01187244 -0.00045807
N 20.98098876 11.26794943 24.26810129 -0.00533060 0.00026003 0.00642526
N 18.52539790 26.44317737 8.96715539 -0.00039696 0.00669541 -0.00744893
N 22.02833642 18.41809520 9.91154355 0.00202197 -0.00080374 -0.00341380
N 10.55475191 0.93371572 5.42282846 0.00689583 0.00649391 -0.00736541
N 23.59599286 3.34510187 14.04598463 0.00216466 0.00413988 -0.00416631
N 17.23103743 17.37227880 11.28974306 -0.00090545 0.00083654 -0.00363802
N 2.33362678 20.04180719 3.11616749 0.00199718 0.00742171 0.00107540
N 18.17475261 5.48995043 7.30272810 -0.00049015 0.00307557 -0.00071683
N 12.92073191 19.57702929 2.24909123 0.00375615 0.00591743 0.01054977
N 4.38866498 21.84543871 17.81999756 -0.00591081 0.01299578 -0.00576948
N 15.37486099 27.97895526 5.04868630 -0.00114195 0.00110031 -0.00663085
N 15.53082007 0.15657952 25.13852526 0.00282100 -0.00842436 0.00508900
N 2.06614606 20.83564309 7.68047404 0.00226046 -0.00063480 -0.00072333
N 19.16375561 8.27533363 21.84430782 -0.00182760 -0.00190707 0.00152905
N 5.58662337 22.03467311 12.00712231 0.00054664 -0.00864019 0.00077789
N 0.45951429 18.00781219 14.87223327 0.00065815 -0.00143460 -0.00388605
N 20.94864232 17.32907848 16.95954335 -0.00429956 0.01553001 -0.00333357
C 8.08582445 28.36732997 12.08915676 -0.00441219 0.00499620 -0.00946886
C 1.37291317 29.91197300 9.82505390 -0.00644456 -0.00500942 -0.00652334
C 1.41865186 22.84159917 28.13622401 0.00096064 0.00625652 -0.00197047
C 3.25081343 5.18518984 12.42805863 0.00451668 -0.00053682 -0.00418150
C 20.11021188 10.90925590 2.10608868 0.00220344 0.01167995 0.00904057
C 24.19189699 17.24037951 24.63337900 -0.00515181 -0.00421648 0.00523947
C 10.27929231 21.58651627 18.14097157 0.00343825 -0.00198463 -0.00586008
C 0.45221838 0.66118939 6.23201879 0.00756112 0.00249106 -0.00162401
C 7.27641226 27.30651036 12.29418271 0.00151270 -0.01030432 0.00742155
C 2.15565235 28.82817610 9.65852001 -0.00162400 -0.00164185 0.00129617
C 2.81568878 23.10621523 28.04150503 -0.00372678 0.00096926 0.00001131
C 4.36086639 4.58249991 11.77386444 0.00038433 0.00532805 0.00049933
C 20.55939384 11.64434736 1.02701059 -0.00587195 -0.00375955 -0.00633371
C 23.59036707 16.05902384 25.08026720 0.00511136 -0.01437460 -0.00888265
C 10.09795637 20.68470841 19.17811504 -0.00452100 0.00569545 0.00187923
C 1.63408010 1.31255417 5.79960755 -0.00220556 0.00023472 -0.00157986
C 5.87414157 27.39567525 12.28828975 0.00121757 0.00435033 0.00023990
C 3.52775079 29.07124919 9.51144988 0.00322625 -0.00161251 0.00924159
C 3.55711118 22.07090081 27.54910080 0.00785658 0.00286550 -0.00192750
C 4.68616196 4.97237438 10.51186982 0.01283438 -0.00663724 0.00304888
C 21.87584782 12.28039861 0.98906811 -0.00311077 0.00364921 -0.00191199
C 22.12892484 15.92442390 25.01347748 -0.00442050 -0.00089918 -0.00745858
C 9.79548884 19.29814697 18.82683948 0.00801945 0.00907603 0.00341723
C 2.74885881 0.52232292 5.42683057 -0.00483479 -0.01458713 0.00114509
C 5.35323734 28.71438898 12.24800422 0.00458579 0.00130405 -0.00347268
C 4.09132455 0.18573368 9.73771629 0.00469540 -0.00479560 0.00758995
C 3.07130122 20.89105432 26.95813582 -0.00011811 -0.00190626 -0.00040650
C 4.17386739 6.16525822 9.95059113 -0.00547150 -0.00156156 0.00108277
C 22.58224934 12.15165717 2.15854968 -0.00226612 0.00575268 0.00152979
C 21.32529683 17.07924881 24.57657013 0.00537693 -0.00019117 0.00064053
C 9.72587850 18.93883869 17.47782167 0.00404682 0.00060946 -0.00283593
C 2.69292997 29.31036205 5.60843638 0.00360868 0.00263668 -0.00393521
C 6.18527582 29.86617695 12.08460688 0.00097346 -0.00406589 -0.00380726
C 3.17486480 1.21975312 9.99919639 0.00734839 0.00840847 0.00281451
C 1.70902923 20.59822631 27.14922182 0.00381170 -0.00122655 0.00213003
C 3.07827758 6.66707724 10.59493490 0.00172551 0.00779845 -0.00757871
C 22.20473760 11.30922551 3.18063490 0.00363684 -0.00321615 -0.00706616
C 21.94585100 18.15371559 24.02803804 0.00166743 -0.00367274 -0.00337847
C 9.76288850 19.91055172 16.54041078 -0.00993817 0.00609786 -0.01015485
C 1.48564653 28.68557945 5.82172858 -0.00063506 0.00803007 0.00536121
C 7.56265335 29.68507768 11.94089056 0.00279694 0.00526686 -0.00039124
C 1.82016381 1.11326773 9.85990142 0.00967811 -0.00082324 -0.00351834
C 0.85040475 21.62557013 27.79889175 0.00028949 -0.00005042 0.00954024
C 2.47801934 6.18311642 11.75840375 0.00029887 -0.00301693 -0.00004637
C 20.97587233 10.66466042 3.21326906 0.00178614 -0.00304108 -0.00478602
C 23.35874819 18.19907091 24.02833875 -0.00674774 -0.00132651 -0.00098895
C 10.13129058 21.28483590 16.77193383 -0.00004114 -0.00456915 0.00359976
C 0.36584208 29.41323816 6.11817536 0.00737833 0.00032413 -0.00034823
C 8.02733580 1.96022227 11.56423910 0.00211410 -0.00971781 -0.00107942
C 24.10513239 2.19776919 9.88175419 0.00433713 -0.01441861 0.01197210
C 23.26557616 20.33034520 27.87646074 0.00864712 0.00161466 -0.01260201
C 0.59865420 6.29217380 13.33978005 0.00372179 -0.00997446 0.00413953
C 21.55072322 9.25051334 5.13224477 0.00366857 -0.00243096 -0.00015768
C 0.68400648 19.93505870 24.03678988 -0.00572104 0.00258962 -0.00681715
C 9.89324460 21.98906957 14.50686739 -0.00250337 -0.00260873 -0.00196715
C 23.37274895 27.45284494 6.29582422 0.00317989 0.00206926 0.00474738
C 23.85085356 24.17009522 18.50455912 0.00596258 -0.00527058 -0.00369474
C 23.40390986 3.52762988 10.11372209 0.00125255 0.00829394 0.00220505
C 6.96932201 28.96312497 6.77934003 -0.00789697 0.00325474 0.00089101
C 11.60649179 4.98769168 26.47614401 -0.00628663 0.00189359 0.00245096
C 8.08247376 8.66868615 24.45379929 0.00041260 0.00134209 -0.00373295
C 1.03795388 21.32288070 23.53735695 -0.00521202 -0.00443454 0.00024072
C 7.39655451 23.70151064 27.04128738 0.00206892 0.00773504 -0.00597970
C 8.40789526 6.37226344 11.64063839 -0.00448153 -0.00712299 -0.00051639
C 10.14843206 0.88206004 14.52112026 0.00276006 0.01232395 -0.00113358
C 5.88988205 9.56996443 0.29658569 0.00179288 -0.00814130 -0.00524300
C 1.60139094 10.03091602 23.59985263 -0.00439449 -0.00460433 -0.00870446
C 11.88165456 8.68348844 23.42457410 -0.00924217 -0.00527518 0.00238902
C 20.84680280 15.87536439 2.61551587 -0.00894064 -0.00337290 0.00780833
C 11.40651110 10.64328300 13.17412553 0.00450399 0.00516840 -0.00709863
C 12.55002292 22.92892162 23.85634776 -0.00639160 -0.00813736 0.00033319
C 10.09844305 7.23629938 15.54086162 0.00087730 -0.00230557 -0.00705676
C 9.64440922 2.16914212 14.41792609 0.00331265 -0.00160160 -0.00472926
C 6.88128841 9.07744030 28.60156758 -0.00055544 -0.00576055 0.01010012
C 2.71114154 9.50435120 22.95090005 0.00765082 0.00068846 -0.01178041
C 11.75192731 9.16578099 22.13278773 0.00458480 0.00142310 -0.00116650
C 21.85657104 15.68270711 3.50352154 -0.00709140 0.00243228 0.00340221
C 10.35257978 10.92493979 12.27088398 0.00418216 -0.00091175 0.00099340
C 13.66674223 23.44721129 24.46042222 0.00074259 -0.00264445 -0.01299306
C 10.52904780 7.77640332 16.74795686 -0.00527727 -0.00553221 0.00295528
C 8.21821164 2.42570093 14.49790649 0.00091646 0.00323987 0.00398301
C 7.76679824 9.92793047 27.84841113 0.00502662 0.01034287 0.00087754
C 3.92967559 9.39100798 23.69571323 -0.00017917 0.00833719 -0.01066288
C 12.31478600 8.47000540 20.93587375 -0.00152008 -0.00060805 -0.00594360
C 21.54453233 15.07763165 4.78470085 -0.00729528 -0.00932957 0.00455964
C 9.34537703 11.81931373 12.55842108 -0.00537522 0.00703566 -0.00716047
C 13.66696784 24.59947407 25.16380476 0.00280450 0.00201240 -0.00951295
C 9.97025751 8.92944369 17.30261125 0.00681673 0.00217304 0.00283365
C 7.46272903 1.22664130 15.03883853 0.00627357 -0.01017920 -0.00241577
C 7.35021368 11.29177478 27.88910741 -0.00228261 -0.00290214 -0.00918551
C 3.88714070 9.61315563 25.12239786 0.00309396 -0.00867221 0.00506983
C 12.84909858 7.15376371 21.19670398 0.00137032 -0.00344901 0.00226576
C 20.21984215 14.64091983 4.95904291 -0.00705184 -0.00005617 0.00097420
C 9.28523204 12.40649283 13.89216545 -0.00821452 -0.00047891 -0.00212769
C 12.47300883 25.29840953 25.33522223 -0.00459757 -0.00589697 0.00023142
C 8.88242427 9.50725295 16.62528970 -0.00174049 0.00164379 0.00114347
C 8.01802036 30.09089630 15.01157860 -0.00466717 0.00362321 -0.00263819
C 6.18745470 11.75981443 28.49465038 -0.00624200 0.00142551 0.00037474
C 2.74705771 10.15332887 25.76013769 -0.00593678 -0.00017481 0.00103165
C 12.83517691 6.68326636 22.43257890 -0.00865520 0.00449515 0.01117910
C 19.23657567 15.22350910 4.18826925 -0.00414779 0.00074225 -0.00589158
C 10.23571638 11.97111835 14.79133978 -0.00940045 -0.00118384 -0.00519380
C 11.43252388 24.92644255 24.50390966 -0.00087720 0.00378246 -0.00077287
C 8.30392082 8.96767809 15.51644319 -0.00483300 0.00346088 -0.00934637
C 9.37223151 29.90877896 14.78492119 -0.01235262 0.00030094 -0.00124075
C 5.41610967 10.90296403 0.16373932 -0.00443335 -0.00269729 -0.00254882
C 1.58967293 10.51587802 24.93862569 -0.00256377 0.00215727 0.00673860
C 12.25337934 7.33298954 23.55285477 0.00440678 -0.00224819 -0.00357365
C 19.45380549 15.68700468 2.89600994 -0.01320570 0.00344511 0.00411307
C 11.37534657 11.17134062 14.37541297 0.00296708 0.00015964 0.00741416
C 11.37713172 23.66635001 23.87715338 0.00742148 0.00422236 0.00873348
C 8.97788426 7.88587642 14.91406806 -0.00593072 0.00160166 0.00005804
C 9.43218964 27.39448121 15.04670225 -0.00252337 0.00724295 0.00571889
C 3.48483153 12.23981510 0.04051052 -0.00679244 0.00233277 0.00142060
C 0.01235251 12.38441780 24.88855407 -0.00406695 -0.00674623 -0.00317170
C 11.94480959 5.46130682 25.07348161 0.01407230 -0.01599701 -0.00639235
C 17.21558994 16.26395980 1.99813265 0.00373304 0.00648111 -0.00791306
C 12.65289428 11.74448394 16.26889802 0.00277344 -0.00238214 0.00032979
C 9.41712183 24.01594493 22.58120120 -0.00102701 0.00514050 0.00586491
C 8.76480876 6.28945549 13.08663936 0.00699892 0.01397035 0.00588751
C 14.32895807 21.36936948 11.29761717 0.00931390 -0.00634246 0.00482911
C 2.04484748 12.36347307 0.40140603 -0.00155723 0.00334833 -0.00281568
C 18.42014329 27.77749550 18.22364417 -0.00171722 -0.00514675 -0.00070273
C 23.86535325 6.96340697 13.64573793 0.00243760 0.00344582 -0.00761427
C 22.80547087 1.34067742 18.43041253 -0.00107742 -0.00422026 -0.00767181
C 13.94920978 11.46430847 17.07586291 0.00058226 0.00090212 -0.00630967